
                                 *****************
                                 * O   R   C   A *
                                 *****************

           --- An Ab Initio, DFT and Semiempirical electronic structure package ---

                  #######################################################
                  #                        -***-                        #
                  #          Department of theory and spectroscopy      #
                  #               Directorship: Frank Neese             #
                  #        Max Planck Institute fuer Kohlenforschung    #
                  #                Kaiser Wilhelm Platz 1               #
                  #                 D-45470 Muelheim/Ruhr               #
                  #                      Germany                        #
                  #                                                     #
                  #                  All rights reserved                #
                  #                        -***-                        #
                  #######################################################


                         Program Version 4.2.1 -  RELEASE  -


 With contributions from (in alphabetic order):
   Daniel Aravena         : Magnetic Suceptibility
   Michael Atanasov       : Ab Initio Ligand Field Theory (pilot matlab implementation)
   Alexander A. Auer      : GIAO ZORA, VPT2
   Ute Becker             : Parallelization
   Giovanni Bistoni       : ED, misc. LED, open-shell LED, HFLD
   Martin Brehm           : Molecular dynamics
   Dmytro Bykov           : SCF Hessian
   Vijay G. Chilkuri      : MRCI spin determinant printing, contributions to CSF-ICE
   Dipayan Datta          : RHF DLPNO-CCSD density
   Achintya Kumar Dutta   : EOM-CC, STEOM-CC
   Dmitry Ganyushin       : Spin-Orbit,Spin-Spin,Magnetic field MRCI
   Miquel Garcia          : C-PCM Hessian, Gaussian charge scheme
   Yang Guo               : DLPNO-NEVPT2, CIM, IAO-localization
   Andreas Hansen         : Spin unrestricted coupled pair/coupled cluster methods
   Benjamin Helmich-Paris : CASSCF linear response (MC-RPA)
   Lee Huntington         : MR-EOM, pCC
   Robert Izsak           : Overlap fitted RIJCOSX, COSX-SCS-MP3, EOM
   Christian Kollmar      : KDIIS, OOCD, Brueckner-CCSD(T), CCSD density
   Simone Kossmann        : Meta GGA functionals, TD-DFT gradient, OOMP2, MP2 Hessian
   Martin Krupicka        : AUTO-CI
   Lucas Lang             : DCDCAS
   Dagmar Lenk            : GEPOL surface, SMD
   Dimitrios Liakos       : Extrapolation schemes; Compound Job, initial MDCI parallelization
   Dimitrios Manganas     : Further ROCIS development; embedding schemes
   Dimitrios Pantazis     : SARC Basis sets
   Taras Petrenko         : DFT Hessian,TD-DFT gradient, ASA, ECA, R-Raman, ABS, FL, XAS/XES, NRVS
   Peter Pinski           : DLPNO-MP2, DLPNO-MP2 Gradient
   Christoph Reimann      : Effective Core Potentials
   Marius Retegan         : Local ZFS, SOC
   Christoph Riplinger    : Optimizer, TS searches, QM/MM, DLPNO-CCSD(T), (RO)-DLPNO pert. Triples
   Tobias Risthaus        : Range-separated hybrids, TD-DFT gradient, RPA, STAB
   Michael Roemelt        : Original ROCIS implementation
   Masaaki Saitow         : Open-shell DLPNO-CCSD energy and density
   Barbara Sandhoefer     : DKH picture change effects
   Avijit Sen             : IP-ROCIS
   Kantharuban Sivalingam : CASSCF convergence, NEVPT2, FIC-MRCI
   Bernardo de Souza      : ESD, SOC TD-DFT
   Georgi Stoychev        : AutoAux, RI-MP2 NMR
   Willem Van den Heuvel  : Paramagnetic NMR
   Boris Wezisla          : Elementary symmetry handling
   Frank Wennmohs         : Technical directorship


 We gratefully acknowledge several colleagues who have allowed us to
 interface, adapt or use parts of their codes:
   Stefan Grimme, W. Hujo, H. Kruse,             : VdW corrections, initial TS optimization,
                  C. Bannwarth                     DFT functionals, gCP, sTDA/sTD-DF
   Ed Valeev, F. Pavosevic, A. Kumar             : LibInt (2-el integral package), F12 methods
   Garnet Chan, S. Sharma, J. Yang, R. Olivares  : DMRG
   Ulf Ekstrom                                   : XCFun DFT Library
   Mihaly Kallay                                 : mrcc  (arbitrary order and MRCC methods)
   Andreas Klamt, Michael Diedenhofen            : otool_cosmo (COSMO solvation model)
   Jiri Pittner, Ondrej Demel                    : Mk-CCSD
   Frank Weinhold                                : gennbo (NPA and NBO analysis)
   Christopher J. Cramer and Donald G. Truhlar   : smd solvation model
   Lars Goerigk                                  : TD-DFT with DH, B97 family of functionals
   V. Asgeirsson, H. Jonsson                     : NEB implementation
   FAccTs GmbH                                   : IRC, NEB, NEB-TS, Multilevel, MM, QM/MM, CI optimization
   S Lehtola, MJT Oliveira, MAL Marques          : LibXC Library


 Your calculation uses the libint2 library for the computation of 2-el integrals
 For citations please refer to: http://libint.valeyev.net

 Your ORCA version has been built with support for libXC version: 4.2.3
 For citations please refer to: https://tddft.org/programs/libxc/

 This ORCA versions uses:
   CBLAS   interface :  Fast vector & matrix operations
   LAPACKE interface :  Fast linear algebra routines
   SCALAPACK package :  Parallel linear algebra routines




***************************************
The coordinates will be read from file: model.xyz
***************************************


----- Orbital basis set information -----
Your calculation utilizes the basis: cc-pVDZ 
       H, B-Ne : Obtained from the ccRepo (grant-hill.group.shef.ac.uk/ccrepo) Feb. 2017
                 T. H. Dunning, Jr., J. Chem. Phys. 90, 1007 (1989)
            He : Obtained from the ccRepo (grant-hill.group.shef.ac.uk/ccrepo) Feb. 2017
                 D. E. Woon, T. H. Dunning, Jr., J. Chem. Phys. 100, 2975 (1994)
  Li-Be, Na-Mg : Obtained from the ccRepo (grant-hill.group.shef.ac.uk/ccrepo) Feb. 2017
                 B. P. Prascher, D. E. Woon, K. A. Peterson, T. H. Dunning, Jr., A. K. Wilson, Theor. Chem. Acc. 128, 69 (2011)
         Al-Ar : Obtained from the ccRepo (grant-hill.group.shef.ac.uk/ccrepo) Feb. 2017
                 D. E. Woon, T. H. Dunning, Jr., J. Chem. Phys. 98, 1358 (1993)
            Ca : Obtained from the Peterson Research Group Website (tyr0.chem.wsu.edu/~kipeters) Feb. 2017
                 J. Koput, K. A. Peterson, J. Phys. Chem. 106, 9595 (2002)
         Sc-Zn : Obtained from the ccRepo (grant-hill.group.shef.ac.uk/ccrepo) Feb. 2017
                 N. B. Balabanov, K. A. Peterson, J. Chem. Phys. 123, 064107 (2005)
                 N. B. Balabanov, K. A. Peterson, J. Chem. Phys. 125, 074110 (2006)
         Ga-Kr : Obtained from the ccRepo (grant-hill.group.shef.ac.uk/ccrepo) Feb. 2017
                 A. K. Wilson, D. E. Woon, K. A. Peterson, T. H. Dunning, Jr., J. Chem. Phys. 110, 7667 (1999)

================================================================================
                                        WARNINGS
                       Please study these warnings very carefully!
================================================================================


WARNING: your system is open-shell and RHF/RKS was chosen
  ===> : WILL SWITCH to UHF/UKS


WARNING: Geometry Optimization
  ===> : Switching off AutoStart
         For restart on a previous wavefunction, please use MOREAD

INFO   : the flag for use of LIBINT has been found!

================================================================================
                                       INPUT FILE
================================================================================
NAME = opt.inp
|  1> ! B3LYP cc-pVDZ OPT
|  2> %pal nprocs 16 end
|  3> 
|  4> *XYZFile 0 4 model.xyz
|  5> 
|  6>                          ****END OF INPUT****
================================================================================

                       *****************************
                       * Geometry Optimization Run *
                       *****************************

Geometry optimization settings:
Update method            Update   .... BFGS
Choice of coordinates    CoordSys .... Z-matrix Internals
Initial Hessian          InHess   .... Almoef's Model

Convergence Tolerances:
Energy Change            TolE     ....  5.0000e-06 Eh
Max. Gradient            TolMAXG  ....  3.0000e-04 Eh/bohr
RMS Gradient             TolRMSG  ....  1.0000e-04 Eh/bohr
Max. Displacement        TolMAXD  ....  4.0000e-03 bohr
RMS Displacement         TolRMSD  ....  2.0000e-03 bohr
Strict Convergence                ....  False
------------------------------------------------------------------------------
                        ORCA OPTIMIZATION COORDINATE SETUP
------------------------------------------------------------------------------

The optimization will be done in new redundant internal coordinates
Making redundant internal coordinates   ...  (new redundants) done
Evaluating the initial hessian          ...  (Almloef) done
Evaluating the coordinates              ...  done
Calculating the B-matrix                .... done
Calculating the G-matrix                .... done
Diagonalizing the G-matrix              .... done
Small eigenvalue found = 7.065e-04
Small eigenvalue found = 1.995e-03
Small eigenvalue found = 7.340e-03
Small eigenvalue found = 9.503e-03
Small eigenvalue found = 1.952e-02
Small eigenvalue found = 2.270e-02
Small eigenvalue found = 2.379e-02
Small eigenvalue found = 2.893e-02
Small eigenvalue found = 2.977e-02
The first mode is                       ....  117
The number of degrees of freedom        ....  138

    -----------------------------------------------------------------
                    Redundant Internal Coordinates


    -----------------------------------------------------------------
         Definition                    Initial Value    Approx d2E/dq
    -----------------------------------------------------------------
      1. B(C   2,C   0)                  1.3934         0.617133   
      2. B(C   3,C   2)                  1.4431         0.514096   
      3. B(C   4,C   3)                  1.3853         0.635705   
      4. B(C   5,C   4)                  1.4205         0.558548   
      5. B(C   5,C   1)                  1.4156         0.568730   
      6. B(C   6,C   5)                  1.4333         0.532860   
      7. B(C   7,C   2)                  1.4305         0.538461   
      8. B(C   7,C   6)                  1.3827         0.641835   
      9. B(H   8,C   4)                  1.0897         0.360550   
     10. B(H   9,C   7)                  1.0894         0.360887   
     11. B(C  10,C   3)                  1.5121         0.398915   
     12. B(H  11,C  10)                  1.1053         0.340467   
     13. B(H  12,C  10)                  1.1053         0.340458   
     14. B(C  13,C  10)                  1.5303         0.373143   
     15. B(H  14,C  13)                  1.1064         0.339044   
     16. B(H  15,C  13)                  1.1064         0.339045   
     17. B(C  16,C  13)                  1.5333         0.369103   
     18. B(H  17,C  16)                  1.1059         0.339686   
     19. B(H  18,C  16)                  1.1059         0.339690   
     20. B(C  19,C  16)                  1.5301         0.373417   
     21. B(H  20,C  19)                  1.1041         0.341960   
     22. B(H  21,C  19)                  1.1041         0.341955   
     23. B(C  22,C   6)                  1.5154         0.394230   
     24. B(H  23,C  22)                  1.1061         0.339357   
     25. B(H  24,C  22)                  1.1062         0.339348   
     26. B(C  25,C  22)                  1.5307         0.372673   
     27. B(H  26,C  25)                  1.1058         0.339854   
     28. B(H  27,C  25)                  1.1058         0.339851   
     29. B(C  28,C  25)                  1.5331         0.369342   
     30. B(H  29,C  28)                  1.1064         0.339044   
     31. B(H  30,C  28)                  1.1064         0.339042   
     32. B(C  31,C  28)                  1.5302         0.373261   
     33. B(H  32,C  31)                  1.1037         0.342364   
     34. B(H  33,C  31)                  1.1037         0.342371   
     35. B(C  34,C   1)                  1.2256         1.142815   
     36. B(H  35,C  19)                  1.1018         0.344838   
     37. B(H  36,C  31)                  1.1018         0.344816   
     38. B(C  37,C  34)                  1.4238         0.551857   
     39. B(C  38,C  37)                  1.4133         0.573609   
     40. B(C  39,C  38)                  1.3934         0.616943   
     41. B(C  40,C  39)                  1.4000         0.602187   
     42. B(C  41,C  40)                  1.4001         0.601977   
     43. B(C  42,C  41)                  1.3934         0.617091   
     44. B(C  42,C  37)                  1.4133         0.573479   
     45. B(H  43,C  40)                  1.0928         0.356479   
     46. B(H  44,C  41)                  1.0924         0.357000   
     47. B(H  45,C  38)                  1.0914         0.358187   
     48. B(H  46,C  42)                  1.0916         0.358011   
     49. B(H  47,C  39)                  1.0924         0.356908   
     50. L(C   5,C   1,C  34,C   4, 1) 179.3908         0.477624   
     51. L(C   5,C   1,C  34,C   4, 2) 179.8064         0.477624   
     52. A(C   3,C   2,C   7)          119.4735         0.409354   
     53. A(C   0,C   2,C   7)          119.2772         0.422877   
     54. A(C   0,C   2,C   3)          121.2493         0.419396   
     55. A(C   2,C   3,C  10)          119.4426         0.388326   
     56. A(C   2,C   3,C   4)          117.5425         0.421621   
     57. A(C   4,C   3,C  10)          123.0149         0.403062   
     58. A(C   3,C   4,C   5)          122.3631         0.427923   
     59. A(C   3,C   4,H   8)          120.2187         0.354482   
     60. A(C   5,C   4,H   8)          117.4182         0.346820   
     61. A(C   4,C   5,C   6)          120.6007         0.414652   
     62. A(C   1,C   5,C   4)          118.7938         0.419490   
     63. A(C   1,C   5,C   6)          120.6055         0.415986   
     64. A(C   5,C   6,C   7)          117.1562         0.425060   
     65. A(C   5,C   6,C  22)          119.6526         0.389958   
     66. A(C   7,C   6,C  22)          123.1911         0.402904   
     67. A(C   6,C   7,H   9)          120.5825         0.355116   
     68. A(C   2,C   7,H   9)          116.5536         0.344746   
     69. A(C   2,C   7,C   6)          122.8639         0.425856   
     70. A(H  12,C  10,C  13)          109.7362         0.321290   
     71. A(C   3,C  10,C  13)          116.8847         0.367385   
     72. A(C   3,C  10,H  12)          107.8776         0.324828   
     73. A(H  11,C  10,C  13)          109.7426         0.321291   
     74. A(C   3,C  10,H  11)          107.8800         0.324829   
     75. A(H  11,C  10,H  12)          103.9164         0.285780   
     76. A(H  15,C  13,C  16)          109.0070         0.320500   
     77. A(H  14,C  13,C  16)          109.0116         0.320500   
     78. A(C  10,C  13,C  16)          112.4792         0.362533   
     79. A(H  14,C  13,H  15)          106.2746         0.285409   
     80. A(C  10,C  13,H  15)          109.9351         0.321071   
     81. A(C  10,C  13,H  14)          109.9349         0.321071   
     82. A(H  17,C  16,H  18)          105.8465         0.285578   
     83. A(C  13,C  16,H  18)          109.1826         0.320599   
     84. A(C  13,C  16,H  17)          109.1840         0.320599   
     85. A(H  18,C  16,C  19)          109.6226         0.321209   
     86. A(H  17,C  16,C  19)          109.6226         0.321209   
     87. A(C  13,C  16,C  19)          113.1227         0.362579   
     88. A(C  16,C  19,H  35)          111.4299         0.322001   
     89. A(H  20,C  19,H  21)          107.3915         0.286171   
     90. A(C  16,C  19,H  21)          111.3400         0.321559   
     91. A(C  16,C  19,H  20)          111.3407         0.321560   
     92. A(H  21,C  19,H  35)          107.5644         0.286545   
     93. A(H  20,C  19,H  35)          107.5658         0.286546   
     94. A(H  24,C  22,C  25)          109.3218         0.321052   
     95. A(H  23,C  22,C  25)          109.3273         0.321053   
     96. A(C   6,C  22,C  25)          116.6461         0.366562   
     97. A(H  23,C  22,H  24)          104.6635         0.285490   
     98. A(C   6,C  22,H  24)          108.1031         0.324024   
     99. A(C   6,C  22,H  23)          108.1071         0.324025   
    100. A(H  27,C  25,C  28)          109.0863         0.320658   
    101. A(H  26,C  25,C  28)          109.0798         0.320659   
    102. A(C  22,C  25,C  28)          112.5998         0.362495   
    103. A(H  26,C  25,H  27)          106.2370         0.285621   
    104. A(C  22,C  25,H  27)          109.8173         0.321129   
    105. A(C  22,C  25,H  26)          109.8156         0.321130   
    106. A(H  30,C  28,C  31)          109.5675         0.321087   
    107. A(H  29,C  28,C  31)          109.5677         0.321087   
    108. A(C  25,C  28,C  31)          113.0798         0.362593   
    109. A(H  29,C  28,H  30)          105.9290         0.285408   
    110. A(C  25,C  28,H  30)          109.2230         0.320533   
    111. A(C  25,C  28,H  29)          109.2230         0.320534   
    112. A(H  32,C  31,H  33)          107.3683         0.286278   
    113. A(C  28,C  31,H  33)          111.2966         0.321601   
    114. A(C  28,C  31,H  32)          111.2961         0.321600   
    115. A(H  33,C  31,H  36)          107.6155         0.286597   
    116. A(H  32,C  31,H  36)          107.6140         0.286596   
    117. A(C  28,C  31,H  36)          111.4462         0.321976   
    118. L(C   1,C  34,C  37,C  42, 2) 179.8367         0.474984   
    119. L(C   1,C  34,C  37,C  42, 1) 179.9324         0.474984   
    120. A(C  38,C  37,C  42)          119.0328         0.422112   
    121. A(C  34,C  37,C  42)          120.4659         0.419210   
    122. A(C  34,C  37,C  38)          120.5013         0.419227   
    123. A(C  39,C  38,H  45)          120.5881         0.352296   
    124. A(C  37,C  38,H  45)          119.1922         0.347992   
    125. A(C  37,C  38,C  39)          120.2197         0.427666   
    126. A(C  40,C  39,H  47)          120.0267         0.350646   
    127. A(C  38,C  39,H  47)          119.6808         0.352083   
    128. A(C  38,C  39,C  40)          120.2925         0.431414   
    129. A(C  41,C  40,H  43)          120.0471         0.350554   
    130. A(C  39,C  40,H  43)          120.0093         0.350574   
    131. A(C  39,C  40,C  41)          119.9437         0.429515   
    132. A(C  42,C  41,H  44)          119.6845         0.352113   
    133. A(C  40,C  41,H  44)          120.0760         0.350640   
    134. A(C  40,C  41,C  42)          120.2395         0.431405   
    135. A(C  41,C  42,H  46)          120.5643         0.352281   
    136. A(C  37,C  42,H  46)          119.1639         0.347950   
    137. A(C  37,C  42,C  41)          120.2718         0.427667   
    138. D(C  10,C   3,C   2,C   7)   -179.9990         0.018016   
    139. D(C   4,C   3,C   2,C   7)      0.0047         0.018016   
    140. D(C   4,C   3,C   2,C   0)   -179.9935         0.018016   
    141. D(C  10,C   3,C   2,C   0)      0.0027         0.018016   
    142. D(C   5,C   4,C   3,C  10)   -179.9996         0.028053   
    143. D(H   8,C   4,C   3,C  10)      0.0026         0.028053   
    144. D(H   8,C   4,C   3,C   2)    179.9987         0.028053   
    145. D(C   5,C   4,C   3,C   2)     -0.0035         0.028053   
    146. D(C   1,C   5,C   4,H   8)      0.0032         0.021366   
    147. D(C   6,C   5,C   4,H   8)   -179.9969         0.021366   
    148. D(C   6,C   5,C   4,C   3)      0.0053         0.021366   
    149. D(C   1,C   5,C   4,C   3)   -179.9946         0.021366   
    150. D(C   7,C   6,C   5,C   4)     -0.0080         0.019387   
    151. D(C  22,C   6,C   5,C   1)      0.0028         0.019387   
    152. D(C   7,C   6,C   5,C   1)    179.9919         0.019387   
    153. D(C  22,C   6,C   5,C   4)   -179.9971         0.019387   
    154. D(H   9,C   7,C   6,C  22)     -0.0035         0.028633   
    155. D(C   2,C   7,C   6,C  22)    179.9983         0.028633   
    156. D(C   2,C   7,C   6,C   5)      0.0096         0.028633   
    157. D(H   9,C   7,C   6,C   5)   -179.9921         0.028633   
    158. D(C   6,C   7,C   2,C   3)     -0.0082         0.019808   
    159. D(C   6,C   7,C   2,C   0)    179.9901         0.019808   
    160. D(H   9,C   7,C   2,C   3)    179.9935         0.019808   
    161. D(H   9,C   7,C   2,C   0)     -0.0082         0.019808   
    162. D(C  13,C  10,C   3,C   4)     -0.0180         0.011813   
    163. D(C  13,C  10,C   3,C   2)    179.9860         0.011813   
    164. D(H  12,C  10,C   3,C   4)    124.1315         0.011813   
    165. D(H  11,C  10,C   3,C   4)   -124.1781         0.011813   
    166. D(H  12,C  10,C   3,C   2)    -55.8645         0.011813   
    167. D(H  11,C  10,C   3,C   2)     55.8259         0.011813   
    168. D(H  14,C  13,C  10,C   3)    -58.3252         0.011119   
    169. D(C  16,C  13,C  10,H  11)    -56.7917         0.011119   
    170. D(C  16,C  13,C  10,C   3)   -179.9998         0.011119   
    171. D(H  15,C  13,C  10,H  12)    -64.8679         0.011119   
    172. D(H  15,C  13,C  10,H  11)   -178.4604         0.011119   
    173. D(H  15,C  13,C  10,C   3)     58.3315         0.011119   
    174. D(H  14,C  13,C  10,H  12)    178.4753         0.011119   
    175. D(C  16,C  13,C  10,H  12)     56.8008         0.011119   
    176. D(H  14,C  13,C  10,H  11)     64.8828         0.011119   
    177. D(C  19,C  16,C  13,H  15)    -57.7870         0.010894   
    178. D(C  19,C  16,C  13,C  10)   -179.9822         0.010894   
    179. D(H  18,C  16,C  13,H  15)    179.8570         0.010894   
    180. D(H  18,C  16,C  13,H  14)    -64.5365         0.010894   
    181. D(H  18,C  16,C  13,C  10)     57.6618         0.010894   
    182. D(H  17,C  16,C  13,H  15)     64.5699         0.010894   
    183. D(C  19,C  16,C  13,H  14)     57.8195         0.010894   
    184. D(H  17,C  16,C  13,H  14)   -179.8236         0.010894   
    185. D(H  17,C  16,C  13,C  10)    -57.6253         0.010894   
    186. D(H  35,C  19,C  16,H  18)    -57.8820         0.011135   
    187. D(H  35,C  19,C  16,H  17)     57.8958         0.011135   
    188. D(H  35,C  19,C  16,C  13)   -179.9922         0.011135   
    189. D(H  21,C  19,C  16,H  18)     62.2105         0.011135   
    190. D(H  21,C  19,C  16,H  17)    177.9883         0.011135   
    191. D(H  21,C  19,C  16,C  13)    -59.8997         0.011135   
    192. D(H  20,C  19,C  16,H  18)   -177.9768         0.011135   
    193. D(H  20,C  19,C  16,H  17)    -62.1989         0.011135   
    194. D(H  20,C  19,C  16,C  13)     59.9131         0.011135   
    195. D(C  25,C  22,C   6,C   5)   -179.9848         0.011550   
    196. D(H  24,C  22,C   6,C   7)   -123.5808         0.011550   
    197. D(H  24,C  22,C   6,C   5)     56.4076         0.011550   
    198. D(H  23,C  22,C   6,C   5)    -56.3665         0.011550   
    199. D(C  25,C  22,C   6,C   7)      0.0268         0.011550   
    200. D(H  23,C  22,C   6,C   7)    123.6451         0.011550   
    201. D(C  28,C  25,C  22,H  24)    -57.0304         0.011093   
    202. D(C  28,C  25,C  22,C   6)    179.9905         0.011093   
    203. D(H  27,C  25,C  22,H  24)   -178.7990         0.011093   
    204. D(H  27,C  25,C  22,H  23)    -64.7671         0.011093   
    205. D(H  27,C  25,C  22,C   6)     58.2219         0.011093   
    206. D(H  26,C  25,C  22,H  24)     64.7285         0.011093   
    207. D(C  28,C  25,C  22,H  23)     57.0015         0.011093   
    208. D(H  26,C  25,C  22,H  23)    178.7604         0.011093   
    209. D(H  26,C  25,C  22,C   6)    -58.2505         0.011093   
    210. D(C  31,C  28,C  25,H  27)    -57.8415         0.010907   
    211. D(C  31,C  28,C  25,H  26)     57.8012         0.010907   
    212. D(C  31,C  28,C  25,C  22)    179.9764         0.010907   
    213. D(H  30,C  28,C  25,H  27)    179.8733         0.010907   
    214. D(H  30,C  28,C  25,H  26)    -64.4841         0.010907   
    215. D(H  30,C  28,C  25,C  22)     57.6911         0.010907   
    216. D(H  29,C  28,C  25,H  27)     64.4440         0.010907   
    217. D(H  29,C  28,C  25,H  26)   -179.9134         0.010907   
    218. D(H  29,C  28,C  25,C  22)    -57.7381         0.010907   
    219. D(H  36,C  31,C  28,H  30)    -57.9226         0.011126   
    220. D(H  36,C  31,C  28,H  29)     57.8921         0.011126   
    221. D(H  36,C  31,C  28,C  25)    179.9848         0.011126   
    222. D(H  33,C  31,C  28,H  30)     62.2165         0.011126   
    223. D(H  33,C  31,C  28,H  29)    178.0312         0.011126   
    224. D(H  33,C  31,C  28,C  25)    -59.8761         0.011126   
    225. D(H  32,C  31,C  28,H  30)   -178.0593         0.011126   
    226. D(H  32,C  31,C  28,H  29)    -62.2446         0.011126   
    227. D(H  32,C  31,C  28,C  25)     59.8481         0.011126   
    228. D(C  42,C  37,C   5,C   6)      0.1719         0.001500   
    229. D(C  42,C  37,C   5,C   4)   -179.8705         0.001500   
    230. D(C  38,C  37,C   5,C   6)   -179.8485         0.001500   
    231. D(C  38,C  37,C   5,C   4)      0.1091         0.001500   
    232. D(H  45,C  38,C  37,C  42)   -179.9913         0.022583   
    233. D(H  45,C  38,C  37,C  34)      0.0079         0.022583   
    234. D(C  39,C  38,C  37,C  42)      0.0044         0.022583   
    235. D(C  39,C  38,C  37,C  34)   -179.9965         0.022583   
    236. D(H  47,C  39,C  38,H  45)     -0.0012         0.026322   
    237. D(H  47,C  39,C  38,C  37)   -179.9968         0.026322   
    238. D(C  40,C  39,C  38,H  45)    179.9951         0.026322   
    239. D(C  40,C  39,C  38,C  37)     -0.0005         0.026322   
    240. D(H  43,C  40,C  39,H  47)     -0.0059         0.025009   
    241. D(H  43,C  40,C  39,C  38)    179.9978         0.025009   
    242. D(C  41,C  40,C  39,H  47)    179.9949         0.025009   
    243. D(C  41,C  40,C  39,C  38)     -0.0014         0.025009   
    244. D(H  44,C  41,C  40,H  43)     -0.0026         0.024990   
    245. D(H  44,C  41,C  40,C  39)    179.9965         0.024990   
    246. D(C  42,C  41,C  40,H  43)   -179.9999         0.024990   
    247. D(C  42,C  41,C  40,C  39)     -0.0007         0.024990   
    248. D(H  46,C  42,C  41,H  44)     -0.0012         0.026335   
    249. D(H  46,C  42,C  41,C  40)    179.9961         0.026335   
    250. D(C  37,C  42,C  41,H  44)   -179.9926         0.026335   
    251. D(C  37,C  42,C  41,C  40)      0.0047         0.026335   
    252. D(H  46,C  42,C  37,C  38)   -179.9980         0.022572   
    253. D(H  46,C  42,C  37,C  34)      0.0029         0.022572   
    254. D(C  41,C  42,C  37,C  38)     -0.0065         0.022572   
    255. D(C  41,C  42,C  37,C  34)    179.9944         0.022572   
    -----------------------------------------------------------------

Number of atoms                         .... 48
Number of degrees of freedom            .... 255

         *************************************************************
         *                GEOMETRY OPTIMIZATION CYCLE   1            *
         *************************************************************
---------------------------------
CARTESIAN COORDINATES (ANGSTROEM)
---------------------------------
  C     -2.815047    0.044667   -0.012458
  C      2.806862   -0.008947   -0.008584
  C     -1.422247    0.005174   -0.011616
  C     -0.708894   -1.249265   -0.014028
  C      0.675479   -1.198923   -0.012845
  C      1.391746    0.027780   -0.009474
  C      0.694256    1.279949   -0.007020
  C     -0.687609    1.232598   -0.008258
  H      1.257763   -2.119956   -0.014550
  H     -1.273669    2.150931   -0.006648
  C     -1.486165   -2.546334   -0.017599
  H     -2.166793   -2.531677   -0.888308
  H     -2.167517   -2.535988    0.852613
  C     -0.671077   -3.841512   -0.020366
  H     -0.007470   -3.867713   -0.905274
  H     -0.008441   -3.872109    0.865127
  C     -1.557915   -5.092292   -0.023885
  H     -2.224775   -5.067424    0.857968
  H     -2.223411   -5.063394   -0.906640
  C     -0.757529   -6.396373   -0.026244
  H     -0.108656   -6.471160    0.863891
  H     -0.107131   -6.466991   -0.915612
  C      1.479893    2.575731   -0.003505
  H      2.155518    2.565762    0.872279
  H      2.156092    2.570080   -0.878895
  C      0.665928    3.872021   -0.000661
  H      0.003382    3.900552   -0.885480
  H      0.002252    3.896000    0.883449
  C      1.551293    5.123627    0.003021
  H      2.216435    5.096723    0.886755
  H      2.218017    5.100803   -0.879638
  C      0.748444    6.426327    0.005308
  H      0.097582    6.494527    0.894121
  H      0.099548    6.498868   -0.884591
  C      4.031675   -0.053763   -0.009994
  H     -1.421069   -7.275944   -0.028889
  H      1.410119    7.307322    0.008206
  C      5.454574   -0.104157   -0.009614
  C      6.128342   -1.346466   -0.015274
  C      7.521137   -1.388941   -0.014795
  C      8.263853   -0.202169   -0.008716
  C      7.606163    1.033861   -0.003117
  C      6.213833    1.087895   -0.003585
  H      9.355918   -0.240878   -0.008329
  H      8.183514    1.961157    0.001688
  H      5.544563   -2.268661   -0.020082
  H      5.695622    2.048620    0.000827
  H      8.032889   -2.354074   -0.019252

----------------------------
CARTESIAN COORDINATES (A.U.)
----------------------------
  NO LB      ZA    FRAG     MASS         X           Y           Z
   0 C     6.0000    0    12.011   -5.319667    0.084408   -0.023543
   1 C     6.0000    0    12.011    5.304201   -0.016907   -0.016221
   2 C     6.0000    0    12.011   -2.687657    0.009778   -0.021951
   3 C     6.0000    0    12.011   -1.339616   -2.360769   -0.026509
   4 C     6.0000    0    12.011    1.276470   -2.265637   -0.024274
   5 C     6.0000    0    12.011    2.630018    0.052497   -0.017903
   6 C     6.0000    0    12.011    1.311953    2.418754   -0.013266
   7 C     6.0000    0    12.011   -1.299393    2.329273   -0.015606
   8 H     1.0000    0     1.008    2.376828   -4.006136   -0.027496
   9 H     1.0000    0     1.008   -2.406886    4.064671   -0.012563
  10 C     6.0000    0    12.011   -2.808445   -4.811874   -0.033258
  11 H     1.0000    0     1.008   -4.094645   -4.784175   -1.678659
  12 H     1.0000    0     1.008   -4.096014   -4.792322    1.611206
  13 C     6.0000    0    12.011   -1.268153   -7.259406   -0.038487
  14 H     1.0000    0     1.008   -0.014117   -7.308919   -1.710721
  15 H     1.0000    0     1.008   -0.015952   -7.317226    1.634854
  16 C     6.0000    0    12.011   -2.944033   -9.623036   -0.045136
  17 H     1.0000    0     1.008   -4.204216   -9.576043    1.621324
  18 H     1.0000    0     1.008   -4.201638   -9.568429   -1.713301
  19 C     6.0000    0    12.011   -1.431522  -12.087393   -0.049595
  20 H     1.0000    0     1.008   -0.205330  -12.228721    1.632517
  21 H     1.0000    0     1.008   -0.202449  -12.220841   -1.730256
  22 C     6.0000    0    12.011    2.796592    4.867427   -0.006624
  23 H     1.0000    0     1.008    4.073339    4.848587    1.648368
  24 H     1.0000    0     1.008    4.074423    4.856748   -1.660870
  25 C     6.0000    0    12.011    1.258422    7.317060   -0.001250
  26 H     1.0000    0     1.008    0.006392    7.370975   -1.673315
  27 H     1.0000    0     1.008    0.004257    7.362372    1.669476
  28 C     6.0000    0    12.011    2.931520    9.682252    0.005709
  29 H     1.0000    0     1.008    4.188455    9.631411    1.675725
  30 H     1.0000    0     1.008    4.191445    9.639120   -1.662274
  31 C     6.0000    0    12.011    1.414353   12.143998    0.010031
  32 H     1.0000    0     1.008    0.184403   12.272877    1.689644
  33 H     1.0000    0     1.008    0.188118   12.281081   -1.671634
  34 C     6.0000    0    12.011    7.618761   -0.101597   -0.018886
  35 H     1.0000    0     1.008   -2.685432  -13.749542   -0.054593
  36 H     1.0000    0     1.008    2.664738   13.808838    0.015507
  37 C     6.0000    0    12.011   10.307650   -0.196829   -0.018167
  38 C     6.0000    0    12.011   11.580887   -2.544452   -0.028864
  39 C     6.0000    0    12.011   14.212889   -2.624719   -0.027958
  40 C     6.0000    0    12.011   15.616419   -0.382044   -0.016471
  41 C     6.0000    0    12.011   14.373565    1.953714   -0.005891
  42 C     6.0000    0    12.011   11.742443    2.055824   -0.006775
  43 H     1.0000    0     1.008   17.680124   -0.455194   -0.015740
  44 H     1.0000    0     1.008   15.464601    3.706050    0.003190
  45 H     1.0000    0     1.008   10.477706   -4.287147   -0.037949
  46 H     1.0000    0     1.008   10.763167    3.871331    0.001563
  47 H     1.0000    0     1.008   15.179960   -4.448554   -0.036380

--------------------------------
INTERNAL COORDINATES (ANGSTROEM)
--------------------------------
 C      0   0   0     0.000000000000     0.00000000     0.00000000
 C      1   0   0     5.622165550673     0.00000000     0.00000000
 C      1   2   0     1.393359582883     1.07780022     0.00000000
 C      3   1   2     1.443085516558   121.24932438   179.87488884
 C      4   3   1     1.385288420616   117.54251725   180.00649000
 C      2   1   3     1.415593297710     0.94029566   179.95334344
 C      6   2   5     1.433326993247   120.60545290   180.00007559
 C      7   6   2     1.382676232825   117.15622186   179.99187823
 H      5   4   3     1.089660175762   120.21865746   179.99873652
 H      8   7   6     1.089405485735   120.58248689   180.00786457
 C      4   3   1     1.512134479456   119.44262374     0.00000000
 H     11   4   3     1.105261328673   107.87995400    55.82591220
 H     11   4   3     1.105268270420   107.87758080   304.13551850
 C     11   4   3     1.530314420246   116.88469384   179.98601753
 H     14  11   4     1.106400833502   109.93494911   301.67475266
 H     14  11   4     1.106400479530   109.93506034    58.33153599
 C     14  11   4     1.533278223572   112.47921921   180.00021805
 H     17  14  11     1.105886319629   109.18401937   302.37472471
 H     17  14  11     1.105882635142   109.18261156    57.66182630
 C     17  14  11     1.530114699145   113.12269123   180.01778253
 H     20  17  14     1.104069768230   111.34070745    59.91305215
 H     20  17  14     1.104073664142   111.33995480   300.10033788
 C      7   6   2     1.515350774669   119.65264410     0.00000000
 H     23   7   6     1.106149907175   108.10713244   303.63349836
 H     23   7   6     1.106157113751   108.10314136    56.40755459
 C     23   7   6     1.530658055616   116.64611926   180.01520192
 H     26  23   7     1.105751366629   109.81556574   301.74945405
 H     26  23   7     1.105753675436   109.81731765    58.22193216
 C     26  23   7     1.533101790432   112.59975513   179.99049377
 H     29  26  23     1.106400995594   109.22299322   302.26188568
 H     29  26  23     1.106403107204   109.22302450    57.69114777
 C     29  26  23     1.530228857128   113.07977220   179.97640101
 H     32  29  26     1.103748810556   111.29613973    59.84806359
 H     32  29  26     1.103742768869   111.29660109   300.12389678
 C      2   1   3     1.225632897805   178.44726664     3.63525071
 H     20  17  14     1.101788921528   111.42985612   180.00783375
 H     32  29  26     1.101805619491   111.44621526   179.98483886
 C     35   2   6     1.423791192426   179.89458797   220.91989992
 C     38  35   2     1.413267916606   120.50129870   129.85007422
 C     39  38  35     1.393443098594   120.21968259   180.00351763
 C     40  39  38     1.400032964882   120.29251511     0.00000000
 C     41  40  39     1.400128234630   119.94366231     0.00000000
 C     42  41  40     1.393377929644   120.23947758     0.00000000
 H     41  40  39     1.092751124026   120.00926759   179.99778563
 H     42  41  40     1.092353307718   120.07602847   179.99654516
 H     39  38  35     1.091449962037   119.19222800     0.00000000
 H     43  42  41     1.091583466648   120.56427872   179.99605839
 H     40  39  38     1.092423846344   119.68075045   180.00321772

---------------------------
INTERNAL COORDINATES (A.U.)
---------------------------
 C      0   0   0     0.000000000000     0.00000000     0.00000000
 C      1   0   0    10.624353170339     0.00000000     0.00000000
 C      1   2   0     2.633068017724     1.07780022     0.00000000
 C      3   1   2     2.727036414123   121.24932438   179.87488884
 C      4   3   1     2.617815731457   117.54251725   180.00649000
 C      2   1   3     2.675083649686     0.94029566   179.95334344
 C      6   2   5     2.708595477594   120.60545290   180.00007559
 C      7   6   2     2.612879411921   117.15622186   179.99187823
 H      5   4   3     2.059159311231   120.21865746   179.99873652
 H      8   7   6     2.058678016830   120.58248689   180.00786457
 C      4   3   1     2.857520043831   119.44262374     0.00000000
 H     11   4   3     2.088641217605   107.87995400    55.82591220
 H     11   4   3     2.088654335607   107.87758080   304.13551850
 C     11   4   3     2.891875153056   116.88469384   179.98601753
 H     14  11   4     2.090794569660   109.93494911   301.67475266
 H     14  11   4     2.090793900750   109.93506034    58.33153599
 C     14  11   4     2.897475929656   112.47921921   180.00021805
 H     17  14  11     2.089822279349   109.18401937   302.37472471
 H     17  14  11     2.089815316677   109.18261156    57.66182630
 C     17  14  11     2.891497734872   113.12269123   180.01778253
 H     20  17  14     2.086389494696   111.34070745    59.91305215
 H     20  17  14     2.086396856904   111.33995480   300.10033788
 C      7   6   2     2.863597960950   119.65264410     0.00000000
 H     23   7   6     2.090320387624   108.10713244   303.63349836
 H     23   7   6     2.090334006077   108.10314136    56.40755459
 C     23   7   6     2.892524529794   116.64611926   180.01520192
 H     26  23   7     2.089567255138   109.81556574   301.74945405
 H     26  23   7     2.089571618151   109.81731765    58.22193216
 C     26  23   7     2.897142519340   112.59975513   179.99049377
 H     29  26  23     2.090794875970   109.22299322   302.26188568
 H     29  26  23     2.090798866336   109.22302450    57.69114777
 C     29  26  23     2.891713462196   113.07977220   179.97640101
 H     32  29  26     2.085782972592   111.29613973    59.84806359
 H     32  29  26     2.085771555459   111.29660109   300.12389678
 C      2   1   3     2.316110517575   178.44726664     3.63525071
 H     20  17  14     2.082079319077   111.42985612   180.00783375
 H     32  29  26     2.082110873654   111.44621526   179.98483886
 C     35   2   6     2.690575425575   179.89458797   220.91989992
 C     38  35   2     2.670689316243   120.50129870   129.85007422
 C     39  38  35     2.633225839545   120.21968259   180.00351763
 C     40  39  38     2.645678882089   120.29251511     0.00000000
 C     41  40  39     2.645858915821   119.94366231     0.00000000
 C     42  41  40     2.633102688078   120.23947758     0.00000000
 H     41  40  39     2.065000356944   120.00926759   179.99778563
 H     42  41  40     2.064248593070   120.07602847   179.99654516
 H     39  38  35     2.062541517129   119.19222800     0.00000000
 H     43  42  41     2.062793804280   120.56427872   179.99605839
 H     40  39  38     2.064381891756   119.68075045   180.00321772

---------------------
BASIS SET INFORMATION
---------------------
There are 2 groups of distinct atoms

 Group   1 Type C   : 17s4p1d contracted to 3s2p1d pattern {881/31/1}
 Group   2 Type H   : 4s1p contracted to 2s1p pattern {31/1}

Atom   0C    basis set group =>   1
Atom   1C    basis set group =>   1
Atom   2C    basis set group =>   1
Atom   3C    basis set group =>   1
Atom   4C    basis set group =>   1
Atom   5C    basis set group =>   1
Atom   6C    basis set group =>   1
Atom   7C    basis set group =>   1
Atom   8H    basis set group =>   2
Atom   9H    basis set group =>   2
Atom  10C    basis set group =>   1
Atom  11H    basis set group =>   2
Atom  12H    basis set group =>   2
Atom  13C    basis set group =>   1
Atom  14H    basis set group =>   2
Atom  15H    basis set group =>   2
Atom  16C    basis set group =>   1
Atom  17H    basis set group =>   2
Atom  18H    basis set group =>   2
Atom  19C    basis set group =>   1
Atom  20H    basis set group =>   2
Atom  21H    basis set group =>   2
Atom  22C    basis set group =>   1
Atom  23H    basis set group =>   2
Atom  24H    basis set group =>   2
Atom  25C    basis set group =>   1
Atom  26H    basis set group =>   2
Atom  27H    basis set group =>   2
Atom  28C    basis set group =>   1
Atom  29H    basis set group =>   2
Atom  30H    basis set group =>   2
Atom  31C    basis set group =>   1
Atom  32H    basis set group =>   2
Atom  33H    basis set group =>   2
Atom  34C    basis set group =>   1
Atom  35H    basis set group =>   2
Atom  36H    basis set group =>   2
Atom  37C    basis set group =>   1
Atom  38C    basis set group =>   1
Atom  39C    basis set group =>   1
Atom  40C    basis set group =>   1
Atom  41C    basis set group =>   1
Atom  42C    basis set group =>   1
Atom  43H    basis set group =>   2
Atom  44H    basis set group =>   2
Atom  45H    basis set group =>   2
Atom  46H    basis set group =>   2
Atom  47H    basis set group =>   2


           ************************************************************
           *        Program running with 16 parallel MPI-processes    *
           *              working on a common directory               *
           ************************************************************
------------------------------------------------------------------------------
                           ORCA GTO INTEGRAL CALCULATION
------------------------------------------------------------------------------

                         BASIS SET STATISTICS AND STARTUP INFO

 # of primitive gaussian shells          ...  631
 # of primitive gaussian functions       ...  957
 # of contracted shells                  ...  213
 # of contracted basis functions         ...  447
 Highest angular momentum                ...    2
 Maximum contraction depth               ...    8
 Integral package used                   ... LIBINT
 Integral threshhold            Thresh   ...  2.500e-11
 Primitive cut-off              TCut     ...  2.500e-12


------------------------------ INTEGRAL EVALUATION ----------------------------


 * One electron integrals 
 Pre-screening matrix                    ... done
 Shell pair data                         ... done (   0.009 sec)



           ************************************************************
           *        Program running with 16 parallel MPI-processes    *
           *              working on a common directory               *
           ************************************************************
-------------------------------------------------------------------------------
                                 ORCA SCF
-------------------------------------------------------------------------------

------------
SCF SETTINGS
------------
Hamiltonian:
 Density Functional     Method          .... DFT(GTOs)
 Exchange Functional    Exchange        .... B88
   X-Alpha parameter    XAlpha          ....  0.666667
   Becke's b parameter  XBeta           ....  0.004200
 Correlation Functional Correlation     .... LYP
 LDA part of GGA corr.  LDAOpt          .... VWN-5
 Gradients option       PostSCFGGA      .... off
 Hybrid DFT is turned on
   Fraction HF Exchange ScalHFX         ....  0.200000
   Scaling of DF-GGA-X  ScalDFX         ....  0.720000
   Scaling of DF-GGA-C  ScalDFC         ....  0.810000
   Scaling of DF-LDA-C  ScalLDAC        ....  1.000000
   Perturbative correction              ....  0.000000
   Density functional embedding theory  .... OFF
   NL short-range parameter             ....  4.800000


General Settings:
 Integral files         IntName         .... opt
 Hartree-Fock type      HFTyp           .... UHF
 Total Charge           Charge          ....    0
 Multiplicity           Mult            ....    4
 Number of Electrons    NEL             ....  163
 Basis Dimension        Dim             ....  447
 Nuclear Repulsion      ENuc            ....   1631.1250275072 Eh

Convergence Acceleration:
 DIIS                   CNVDIIS         .... on
   Start iteration      DIISMaxIt       ....    12
   Startup error        DIISStart       ....  0.200000
   # of expansion vecs  DIISMaxEq       ....     5
   Bias factor          DIISBfac        ....   1.050
   Max. coefficient     DIISMaxC        ....  10.000
 Newton-Raphson         CNVNR           .... off
 SOSCF                  CNVSOSCF        .... off
 Level Shifting         CNVShift        .... on
   Level shift para.    LevelShift      ....    0.2500
   Turn off err/grad.   ShiftErr        ....    0.0010
 Zerner damping         CNVZerner       .... off
 Static damping         CNVDamp         .... on
   Fraction old density DampFac         ....    0.7000
   Max. Damping (<1)    DampMax         ....    0.9800
   Min. Damping (>=0)   DampMin         ....    0.0000
   Turn off err/grad.   DampErr         ....    0.1000
 Fernandez-Rico         CNVRico         .... off

SCF Procedure:
 Maximum # iterations   MaxIter         ....   125
 SCF integral mode      SCFMode         .... Direct
   Integral package                     .... LIBINT
 Reset frequency        DirectResetFreq ....    20
 Integral Threshold     Thresh          ....  2.500e-11 Eh
 Primitive CutOff       TCut            ....  2.500e-12 Eh

Convergence Tolerance:
 Convergence Check Mode ConvCheckMode   .... Total+1el-Energy
 Convergence forced     ConvForced      .... 0
 Energy Change          TolE            ....  1.000e-08 Eh
 1-El. energy change                    ....  1.000e-05 Eh
 DIIS Error             TolErr          ....  5.000e-07


Diagonalization of the overlap matrix:
Smallest eigenvalue                        ... 5.269e-05
Time for diagonalization                   ...    0.195 sec
Threshold for overlap eigenvalues          ... 1.000e-08
Number of eigenvalues below threshold      ... 0
Time for construction of square roots      ...    0.081 sec
Total time needed                          ...    0.278 sec

-------------------
DFT GRID GENERATION
-------------------

General Integration Accuracy     IntAcc      ...  4.340
Radial Grid Type                 RadialGrid  ... Gauss-Chebyshev
Angular Grid (max. acc.)         AngularGrid ... Lebedev-110
Angular grid pruning method      GridPruning ... 3 (G Style)
Weight generation scheme         WeightScheme... Becke
Basis function cutoff            BFCut       ...    1.0000e-11
Integration weight cutoff        WCut        ...    1.0000e-14
Grids for H and He will be reduced by one unit

# of grid points (after initial pruning)     ...  57938 (   0.0 sec)
# of grid points (after weights+screening)   ...  51717 (   0.2 sec)
nearest neighbour list constructed           ...    0.0 sec
Grid point re-assignment to atoms done       ...    0.0 sec
Grid point division into batches done        ...    0.1 sec
Reduced shell lists constructed in    0.2 sec

Total number of grid points                  ...    51717
Total number of batches                      ...      833
Average number of points per batch           ...       62
Average number of grid points per atom       ...     1077
Average number of shells per batch           ...    96.81 (45.45%)
Average number of basis functions per batch  ...   192.33 (43.03%)
Average number of large shells per batch     ...    58.52 (60.44%)
Average number of large basis fcns per batch ...   121.63 (63.24%)
Maximum spatial batch extension              ...  15.59, 16.96, 18.49 au
Average spatial batch extension              ...   0.19,  0.21,  0.28 au

Time for grid setup =    0.416 sec

------------------------------
INITIAL GUESS: MODEL POTENTIAL
------------------------------
Loading Hartree-Fock densities                     ... done
Calculating cut-offs                               ... done
Setting up the integral package                    ... done
Initializing the effective Hamiltonian             ... done
Starting the Coulomb interaction                   ... done (   0.2 sec)
Reading the grid                                   ... done
Mapping shells                                     ... done
Starting the XC term evaluation                    ... done (   0.1 sec)
  promolecular density results
     # of electrons  =    163.028714382
     EX              =   -125.518512251
     EC              =     -5.360245692
     EX+EC           =   -130.878757943
Transforming the Hamiltonian                       ... done (   0.0 sec)
Diagonalizing the Hamiltonian                      ... done (   0.0 sec)
Back transforming the eigenvectors                 ... done (   0.0 sec)
Now organizing SCF variables                       ... done
                      ------------------
                      INITIAL GUESS DONE (   1.1 sec)
                      ------------------
--------------
SCF ITERATIONS
--------------
ITER       Energy         Delta-E        Max-DP      RMS-DP      [F,P]     Damp
               ***  Starting incremental Fock matrix formation  ***
  0   -890.1418493537   0.000000000000 0.05827127  0.00078623  0.1747198 0.7000
  1   -890.3742308727  -0.232381518968 0.05602090  0.00065179  0.0923267 0.7000
                               ***Turning on DIIS***
  2   -890.4788587224  -0.104627849769 0.13760591  0.00135440  0.0354367 0.0000
  3   -890.6243535302  -0.145494807756 0.02768090  0.00040690  0.0506806 0.0000
  4   -890.6652253297  -0.040871799541 0.02131690  0.00021741  0.0122127 0.0000
  5   -890.6684177959  -0.003192466202 0.00673892  0.00007123  0.0038671 0.0000
  6   -890.6690079238  -0.000590127829 0.00207414  0.00003085  0.0017145 0.0000
  7   -890.6692548612  -0.000246937491 0.00200448  0.00002283  0.0014193 0.0000
  8   -890.6694151992  -0.000160337949 0.00181841  0.00002124  0.0011882 0.0000
  9   -890.6695443806  -0.000129181383 0.00425967  0.00005275  0.0009885 0.0000
 10   -890.6697676314  -0.000223250776 0.00040809  0.00000451  0.0012135 0.0000
 11   -890.6697810174  -0.000013386027 0.00243057  0.00002882  0.0006013 0.0000
 12   -890.6698413498  -0.000060332413 0.00201857  0.00002328  0.0006036 0.0000
 13   -890.6698699274  -0.000028577597 0.00762098  0.00008251  0.0004172 0.0000
 14   -890.6700760717  -0.000206144310 0.00014340  0.00000173  0.0013079 0.0000
 15   -890.6700684887   0.000007582989 0.00017841  0.00000202  0.0013809 0.0000
 16   -890.6700671886   0.000001300133 0.00025167  0.00000275  0.0013398 0.0000
 17   -890.6700590242   0.000008164371 0.00036493  0.00000370  0.0013976 0.0000
 18   -890.6700700859  -0.000011061719 0.00162114  0.00001913  0.0011787 0.0000
 19   -890.6701467895  -0.000076703527 0.00143536  0.00001420  0.0011366 0.0000
               *** Restarting incremental Fock matrix formation ***
                                   *** Resetting DIIS ***
 20   -890.6702178673  -0.000071077867 0.00162456  0.00001611  0.0012222 0.0000
 21   -890.6703065822  -0.000088714838 0.00149155  0.00001509  0.0013152 0.0000
 22   -890.6703967486  -0.000090166405 0.00114363  0.00001276  0.0013910 0.0000
 23   -890.6704669379  -0.000070189374 0.00119471  0.00001293  0.0014097 0.0000
 24   -890.6705457219  -0.000078783931 0.00112025  0.00001247  0.0014761 0.0000
 25   -890.6706217355  -0.000076013669 0.00124136  0.00001359  0.0017167 0.0000
 26   -890.6707132897  -0.000091554163 0.00138693  0.00001520  0.0021486 0.0000
 27   -890.6708260650  -0.000112775336 0.00121605  0.00001422  0.0023694 0.0000
 28   -890.6709282288  -0.000102163800 0.00139827  0.00001816  0.0025868 0.0000
 29   -890.6710758476  -0.000147618741 0.00189489  0.00002520  0.0023268 0.0000
 30   -890.6712931901  -0.000217342567 0.00262918  0.00003277  0.0021130 0.0000
 31   -890.6716032569  -0.000310066757 0.00273850  0.00003343  0.0023784 0.0000
 32   -890.6719553983  -0.000352141379 0.00222110  0.00002735  0.0025600 0.0000
 33   -890.6722523214  -0.000296923128 0.00210543  0.00002492  0.0025340 0.0000
 34   -890.6724895832  -0.000237261775 0.00200437  0.00002380  0.0037616 0.0000
 35   -890.6727075812  -0.000217998053 0.00226486  0.00002466  0.0049825 0.0000
 36   -890.6729417181  -0.000234136883 0.00274625  0.00002933  0.0061180 0.0000
 37   -890.6732585732  -0.000316855127 0.00265848  0.00002848  0.0070029 0.0000
 38   -890.6735320541  -0.000273480885 0.00205419  0.00002736  0.0080421 0.0000
 39   -890.6737875501  -0.000255495950 0.00299576  0.00003582  0.0085149 0.0000
               *** Restarting incremental Fock matrix formation ***
                                   *** Resetting DIIS ***
 40   -890.6742620727  -0.000474522613 0.01100202  0.00009895  0.0071070 0.0000
 41   -890.6751156792  -0.000853606505 0.00649718  0.00004838  0.0044931 0.0000
 42   -890.6759335728  -0.000817893564 0.00616176  0.00004882  0.0038255 0.0000
 43   -890.6767310680  -0.000797495262 0.00513862  0.00004291  0.0036093 0.0000
 44   -890.6773873805  -0.000656312442 0.00418841  0.00003617  0.0054348 0.0000
 45   -890.6776421602  -0.000254779717 0.00538330  0.00004405  0.0090080 0.0000
 46   -890.6782223544  -0.000580194170 0.00457886  0.00003694  0.0104015 0.0000
 47   -890.6785347356  -0.000312381274 0.00443430  0.00003501  0.0125644 0.0000
 48   -890.6787667190  -0.000231983326 0.00398446  0.00003269  0.0148152 0.0000
 49   -890.6789330937  -0.000166374766 0.00295380  0.00002624  0.0167291 0.0000
 50   -890.6787928241   0.000140269587 0.00277769  0.00003131  0.0187346 0.0000
 51   -890.6793209698  -0.000528145649 0.00649985  0.00004994  0.0184680 0.0000
 52   -890.6805605382  -0.001239568416 0.01128132  0.00008641  0.0137905 0.0000
 53   -890.6821851819  -0.001624643655 0.01068265  0.00008246  0.0066615 0.0000
 54   -890.6835336857  -0.001348503832 0.00798146  0.00006045  0.0043194 0.0000
 55   -890.6846609517  -0.001127266007 0.00794741  0.00006582  0.0050603 0.0000
 56   -890.6858498138  -0.001188862060 0.00705642  0.00006129  0.0051127 0.0000
 57   -890.6869308353  -0.001081021585 0.00429454  0.00004538  0.0056565 0.0000
 58   -890.6867818367   0.000148998612 0.00548497  0.00004903  0.0107895 0.0000
 59   -890.6876116388  -0.000829802032 0.00383333  0.00003067  0.0109594 0.0000
               *** Restarting incremental Fock matrix formation ***
                                   *** Resetting DIIS ***
 60   -890.6878181029  -0.000206464153 0.02099410  0.00012589  0.0135049 0.0000
 61   -890.6889556789  -0.001137576025 0.00751475  0.00005433  0.0080445 0.0000
 62   -890.6901604961  -0.001204817124 0.00661335  0.00005158  0.0042979 0.0000
 63   -890.6910819145  -0.000921418412 0.00664111  0.00005831  0.0035092 0.0000
 64   -890.6920422732  -0.000960358747 0.00869251  0.00006799  0.0042241 0.0000
 65   -890.6930781375  -0.001035864320 0.00861768  0.00006871  0.0032212 0.0000
 66   -890.6940515260  -0.000973388446 0.01092990  0.00008060  0.0033089 0.0000
 67   -890.6950257140  -0.000974187980 0.00388260  0.00004474  0.0034527 0.0000
 68   -890.6954617639  -0.000436049972 0.01567028  0.00010827  0.0036276 0.0000
 69   -890.6963904818  -0.000928717850 0.00457195  0.00005554  0.0039114 0.0000
 70   -890.6970518980  -0.000661416220 0.00519461  0.00005788  0.0030233 0.0000
 71   -890.6976092118  -0.000557313753 0.00370370  0.00004504  0.0037018 0.0000
 72   -890.6980832007  -0.000473988930 0.00290135  0.00003533  0.0023980 0.0000
 73   -890.6984117730  -0.000328572353 0.00347711  0.00004178  0.0017772 0.0000
 74   -890.6986974841  -0.000285711018 0.00315489  0.00003566  0.0017735 0.0000
 75   -890.6989218985  -0.000224414467 0.00306995  0.00003312  0.0018301 0.0000
 76   -890.6991116590  -0.000189760490 0.00238851  0.00002643  0.0023267 0.0000
 77   -890.6992748782  -0.000163219198 0.00152828  0.00001961  0.0011755 0.0000
 78   -890.6993654893  -0.000090611095 0.00841639  0.00009993  0.0008889 0.0000
 79   -890.6996840360  -0.000318546723 0.00273731  0.00002775  0.0006862 0.0000
               *** Restarting incremental Fock matrix formation ***
                                   *** Resetting DIIS ***
 80   -890.6997269168  -0.000042880717 0.00146698  0.00001382  0.0004231 0.0000
 81   -890.6997387302  -0.000011813406 0.00036750  0.00000456  0.0004988 0.0000
 82   -890.6997433588  -0.000004628596 0.00098291  0.00000843  0.0002555 0.0000
 83   -890.6997482801  -0.000004921314 0.00095473  0.00000814  0.0001608 0.0000
 84   -890.6997508835  -0.000002603459 0.00043902  0.00000370  0.0000634 0.0000
 85   -890.6997512949  -0.000000411409 0.00011677  0.00000099  0.0000402 0.0000
 86   -890.6997513338  -0.000000038853 0.00002194  0.00000020  0.0000212 0.0000
 87   -890.6997513350  -0.000000001164 0.00000902  0.00000009  0.0000213 0.0000
 88   -890.6997513356  -0.000000000687 0.00000493  0.00000005  0.0000048 0.0000
 89   -890.6997513372  -0.000000001555 0.00000216  0.00000002  0.0000015 0.0000
 90   -890.6997513357   0.000000001454 0.00000076  0.00000001  0.0000012 0.0000
                 **** Energy Check signals convergence ****

               *****************************************************
               *                     SUCCESS                       *
               *           SCF CONVERGED AFTER  91 CYCLES          *
               *****************************************************

Setting up the final grid:

General Integration Accuracy     IntAcc      ...  4.670
Radial Grid Type                 RadialGrid  ... Gauss-Chebyshev
Angular Grid (max. acc.)         AngularGrid ... Lebedev-302
Angular grid pruning method      GridPruning ... 3 (G Style)
Weight generation scheme         WeightScheme... Becke
Basis function cutoff            BFCut       ...    1.0000e-11
Integration weight cutoff        WCut        ...    1.0000e-14
Grids for H and He will be reduced by one unit

# of grid points (after initial pruning)     ... 227726 (   0.0 sec)
# of grid points (after weights+screening)   ... 199606 (   0.5 sec)
nearest neighbour list constructed           ...    0.0 sec
Grid point re-assignment to atoms done       ...    0.1 sec
Grid point division into batches done        ...    0.7 sec
Reduced shell lists constructed in    1.1 sec

Total number of grid points                  ...   199606
Total number of batches                      ...     3141
Average number of points per batch           ...       63
Average number of grid points per atom       ...     4158
Average number of shells per batch           ...    89.11 (41.83%)
Average number of basis functions per batch  ...   176.97 (39.59%)
Average number of large shells per batch     ...    52.88 (59.34%)
Average number of large basis fcns per batch ...   109.56 (61.90%)
Maximum spatial batch extension              ...  14.24, 14.72, 16.06 au
Average spatial batch extension              ...   0.14,  0.14,  0.16 au

Final grid set up in    1.7 sec
Final integration                            ... done (   0.6 sec)
Change in XC energy                          ...     0.002807985
Integrated number of electrons               ...   163.000328721
Previous integrated no of electrons          ...   163.022767866

----------------
TOTAL SCF ENERGY
----------------

Total Energy       :         -890.69694335 Eh          -24237.09602 eV

Components:
Nuclear Repulsion  :         1631.12502751 Eh           44385.16850 eV
Electronic Energy  :        -2521.82197086 Eh          -68622.26452 eV
One Electron Energy:        -4440.43569329 Eh         -120830.39811 eV
Two Electron Energy:         1918.61372243 Eh           52208.13360 eV

Virial components:
Potential Energy   :        -1775.28864547 Eh          -48308.05998 eV
Kinetic Energy     :          884.59170212 Eh           24070.96396 eV
Virial Ratio       :            2.00690176


DFT components:
N(Alpha)           :       83.000184027489 electrons
N(Beta)            :       80.000144693451 electrons
N(Total)           :      163.000328720939 electrons
E(X)               :     -101.568683725193 Eh       
E(C)               :       -6.301295705453 Eh       
E(XC)              :     -107.869979430646 Eh       
DFET-embed. en.    :        0.000000000000 Eh       

---------------
SCF CONVERGENCE
---------------

  Last Energy change         ...    8.5674e-10  Tolerance :   1.0000e-08
  Last MAX-Density change    ...    1.7983e-06  Tolerance :   1.0000e-07
  Last RMS-Density change    ...    1.1096e-08  Tolerance :   5.0000e-09
  Last DIIS Error            ...    3.1740e-07  Tolerance :   5.0000e-07

             **** THE GBW FILE WAS UPDATED (opt.gbw) ****
             **** DENSITY FILE WAS UPDATED (opt.scfp) ****
             **** ENERGY FILE WAS UPDATED (opt.en.tmp) ****
----------------------
UHF SPIN CONTAMINATION
----------------------

Warning: in a DFT calculation there is little theoretical justification to 
         calculate <S**2> as in Hartree-Fock theory. We will do it anyways
         but you should keep in mind that the values have only limited relevance

Expectation value of <S**2>     :     3.806554
Ideal value S*(S+1) for S=1.5   :     3.750000
Deviation                       :     0.056554

             **** THE GBW FILE WAS UPDATED (opt.gbw) ****
             **** DENSITY FILE WAS UPDATED (opt.scfp) ****
----------------
ORBITAL ENERGIES
----------------
                 SPIN UP ORBITALS
  NO   OCC          E(Eh)            E(eV) 
   0   1.0000     -10.240208      -278.6502 
   1   1.0000     -10.220571      -278.1159 
   2   1.0000     -10.215153      -277.9684 
   3   1.0000     -10.211643      -277.8729 
   4   1.0000     -10.202980      -277.6372 
   5   1.0000     -10.199466      -277.5416 
   6   1.0000     -10.196742      -277.4675 
   7   1.0000     -10.196569      -277.4628 
   8   1.0000     -10.195565      -277.4354 
   9   1.0000     -10.194673      -277.4112 
  10   1.0000     -10.194537      -277.4075 
  11   1.0000     -10.192304      -277.3467 
  12   1.0000     -10.190559      -277.2992 
  13   1.0000     -10.189487      -277.2700 
  14   1.0000     -10.188334      -277.2387 
  15   1.0000     -10.187392      -277.2130 
  16   1.0000     -10.186493      -277.1886 
  17   1.0000     -10.183307      -277.1019 
  18   1.0000     -10.182578      -277.0820 
  19   1.0000     -10.182390      -277.0769 
  20   1.0000     -10.181992      -277.0661 
  21   1.0000     -10.176428      -276.9147 
  22   1.0000     -10.176026      -276.9038 
  23   1.0000      -0.875386       -23.8205 
  24   1.0000      -0.863099       -23.4861 
  25   1.0000      -0.819927       -22.3113 
  26   1.0000      -0.798664       -21.7328 
  27   1.0000      -0.796307       -21.6686 
  28   1.0000      -0.778024       -21.1711 
  29   1.0000      -0.767153       -20.8753 
  30   1.0000      -0.751108       -20.4387 
  31   1.0000      -0.737327       -20.0637 
  32   1.0000      -0.724298       -19.7091 
  33   1.0000      -0.701879       -19.0991 
  34   1.0000      -0.675311       -18.3761 
  35   1.0000      -0.653761       -17.7898 
  36   1.0000      -0.626987       -17.0612 
  37   1.0000      -0.615305       -16.7433 
  38   1.0000      -0.608682       -16.5631 
  39   1.0000      -0.596974       -16.2445 
  40   1.0000      -0.580291       -15.7905 
  41   1.0000      -0.565270       -15.3818 
  42   1.0000      -0.554011       -15.0754 
  43   1.0000      -0.534586       -14.5468 
  44   1.0000      -0.507166       -13.8007 
  45   1.0000      -0.479928       -13.0595 
  46   1.0000      -0.478740       -13.0272 
  47   1.0000      -0.471972       -12.8430 
  48   1.0000      -0.470477       -12.8023 
  49   1.0000      -0.457289       -12.4435 
  50   1.0000      -0.437625       -11.9084 
  51   1.0000      -0.435482       -11.8501 
  52   1.0000      -0.427138       -11.6230 
  53   1.0000      -0.424753       -11.5581 
  54   1.0000      -0.424549       -11.5526 
  55   1.0000      -0.423438       -11.5223 
  56   1.0000      -0.417627       -11.3642 
  57   1.0000      -0.412784       -11.2324 
  58   1.0000      -0.409110       -11.1324 
  59   1.0000      -0.385030       -10.4772 
  60   1.0000      -0.381929       -10.3928 
  61   1.0000      -0.377689       -10.2774 
  62   1.0000      -0.370614       -10.0849 
  63   1.0000      -0.366836        -9.9821 
  64   1.0000      -0.360135        -9.7998 
  65   1.0000      -0.359011        -9.7692 
  66   1.0000      -0.350529        -9.5384 
  67   1.0000      -0.347310        -9.4508 
  68   1.0000      -0.343458        -9.3460 
  69   1.0000      -0.334220        -9.0946 
  70   1.0000      -0.330970        -9.0061 
  71   1.0000      -0.327551        -8.9131 
  72   1.0000      -0.326660        -8.8889 
  73   1.0000      -0.323230        -8.7955 
  74   1.0000      -0.321868        -8.7585 
  75   1.0000      -0.321585        -8.7508 
  76   1.0000      -0.291422        -7.9300 
  77   1.0000      -0.266733        -7.2582 
  78   1.0000      -0.259339        -7.0570 
  79   1.0000      -0.250240        -6.8094 
  80   1.0000      -0.237136        -6.4528 
  81   1.0000      -0.224580        -6.1111 
  82   1.0000      -0.179004        -4.8710 
  83   0.0000      -0.041397        -1.1265 
  84   0.0000      -0.010388        -0.2827 
  85   0.0000      -0.001978        -0.0538 
  86   0.0000       0.013046         0.3550 
  87   0.0000       0.046268         1.2590 
  88   0.0000       0.054171         1.4741 
  89   0.0000       0.059726         1.6252 
  90   0.0000       0.062698         1.7061 
  91   0.0000       0.079284         2.1574 
  92   0.0000       0.083913         2.2834 
  93   0.0000       0.086441         2.3522 
  94   0.0000       0.090573         2.4646 
  95   0.0000       0.093627         2.5477 
  96   0.0000       0.094869         2.5815 
  97   0.0000       0.101309         2.7568 
  98   0.0000       0.104029         2.8308 
  99   0.0000       0.113580         3.0907 
 100   0.0000       0.126608         3.4452 
 101   0.0000       0.130075         3.5395 
 102   0.0000       0.138170         3.7598 
 103   0.0000       0.143634         3.9085 
 104   0.0000       0.144225         3.9246 
 105   0.0000       0.146623         3.9898 
 106   0.0000       0.151974         4.1354 
 107   0.0000       0.156515         4.2590 
 108   0.0000       0.157610         4.2888 
 109   0.0000       0.160929         4.3791 
 110   0.0000       0.161503         4.3947 
 111   0.0000       0.165106         4.4928 
 112   0.0000       0.173776         4.7287 
 113   0.0000       0.175907         4.7867 
 114   0.0000       0.177294         4.8244 
 115   0.0000       0.203599         5.5402 
 116   0.0000       0.207847         5.6558 
 117   0.0000       0.211594         5.7578 
 118   0.0000       0.212919         5.7938 
 119   0.0000       0.219022         5.9599 
 120   0.0000       0.223760         6.0888 
 121   0.0000       0.237074         6.4511 
 122   0.0000       0.240958         6.5568 
 123   0.0000       0.263580         7.1724 
 124   0.0000       0.270420         7.3585 
 125   0.0000       0.279165         7.5965 
 126   0.0000       0.282394         7.6843 
 127   0.0000       0.289663         7.8821 
 128   0.0000       0.295006         8.0275 
 129   0.0000       0.312167         8.4945 
 130   0.0000       0.316171         8.6035 
 131   0.0000       0.334353         9.0982 
 132   0.0000       0.346009         9.4154 
 133   0.0000       0.362636         9.8678 
 134   0.0000       0.371716        10.1149 
 135   0.0000       0.377643        10.2762 
 136   0.0000       0.404649        11.0111 
 137   0.0000       0.409651        11.1472 
 138   0.0000       0.410430        11.1684 
 139   0.0000       0.410974        11.1832 
 140   0.0000       0.416162        11.3244 
 141   0.0000       0.416832        11.3426 
 142   0.0000       0.418730        11.3942 
 143   0.0000       0.431400        11.7390 
 144   0.0000       0.440814        11.9952 
 145   0.0000       0.449604        12.2343 
 146   0.0000       0.450868        12.2688 
 147   0.0000       0.454322        12.3627 
 148   0.0000       0.460927        12.5425 
 149   0.0000       0.472538        12.8584 
 150   0.0000       0.473739        12.8911 
 151   0.0000       0.478906        13.0317 
 152   0.0000       0.479442        13.0463 
 153   0.0000       0.487235        13.2583 
 154   0.0000       0.493375        13.4254 
 155   0.0000       0.497042        13.5252 
 156   0.0000       0.504124        13.7179 
 157   0.0000       0.505469        13.7545 
 158   0.0000       0.508637        13.8407 
 159   0.0000       0.508854        13.8466 
 160   0.0000       0.510845        13.9008 
 161   0.0000       0.514548        14.0016 
 162   0.0000       0.514924        14.0118 
 163   0.0000       0.522555        14.2194 
 164   0.0000       0.531094        14.4518 
 165   0.0000       0.536193        14.5905 
 166   0.0000       0.542758        14.7692 
 167   0.0000       0.546951        14.8833 
 168   0.0000       0.551319        15.0022 
 169   0.0000       0.574062        15.6210 
 170   0.0000       0.584196        15.8968 
 171   0.0000       0.585248        15.9254 
 172   0.0000       0.588442        16.0123 
 173   0.0000       0.591947        16.1077 
 174   0.0000       0.593459        16.1488 
 175   0.0000       0.603332        16.4175 
 176   0.0000       0.611431        16.6379 
 177   0.0000       0.614929        16.7331 
 178   0.0000       0.627624        17.0785 
 179   0.0000       0.630202        17.1487 
 180   0.0000       0.632714        17.2170 
 181   0.0000       0.634638        17.2694 
 182   0.0000       0.637765        17.3545 
 183   0.0000       0.640004        17.4154 
 184   0.0000       0.641260        17.4496 
 185   0.0000       0.642616        17.4865 
 186   0.0000       0.649761        17.6809 
 187   0.0000       0.656504        17.8644 
 188   0.0000       0.657602        17.8943 
 189   0.0000       0.658018        17.9056 
 190   0.0000       0.660543        17.9743 
 191   0.0000       0.660766        17.9804 
 192   0.0000       0.664008        18.0686 
 193   0.0000       0.672729        18.3059 
 194   0.0000       0.674651        18.3582 
 195   0.0000       0.676850        18.4180 
 196   0.0000       0.677997        18.4492 
 197   0.0000       0.682730        18.5780 
 198   0.0000       0.685783        18.6611 
 199   0.0000       0.685911        18.6646 
 200   0.0000       0.695827        18.9344 
 201   0.0000       0.698701        19.0126 
 202   0.0000       0.703950        19.1554 
 203   0.0000       0.706695        19.2301 
 204   0.0000       0.713602        19.4181 
 205   0.0000       0.716463        19.4959 
 206   0.0000       0.717308        19.5190 
 207   0.0000       0.724061        19.7027 
 208   0.0000       0.733455        19.9583 
 209   0.0000       0.737144        20.0587 
 210   0.0000       0.743842        20.2410 
 211   0.0000       0.756847        20.5949 
 212   0.0000       0.760674        20.6990 
 213   0.0000       0.775935        21.1143 
 214   0.0000       0.792680        21.5699 
 215   0.0000       0.800596        21.7853 
 216   0.0000       0.816890        22.2287 
 217   0.0000       0.821124        22.3439 
 218   0.0000       0.832813        22.6620 
 219   0.0000       0.840239        22.8641 
 220   0.0000       0.842900        22.9365 
 221   0.0000       0.851541        23.1716 
 222   0.0000       0.865499        23.5514 
 223   0.0000       0.873441        23.7675 
 224   0.0000       0.876907        23.8619 
 225   0.0000       0.884191        24.0601 
 226   0.0000       0.900844        24.5132 
 227   0.0000       0.910375        24.7726 
 228   0.0000       0.910627        24.7794 
 229   0.0000       0.923375        25.1263 
 230   0.0000       0.936340        25.4791 
 231   0.0000       0.938786        25.5457 
 232   0.0000       0.952179        25.9101 
 233   0.0000       0.965800        26.2807 
 234   0.0000       0.976084        26.5606 
 235   0.0000       0.977283        26.5932 
 236   0.0000       0.988996        26.9119 
 237   0.0000       0.992891        27.0179 
 238   0.0000       0.997342        27.1391 
 239   0.0000       1.000141        27.2152 
 240   0.0000       1.024381        27.8748 
 241   0.0000       1.024699        27.8835 
 242   0.0000       1.033041        28.1105 
 243   0.0000       1.040039        28.3009 
 244   0.0000       1.045748        28.4563 
 245   0.0000       1.049428        28.5564 
 246   0.0000       1.054000        28.6808 
 247   0.0000       1.059045        28.8181 
 248   0.0000       1.074148        29.2290 
 249   0.0000       1.101609        29.9763 
 250   0.0000       1.113887        30.3104 
 251   0.0000       1.120400        30.4876 
 252   0.0000       1.138331        30.9756 
 253   0.0000       1.148527        31.2530 
 254   0.0000       1.165102        31.7040 
 255   0.0000       1.166639        31.7459 
 256   0.0000       1.186026        32.2734 
 257   0.0000       1.194318        32.4990 
 258   0.0000       1.198172        32.6039 
 259   0.0000       1.203376        32.7455 
 260   0.0000       1.209336        32.9077 
 261   0.0000       1.214728        33.0544 
 262   0.0000       1.216087        33.0914 
 263   0.0000       1.217694        33.1351 
 264   0.0000       1.221885        33.2492 
 265   0.0000       1.222222        33.2584 
 266   0.0000       1.232370        33.5345 
 267   0.0000       1.234769        33.5998 
 268   0.0000       1.264057        34.3967 
 269   0.0000       1.289589        35.0915 
 270   0.0000       1.297539        35.3078 
 271   0.0000       1.314256        35.7627 
 272   0.0000       1.314828        35.7783 
 273   0.0000       1.319103        35.8946 
 274   0.0000       1.327514        36.1235 
 275   0.0000       1.335133        36.3308 
 276   0.0000       1.353199        36.8224 
 277   0.0000       1.367426        37.2096 
 278   0.0000       1.385084        37.6901 
 279   0.0000       1.393552        37.9205 
 280   0.0000       1.407809        38.3084 
 281   0.0000       1.409139        38.3446 
 282   0.0000       1.425572        38.7918 
 283   0.0000       1.425987        38.8031 
 284   0.0000       1.433711        39.0133 
 285   0.0000       1.452569        39.5264 
 286   0.0000       1.453360        39.5479 
 287   0.0000       1.462817        39.8053 
 288   0.0000       1.471204        40.0335 
 289   0.0000       1.477371        40.2013 
 290   0.0000       1.479059        40.2472 
 291   0.0000       1.487385        40.4738 
 292   0.0000       1.488063        40.4922 
 293   0.0000       1.506586        40.9963 
 294   0.0000       1.512560        41.1589 
 295   0.0000       1.517451        41.2919 
 296   0.0000       1.529452        41.6185 
 297   0.0000       1.533730        41.7349 
 298   0.0000       1.554998        42.3136 
 299   0.0000       1.562360        42.5140 
 300   0.0000       1.577714        42.9318 
 301   0.0000       1.587643        43.2020 
 302   0.0000       1.596746        43.4497 
 303   0.0000       1.599356        43.5207 
 304   0.0000       1.607090        43.7311 
 305   0.0000       1.607117        43.7319 
 306   0.0000       1.611248        43.8443 
 307   0.0000       1.616363        43.9835 
 308   0.0000       1.627091        44.2754 
 309   0.0000       1.627659        44.2909 
 310   0.0000       1.629606        44.3438 
 311   0.0000       1.632947        44.4347 
 312   0.0000       1.635610        44.5072 
 313   0.0000       1.637474        44.5579 
 314   0.0000       1.642552        44.6961 
 315   0.0000       1.645786        44.7841 
 316   0.0000       1.648910        44.8691 
 317   0.0000       1.649263        44.8787 
 318   0.0000       1.654118        45.0108 
 319   0.0000       1.668166        45.3931 
 320   0.0000       1.668568        45.4040 
 321   0.0000       1.678838        45.6835 
 322   0.0000       1.681960        45.7685 
 323   0.0000       1.683724        45.8165 
 324   0.0000       1.690238        45.9937 
 325   0.0000       1.693627        46.0859 
 326   0.0000       1.696447        46.1627 
 327   0.0000       1.697117        46.1809 
 328   0.0000       1.703168        46.3456 
 329   0.0000       1.704430        46.3799 
 330   0.0000       1.714576        46.6560 
 331   0.0000       1.716927        46.7200 
 332   0.0000       1.719706        46.7956 
 333   0.0000       1.720280        46.8112 
 334   0.0000       1.734417        47.1959 
 335   0.0000       1.740982        47.3745 
 336   0.0000       1.747329        47.5472 
 337   0.0000       1.755740        47.7761 
 338   0.0000       1.767227        48.0887 
 339   0.0000       1.768551        48.1247 
 340   0.0000       1.769587        48.1529 
 341   0.0000       1.773041        48.2469 
 342   0.0000       1.788445        48.6660 
 343   0.0000       1.793344        48.7994 
 344   0.0000       1.793436        48.8019 
 345   0.0000       1.798888        48.9502 
 346   0.0000       1.803573        49.0777 
 347   0.0000       1.803711        49.0815 
 348   0.0000       1.816613        49.4326 
 349   0.0000       1.823582        49.6222 
 350   0.0000       1.831952        49.8500 
 351   0.0000       1.839379        50.0520 
 352   0.0000       1.841927        50.1214 
 353   0.0000       1.843086        50.1529 
 354   0.0000       1.849059        50.3155 
 355   0.0000       1.855590        50.4932 
 356   0.0000       1.857520        50.5457 
 357   0.0000       1.869372        50.8682 
 358   0.0000       1.884423        51.2777 
 359   0.0000       1.886189        51.3258 
 360   0.0000       1.903540        51.7980 
 361   0.0000       1.914242        52.0892 
 362   0.0000       1.927281        52.4440 
 363   0.0000       1.930830        52.5406 
 364   0.0000       1.938301        52.7439 
 365   0.0000       1.939309        52.7713 
 366   0.0000       1.959368        53.3171 
 367   0.0000       1.961865        53.3851 
 368   0.0000       1.968876        53.5758 
 369   0.0000       1.972265        53.6681 
 370   0.0000       1.973616        53.7048 
 371   0.0000       1.986747        54.0621 
 372   0.0000       1.993105        54.2352 
 373   0.0000       2.017988        54.9122 
 374   0.0000       2.024735        55.0958 
 375   0.0000       2.027232        55.1638 
 376   0.0000       2.042346        55.5751 
 377   0.0000       2.060351        56.0650 
 378   0.0000       2.070104        56.3304 
 379   0.0000       2.089243        56.8512 
 380   0.0000       2.099226        57.1228 
 381   0.0000       2.108888        57.3858 
 382   0.0000       2.119182        57.6659 
 383   0.0000       2.143511        58.3279 
 384   0.0000       2.162972        58.8575 
 385   0.0000       2.172241        59.1097 
 386   0.0000       2.186524        59.4983 
 387   0.0000       2.186702        59.5032 
 388   0.0000       2.192525        59.6616 
 389   0.0000       2.203774        59.9677 
 390   0.0000       2.212381        60.2020 
 391   0.0000       2.218981        60.3815 
 392   0.0000       2.222894        60.4880 
 393   0.0000       2.229776        60.6753 
 394   0.0000       2.239979        60.9529 
 395   0.0000       2.250958        61.2517 
 396   0.0000       2.273439        61.8634 
[...]
      py      :     0.877136
      dz2     :     0.000683  d :    -0.000134
      dxz     :    -0.004054
      dyz     :     0.000030
      dx2y2   :     0.001415
      dxy     :     0.001793
  1 C s       :    -0.003820  s :    -0.003820
      pz      :    -0.044050  p :    -0.057549
      px      :    -0.002773
      py      :    -0.010726
      dz2     :     0.000228  d :     0.019897
      dxz     :     0.018244
      dyz     :     0.000002
      dx2y2   :     0.000647
      dxy     :     0.000776
  2 C s       :     0.001120  s :     0.001120
      pz      :    -0.118527  p :    -0.044599
      px      :     0.077887
      py      :    -0.003959
      dz2     :     0.001413  d :     0.086301
      dxz     :     0.032689
      dyz     :     0.003192
      dx2y2   :     0.003045
      dxy     :     0.045961
  3 C s       :     0.013753  s :     0.013753
      pz      :     0.149963  p :     0.183292
      px      :     0.016431
      py      :     0.016897
      dz2     :    -0.000080  d :    -0.004810
      dxz     :    -0.004297
      dyz     :    -0.002539
      dx2y2   :     0.002899
      dxy     :    -0.000794
  4 C s       :    -0.002823  s :    -0.002823
      pz      :    -0.077703  p :    -0.080388
      px      :     0.001194
      py      :    -0.003879
      dz2     :     0.000493  d :     0.018246
      dxz     :     0.010995
      dyz     :     0.003733
      dx2y2   :     0.000686
      dxy     :     0.002338
  5 C s       :     0.006011  s :     0.006011
      pz      :     0.163809  p :     0.172780
      px      :     0.004253
      py      :     0.004718
      dz2     :    -0.000791  d :    -0.008880
      dxz     :    -0.003231
      dyz     :    -0.003408
      dx2y2   :    -0.000475
      dxy     :    -0.000975
  6 C s       :    -0.002629  s :    -0.002629
      pz      :    -0.076269  p :    -0.078279
      px      :     0.001638
      py      :    -0.003649
      dz2     :     0.000516  d :     0.016518
      dxz     :     0.010339
      dyz     :     0.003513
      dx2y2   :     0.000658
      dxy     :     0.001492
  7 C s       :     0.015355  s :     0.015355
      pz      :     0.156089  p :     0.186905
      px      :     0.017298
      py      :     0.013518
      dz2     :    -0.000032  d :    -0.005192
      dxz     :    -0.004908
      dyz     :    -0.002433
      dx2y2   :     0.002443
      dxy     :    -0.000262
  8 H s       :     0.005773  s :     0.005773
      pz      :    -0.002279  p :    -0.002567
      px      :     0.000025
      py      :    -0.000313
  9 H s       :    -0.001584  s :    -0.001584
      pz      :     0.004217  p :     0.005991
      px      :     0.000523
      py      :     0.001251
 10 C s       :    -0.000129  s :    -0.000129
      pz      :    -0.001703  p :     0.000504
      px      :     0.003656
      py      :    -0.001449
      dz2     :     0.000330  d :     0.008150
      dxz     :     0.004011
      dyz     :     0.002256
      dx2y2   :     0.000691
      dxy     :     0.000862
 11 H s       :     0.008007  s :     0.008007
      pz      :     0.000265  p :     0.000485
      px      :     0.000082
      py      :     0.000138
 12 H s       :     0.008006  s :     0.008006
      pz      :     0.000266  p :     0.000486
      px      :     0.000083
      py      :     0.000136
 13 C s       :     0.000380  s :     0.000380
      pz      :    -0.000015  p :     0.001697
      px      :     0.000871
      py      :     0.000841
      dz2     :     0.000001  d :     0.000135
      dxz     :     0.000003
      dyz     :    -0.000059
      dx2y2   :     0.000124
      dxy     :     0.000066
 14 H s       :     0.000212  s :     0.000212
      pz      :     0.000004  p :     0.000087
      px      :     0.000042
      py      :     0.000040
 15 H s       :     0.000211  s :     0.000211
      pz      :     0.000004  p :     0.000087
      px      :     0.000042
      py      :     0.000040
 16 C s       :     0.000042  s :     0.000042
      pz      :     0.000118  p :     0.000107
      px      :     0.000014
      py      :    -0.000026
      dz2     :    -0.000003  d :     0.000012
      dxz     :     0.000000
      dyz     :     0.000008
      dx2y2   :     0.000013
      dxy     :    -0.000006
 17 H s       :     0.000092  s :     0.000092
      pz      :     0.000002  p :     0.000018
      px      :     0.000008
      py      :     0.000009
 18 H s       :     0.000092  s :     0.000092
      pz      :     0.000002  p :     0.000018
      px      :     0.000008
      py      :     0.000009
 19 C s       :    -0.000013  s :    -0.000013
      pz      :    -0.000004  p :    -0.000051
      px      :    -0.000008
      py      :    -0.000039
      dz2     :    -0.000001  d :     0.000007
      dxz     :     0.000008
      dyz     :     0.000004
      dx2y2   :    -0.000005
      dxy     :     0.000001
 20 H s       :     0.000015  s :     0.000015
      pz      :     0.000001  p :    -0.000001
      px      :    -0.000001
      py      :    -0.000001
 21 H s       :     0.000015  s :     0.000015
      pz      :     0.000001  p :    -0.000001
      px      :    -0.000001
      py      :    -0.000001
 22 C s       :     0.000933  s :     0.000933
      pz      :     0.000557  p :     0.005128
      px      :     0.002161
      py      :     0.002410
      dz2     :    -0.000073  d :    -0.003564
      dxz     :    -0.002058
      dyz     :    -0.001299
      dx2y2   :    -0.000001
      dxy     :    -0.000132
 23 H s       :    -0.003139  s :    -0.003139
      pz      :     0.000036  p :     0.000210
      px      :     0.000110
      py      :     0.000064
 24 H s       :    -0.003140  s :    -0.003140
      pz      :     0.000036  p :     0.000210
      px      :     0.000110
      py      :     0.000064
 25 C s       :    -0.000039  s :    -0.000039
      pz      :     0.000269  p :     0.000046
      px      :    -0.000051
      py      :    -0.000171
      dz2     :     0.000008  d :     0.000110
      dxz     :    -0.000042
      dyz     :     0.000031
      dx2y2   :     0.000091
      dxy     :     0.000022
 26 H s       :     0.000103  s :     0.000103
      pz      :    -0.000002  p :     0.000016
      px      :     0.000014
      py      :     0.000005
 27 H s       :     0.000103  s :     0.000103
      pz      :    -0.000003  p :     0.000016
      px      :     0.000014
      py      :     0.000005
 28 C s       :     0.000033  s :     0.000033
      pz      :    -0.000064  p :    -0.000025
      px      :    -0.000003
      py      :     0.000042
      dz2     :     0.000001  d :     0.000020
      dxz     :     0.000017
      dyz     :     0.000001
      dx2y2   :    -0.000005
      dxy     :     0.000006
 29 H s       :     0.000009  s :     0.000009
      pz      :     0.000001  p :    -0.000007
      px      :    -0.000001
      py      :    -0.000007
 30 H s       :     0.000009  s :     0.000009
      pz      :     0.000001  p :    -0.000007
      px      :    -0.000001
      py      :    -0.000007
 31 C s       :     0.000002  s :     0.000002
      pz      :     0.000001  p :     0.000029
      px      :     0.000009
      py      :     0.000018
      dz2     :    -0.000001  d :    -0.000009
      dxz     :    -0.000004
      dyz     :    -0.000003
      dx2y2   :    -0.000000
      dxy     :    -0.000002
 32 H s       :    -0.000006  s :    -0.000006
      pz      :     0.000000  p :     0.000001
      px      :     0.000000
      py      :     0.000001
 33 H s       :    -0.000006  s :    -0.000006
      pz      :     0.000000  p :     0.000001
      px      :     0.000000
      py      :     0.000001
 34 C s       :     0.003425  s :     0.003425
      pz      :     0.093147  p :     0.105921
      px      :     0.001609
      py      :     0.011165
      dz2     :    -0.000385  d :    -0.004905
      dxz     :    -0.003500
      dyz     :    -0.000002
      dx2y2   :    -0.000412
      dxy     :    -0.000606
 35 H s       :    -0.000012  s :    -0.000012
      pz      :    -0.000000  p :    -0.000004
      px      :    -0.000000
      py      :    -0.000003
 36 H s       :    -0.000005  s :    -0.000005
      pz      :     0.000000  p :     0.000002
      px      :     0.000001
      py      :     0.000001
 37 C s       :    -0.001332  s :    -0.001332
      pz      :    -0.017627  p :    -0.020884
      px      :    -0.002292
      py      :    -0.000965
      dz2     :     0.000117  d :     0.007253
      dxz     :     0.005514
      dyz     :     0.000588
      dx2y2   :     0.000357
      dxy     :     0.000676
 38 C s       :     0.001089  s :     0.001089
      pz      :     0.027450  p :     0.029089
      px      :     0.000811
      py      :     0.000828
      dz2     :    -0.000114  d :    -0.001492
      dxz     :    -0.000659
      dyz     :    -0.000404
      dx2y2   :    -0.000159
      dxy     :    -0.000156
 39 C s       :    -0.000644  s :    -0.000644
      pz      :    -0.012419  p :    -0.013726
      px      :    -0.000754
      py      :    -0.000554
      dz2     :     0.000062  d :     0.002818
      dxz     :     0.001943
      dyz     :     0.000580
      dx2y2   :     0.000113
      dxy     :     0.000120
 40 C s       :     0.001045  s :     0.001045
      pz      :     0.030037  p :     0.031511
      px      :     0.000681
      py      :     0.000794
      dz2     :    -0.000131  d :    -0.001098
      dxz     :    -0.000132
      dyz     :    -0.000633
      dx2y2   :    -0.000102
      dxy     :    -0.000100
 41 C s       :    -0.000643  s :    -0.000643
      pz      :    -0.012399  p :    -0.013705
      px      :    -0.000731
      py      :    -0.000575
      dz2     :     0.000062  d :     0.002817
      dxz     :     0.001818
      dyz     :     0.000704
      dx2y2   :     0.000116
      dxy     :     0.000117
 42 C s       :     0.001089  s :     0.001089
      pz      :     0.027438  p :     0.029075
      px      :     0.000829
      py      :     0.000808
      dz2     :    -0.000114  d :    -0.001490
      dxz     :    -0.000707
      dyz     :    -0.000355
      dx2y2   :    -0.000170
      dxy     :    -0.000144
 43 H s       :    -0.000948  s :    -0.000948
      pz      :     0.000920  p :     0.001067
      px      :     0.000130
      py      :     0.000017
 44 H s       :     0.000393  s :     0.000393
      pz      :    -0.000358  p :    -0.000439
      px      :    -0.000034
      py      :    -0.000047
 45 H s       :    -0.000863  s :    -0.000863
      pz      :     0.000743  p :     0.000886
      px      :     0.000045
      py      :     0.000099
 46 H s       :    -0.000854  s :    -0.000854
      pz      :     0.000743  p :     0.000887
      px      :     0.000039
      py      :     0.000105
 47 H s       :     0.000394  s :     0.000394
      pz      :    -0.000359  p :    -0.000439
      px      :    -0.000032
      py      :    -0.000048


                      *****************************
                      * MAYER POPULATION ANALYSIS *
                      *****************************

  NA   - Mulliken gross atomic population
  ZA   - Total nuclear charge
  QA   - Mulliken gross atomic charge
  VA   - Mayer's total valence
  BVA  - Mayer's bonded valence
  FA   - Mayer's free valence

  ATOM       NA         ZA         QA         VA         BVA        FA
  0 C      6.1960     6.0000    -0.1960     3.6594     1.5760     2.0834
  1 C      5.7493     6.0000     0.2507     2.5880     2.5841     0.0039
  2 C      5.8876     6.0000     0.1124     3.9449     3.9014     0.0435
  3 C      6.0520     6.0000    -0.0520     4.1108     4.0770     0.0339
  4 C      5.9887     6.0000     0.0113     3.8985     3.8892     0.0094
  5 C      6.1751     6.0000    -0.1751     3.8277     3.7893     0.0384
  6 C      6.0761     6.0000    -0.0761     4.1646     4.1554     0.0092
  7 C      5.9577     6.0000     0.0423     3.8871     3.8520     0.0350
  8 H      1.0522     1.0000    -0.0522     1.0034     1.0033     0.0001
  9 H      1.0486     1.0000    -0.0486     1.0019     1.0018     0.0001
 10 C      5.9561     6.0000     0.0439     4.0190     4.0187     0.0003
 11 H      0.9689     1.0000     0.0311     0.9698     0.9698     0.0001
 12 H      0.9689     1.0000     0.0311     0.9698     0.9698     0.0001
 13 C      6.0391     6.0000    -0.0391     4.1160     4.1160     0.0000
 14 H      0.9830     1.0000     0.0170     0.9637     0.9637     0.0000
 15 H      0.9830     1.0000     0.0170     0.9637     0.9637     0.0000
 16 C      6.0244     6.0000    -0.0244     4.1142     4.1142     0.0000
 17 H      0.9934     1.0000     0.0066     0.9678     0.9678     0.0000
 18 H      0.9935     1.0000     0.0065     0.9678     0.9678     0.0000
 19 C      5.9979     6.0000     0.0021     4.0172     4.0172     0.0000
 20 H      0.9831     1.0000     0.0169     0.9777     0.9777     0.0000
 21 H      0.9831     1.0000     0.0169     0.9777     0.9777     0.0000
 22 C      5.9632     6.0000     0.0368     4.0297     4.0296     0.0001
 23 H      0.9666     1.0000     0.0334     0.9696     0.9696     0.0000
 24 H      0.9666     1.0000     0.0334     0.9696     0.9696     0.0000
 25 C      6.0359     6.0000    -0.0359     4.1118     4.1118     0.0000
 26 H      0.9838     1.0000     0.0162     0.9638     0.9638     0.0000
 27 H      0.9838     1.0000     0.0162     0.9638     0.9638     0.0000
 28 C      6.0249     6.0000    -0.0249     4.1153     4.1153     0.0000
 29 H      0.9946     1.0000     0.0054     0.9678     0.9678     0.0000
 30 H      0.9945     1.0000     0.0055     0.9678     0.9678     0.0000
 31 C      5.9968     6.0000     0.0032     4.0163     4.0163     0.0000
 32 H      0.9829     1.0000     0.0171     0.9777     0.9777     0.0000
 33 H      0.9829     1.0000     0.0171     0.9777     0.9777     0.0000
 34 C      5.8466     6.0000     0.1534     2.6734     2.6612     0.0122
 35 H      0.9871     1.0000     0.0129     0.9745     0.9745     0.0000
 36 H      0.9876     1.0000     0.0124     0.9744     0.9744     0.0000
 37 C      6.2540     6.0000    -0.2540     3.9241     3.9235     0.0006
 38 C      5.9675     6.0000     0.0325     3.9951     3.9941     0.0010
 39 C      5.9588     6.0000     0.0412     4.0027     4.0025     0.0002
 40 C      5.9747     6.0000     0.0253     3.9982     3.9970     0.0012
 41 C      5.9557     6.0000     0.0443     4.0001     3.9999     0.0002
 42 C      5.9735     6.0000     0.0265     3.9964     3.9954     0.0010
 43 H      1.0229     1.0000    -0.0229     0.9691     0.9691     0.0000
 44 H      1.0282     1.0000    -0.0282     0.9687     0.9687     0.0000
 45 H      1.0406     1.0000    -0.0406     0.9842     0.9841     0.0000
 46 H      1.0397     1.0000    -0.0397     0.9836     0.9836     0.0000
 47 H      1.0286     1.0000    -0.0286     0.9689     0.9689     0.0000

  Mayer bond orders larger than 0.100000
B(  0-C ,  2-C ) :   1.2829 B(  1-C ,  5-C ) :   0.9253 B(  1-C , 34-C ) :   1.7541 
B(  1-C , 37-C ) :  -0.1716 B(  2-C ,  3-C ) :   1.2621 B(  2-C ,  7-C ) :   1.2334 
B(  3-C ,  4-C ) :   1.4837 B(  3-C , 10-C ) :   1.0772 B(  4-C ,  5-C ) :   1.3383 
B(  4-C ,  8-H ) :   0.9246 B(  5-C ,  6-C ) :   1.3572 B(  6-C ,  7-C ) :   1.4920 
B(  6-C , 22-C ) :   1.0918 B(  7-C ,  9-H ) :   0.9194 B( 10-C , 11-H ) :   0.9015 
B( 10-C , 12-H ) :   0.9015 B( 10-C , 13-C ) :   1.1020 B( 13-C , 14-H ) :   0.9299 
B( 13-C , 15-H ) :   0.9299 B( 13-C , 16-C ) :   1.0741 B( 16-C , 17-H ) :   0.9418 
B( 16-C , 18-H ) :   0.9418 B( 16-C , 19-C ) :   1.1040 B( 19-C , 20-H ) :   0.9666 
B( 19-C , 21-H ) :   0.9666 B( 19-C , 35-H ) :   0.9628 B( 22-C , 23-H ) :   0.8983 
B( 22-C , 24-H ) :   0.8983 B( 22-C , 25-C ) :   1.1024 B( 25-C , 26-H ) :   0.9295 
B( 25-C , 27-H ) :   0.9295 B( 25-C , 28-C ) :   1.0744 B( 28-C , 29-H ) :   0.9416 
B( 28-C , 30-H ) :   0.9416 B( 28-C , 31-C ) :   1.1042 B( 31-C , 32-H ) :   0.9665 
B( 31-C , 33-H ) :   0.9665 B( 31-C , 36-H ) :   0.9626 B( 34-C , 37-C ) :   0.9395 
B( 37-C , 38-C ) :   1.4346 B( 37-C , 42-C ) :   1.4336 B( 38-C , 39-C ) :   1.4746 
B( 38-C , 45-H ) :   0.9404 B( 39-C , 40-C ) :   1.4435 B( 39-C , 47-H ) :   0.9377 
B( 40-C , 41-C ) :   1.4413 B( 40-C , 43-H ) :   0.9442 B( 41-C , 42-C ) :   1.4746 
B( 41-C , 44-H ) :   0.9377 B( 42-C , 46-H ) :   0.9407 

-------
TIMINGS
-------

Total SCF time: 0 days 0 hours 0 min 41 sec 

Total time                  ....      41.724 sec
Sum of individual times     ....      40.526 sec  ( 97.1%)

Fock matrix formation       ....      36.187 sec  ( 86.7%)
  XC integration            ....       2.026 sec  (  5.6% of F)
    Basis function eval.    ....       0.360 sec  ( 17.8% of XC)
    Density eval.           ....       0.324 sec  ( 16.0% of XC)
    XC-Functional eval.     ....       0.061 sec  (  3.0% of XC)
    XC-Potential eval.      ....       0.379 sec  ( 18.7% of XC)
Diagonalization             ....       1.166 sec  (  2.8%)
Density matrix formation    ....       0.074 sec  (  0.2%)
Population analysis         ....       0.276 sec  (  0.7%)
Initial guess               ....       0.188 sec  (  0.5%)
Orbital Transformation      ....       0.000 sec  (  0.0%)
Orbital Orthonormalization  ....       0.138 sec  (  0.3%)
DIIS solution               ....       0.598 sec  (  1.4%)
Grid generation             ....       2.037 sec  (  4.9%)

-------------------------   --------------------
FINAL SINGLE POINT ENERGY      -890.697363968104
-------------------------   --------------------

                                *** OPTIMIZATION RUN DONE ***

                            ***************************************
                            *     ORCA property calculations      *
                            ***************************************

                                    ---------------------
                                    Active property flags
                                    ---------------------
   (+) Dipole Moment


------------------------------------------------------------------------------
                       ORCA ELECTRIC PROPERTIES CALCULATION
------------------------------------------------------------------------------

Dipole Moment Calculation                       ... on
Quadrupole Moment Calculation                   ... off
Polarizability Calculation                      ... off
GBWName                                         ... opt.gbw
Electron density file                           ... opt.scfp
The origin for moment calculation is the CENTER OF MASS  = ( 3.632375, -0.057509 -0.019252)

-------------
DIPOLE MOMENT
-------------
                                X             Y             Z
Electronic contribution:     11.11751      -0.24164      -0.00039
Nuclear contribution   :    -10.66818       0.20136       0.00044
                        -----------------------------------------
Total Dipole Moment    :      0.44933      -0.04029       0.00006
                        -----------------------------------------
Magnitude (a.u.)       :      0.45113
Magnitude (Debye)      :      1.14668



--------------------
Rotational spectrum 
--------------------
 
Rotational constants in cm-1:     0.006769     0.004683     0.002780 
Rotational constants in MHz :   202.920421   140.398103    83.327477 

 Dipole components along the rotational axes: 
x,y,z [a.u.] :     0.364981     0.265158     0.000024 
x,y,z [Debye]:     0.927707     0.673977     0.000062 

 

Timings for individual modules:

Sum of individual times         ...     1074.204 sec (=  17.903 min)
GTO integral calculation        ...       12.443 sec (=   0.207 min)   1.2 %
SCF iterations                  ...      932.031 sec (=  15.534 min)  86.8 %
SCF Gradient evaluation         ...      125.294 sec (=   2.088 min)  11.7 %
Geometry relaxation             ...        4.435 sec (=   0.074 min)   0.4 %
                             ****ORCA TERMINATED NORMALLY****
TOTAL RUN TIME: 0 days 0 hours 17 minutes 59 seconds 9 msec
