
                                 *****************
                                 * O   R   C   A *
                                 *****************

                                            #,                                       
                                            ###                                      
                                            ####                                     
                                            #####                                    
                                            ######                                   
                                           ########,                                 
                                     ,,################,,,,,                         
                               ,,#################################,,                 
                          ,,##########################################,,             
                       ,#########################################, ''#####,          
                    ,#############################################,,   '####,        
                  ,##################################################,,,,####,       
                ,###########''''           ''''###############################       
              ,#####''   ,,,,##########,,,,          '''####'''          '####       
            ,##' ,,,,###########################,,,                        '##       
           ' ,,###''''                  '''############,,,                           
         ,,##''                                '''############,,,,        ,,,,,,###''
      ,#''                                            '''#######################'''  
     '                                                          ''''####''''         
             ,#######,   #######,   ,#######,      ##                                
            ,#'     '#,  ##    ##  ,#'     '#,    #''#        ######   ,####,        
            ##       ##  ##   ,#'  ##            #'  '#       #        #'  '#        
            ##       ##  #######   ##           ,######,      #####,   #    #        
            '#,     ,#'  ##    ##  '#,     ,#' ,#      #,         ##   #,  ,#        
             '#######'   ##     ##  '#######'  #'      '#     #####' # '####'        



                  #######################################################
                  #                        -***-                        #
                  #          Department of theory and spectroscopy      #
                  #    Directorship and core code : Frank Neese         #
                  #        Max Planck Institute fuer Kohlenforschung    #
                  #                Kaiser Wilhelm Platz 1               #
                  #                 D-45470 Muelheim/Ruhr               #
                  #                      Germany                        #
                  #                                                     #
                  #                  All rights reserved                #
                  #                        -***-                        #
                  #######################################################


                         Program Version 5.0.4 -  RELEASE  -


 With contributions from (in alphabetic order):
   Daniel Aravena         : Magnetic Suceptibility
   Michael Atanasov       : Ab Initio Ligand Field Theory (pilot matlab implementation)
   Alexander A. Auer      : GIAO ZORA, VPT2 properties, NMR spectrum
   Ute Becker             : Parallelization
   Giovanni Bistoni       : ED, misc. LED, open-shell LED, HFLD
   Martin Brehm           : Molecular dynamics
   Dmytro Bykov           : SCF Hessian
   Vijay G. Chilkuri      : MRCI spin determinant printing, contributions to CSF-ICE
   Dipayan Datta          : RHF DLPNO-CCSD density
   Achintya Kumar Dutta   : EOM-CC, STEOM-CC
   Dmitry Ganyushin       : Spin-Orbit,Spin-Spin,Magnetic field MRCI
   Miquel Garcia          : C-PCM and meta-GGA Hessian, CC/C-PCM, Gaussian charge scheme
   Yang Guo               : DLPNO-NEVPT2, F12-NEVPT2, CIM, IAO-localization
   Andreas Hansen         : Spin unrestricted coupled pair/coupled cluster methods
   Benjamin Helmich-Paris : MC-RPA, TRAH-SCF, COSX integrals
   Lee Huntington         : MR-EOM, pCC
   Robert Izsak           : Overlap fitted RIJCOSX, COSX-SCS-MP3, EOM
   Marcus Kettner         : VPT2
   Christian Kollmar      : KDIIS, OOCD, Brueckner-CCSD(T), CCSD density, CASPT2, CASPT2-K
   Simone Kossmann        : Meta GGA functionals, TD-DFT gradient, OOMP2, MP2 Hessian
   Martin Krupicka        : Initial AUTO-CI
   Lucas Lang             : DCDCAS
   Marvin Lechner         : AUTO-CI (C++ implementation), FIC-MRCC
   Dagmar Lenk            : GEPOL surface, SMD
   Dimitrios Liakos       : Extrapolation schemes; Compound Job, initial MDCI parallelization
   Dimitrios Manganas     : Further ROCIS development; embedding schemes
   Dimitrios Pantazis     : SARC Basis sets
   Anastasios Papadopoulos: AUTO-CI, single reference methods and gradients
   Taras Petrenko         : DFT Hessian,TD-DFT gradient, ASA, ECA, R-Raman, ABS, FL, XAS/XES, NRVS
   Peter Pinski           : DLPNO-MP2, DLPNO-MP2 Gradient
   Christoph Reimann      : Effective Core Potentials
   Marius Retegan         : Local ZFS, SOC
   Christoph Riplinger    : Optimizer, TS searches, QM/MM, DLPNO-CCSD(T), (RO)-DLPNO pert. Triples
   Tobias Risthaus        : Range-separated hybrids, TD-DFT gradient, RPA, STAB
   Michael Roemelt        : Original ROCIS implementation
   Masaaki Saitow         : Open-shell DLPNO-CCSD energy and density
   Barbara Sandhoefer     : DKH picture change effects
   Avijit Sen             : IP-ROCIS
   Kantharuban Sivalingam : CASSCF convergence, NEVPT2, FIC-MRCI
   Bernardo de Souza      : ESD, SOC TD-DFT
   Georgi Stoychev        : AutoAux, RI-MP2 NMR, DLPNO-MP2 response
   Willem Van den Heuvel  : Paramagnetic NMR
   Boris Wezisla          : Elementary symmetry handling
   Frank Wennmohs         : Technical directorship


 We gratefully acknowledge several colleagues who have allowed us to
 interface, adapt or use parts of their codes:
   Stefan Grimme, W. Hujo, H. Kruse, P. Pracht,  : VdW corrections, initial TS optimization,
                  C. Bannwarth, S. Ehlert          DFT functionals, gCP, sTDA/sTD-DF
   Ed Valeev, F. Pavosevic, A. Kumar             : LibInt (2-el integral package), F12 methods
   Garnet Chan, S. Sharma, J. Yang, R. Olivares  : DMRG
   Ulf Ekstrom                                   : XCFun DFT Library
   Mihaly Kallay                                 : mrcc  (arbitrary order and MRCC methods)
   Jiri Pittner, Ondrej Demel                    : Mk-CCSD
   Frank Weinhold                                : gennbo (NPA and NBO analysis)
   Christopher J. Cramer and Donald G. Truhlar   : smd solvation model
   Lars Goerigk                                  : TD-DFT with DH, B97 family of functionals
   V. Asgeirsson, H. Jonsson                     : NEB implementation
   FAccTs GmbH                                   : IRC, NEB, NEB-TS, DLPNO-Multilevel, CI-OPT
                                                   MM, QMMM, 2- and 3-layer-ONIOM, Crystal-QMMM,
                                                   LR-CPCM, SF, NACMEs, symmetry and pop. for TD-DFT,
                                                   nearIR, NL-DFT gradient (VV10), updates on ESD,
                                                   ML-optimized integration grids
   S Lehtola, MJT Oliveira, MAL Marques          : LibXC Library
   Liviu Ungur et al                             : ANISO software


 Your calculation uses the libint2 library for the computation of 2-el integrals
 For citations please refer to: http://libint.valeyev.net

 Your ORCA version has been built with support for libXC version: 5.1.0
 For citations please refer to: https://tddft.org/programs/libxc/

 This ORCA versions uses:
   CBLAS   interface :  Fast vector & matrix operations
   LAPACKE interface :  Fast linear algebra routines
   SCALAPACK package :  Parallel linear algebra routines
   Shared memory     :  Shared parallel matrices
   BLAS/LAPACK       :  OpenBLAS 0.3.15  USE64BITINT DYNAMIC_ARCH NO_AFFINITY SkylakeX SINGLE_THREADED
        Core in use  :  SkylakeX
   Copyright (c) 2011-2014, The OpenBLAS Project




***************************************
The coordinates will be read from file: model.xyz
***************************************


================================================================================

----- Orbital basis set information -----
Your calculation utilizes the basis: EPR-II
   V. Barone, in Recent Advances in Density Functional Methods, Part 1 (ed. D. P. Chong), World Scientific, Singapore, 1995, p. 287.

----- AuxJ basis set information -----
Your calculation utilizes the auxiliary basis: def2/J
   F. Weigend, Phys. Chem. Chem. Phys. 8, 1057 (2006).

================================================================================
                                        WARNINGS
                       Please study these warnings very carefully!
================================================================================


WARNING: your system is open-shell and RHF/RKS was chosen
  ===> : WILL SWITCH to UHF/UKS


WARNING: Geometry Optimization
  ===> : Switching off AutoStart
         For restart on a previous wavefunction, please use MOREAD

INFO   : the flag for use of the SHARK integral package has been found!

================================================================================
                                       INPUT FILE
================================================================================
NAME = opt_EPRII.inp
|  1> ! B3LYP EPR-II OPT
|  2> %pal nprocs 16 end
|  3> *XYZFile 0 2 model.xyz
|  4> 
|  5>                          ****END OF INPUT****
================================================================================

                       *****************************
                       * Geometry Optimization Run *
                       *****************************

Geometry optimization settings:
Update method            Update   .... BFGS
Choice of coordinates    CoordSys .... Z-matrix Internals
Initial Hessian          InHess   .... Almoef's Model

Convergence Tolerances:
Energy Change            TolE     ....  5.0000e-06 Eh
Max. Gradient            TolMAXG  ....  3.0000e-04 Eh/bohr
RMS Gradient             TolRMSG  ....  1.0000e-04 Eh/bohr
Max. Displacement        TolMAXD  ....  4.0000e-03 bohr
RMS Displacement         TolRMSD  ....  2.0000e-03 bohr
Strict Convergence                ....  False
------------------------------------------------------------------------------
                        ORCA OPTIMIZATION COORDINATE SETUP
------------------------------------------------------------------------------

The optimization will be done in new redundant internal coordinates
Making redundant internal coordinates   ...  (new redundants) done
Evaluating the initial hessian          ...  (Almloef) done
Evaluating the coordinates              ...  done
Calculating the B-matrix                .... done
Calculating the G-matrix                .... done
Diagonalizing the G-matrix              .... done
Small eigenvalue found = 7.056e-04
Small eigenvalue found = 1.992e-03
Small eigenvalue found = 7.378e-03
Small eigenvalue found = 9.459e-03
Small eigenvalue found = 1.953e-02
Small eigenvalue found = 2.291e-02
Small eigenvalue found = 2.380e-02
Small eigenvalue found = 2.878e-02
Small eigenvalue found = 2.975e-02
The first mode is                       ....  117
The number of degrees of freedom        ....  138

    -----------------------------------------------------------------
                    Redundant Internal Coordinates


    -----------------------------------------------------------------
         Definition                    Initial Value    Approx d2E/dq
    -----------------------------------------------------------------
      1. B(C   2,C   0)                  1.3604         0.696555   
      2. B(C   3,C   2)                  1.4545         0.493039   
      3. B(C   4,C   3)                  1.3770         0.655407   
      4. B(C   5,C   4)                  1.4256         0.548235   
      5. B(C   5,C   1)                  1.4135         0.573211   
      6. B(C   6,C   5)                  1.4366         0.526546   
      7. B(C   7,C   2)                  1.4490         0.503022   
      8. B(C   7,C   6)                  1.3786         0.651514   
      9. B(H   8,C   4)                  1.0906         0.359354   
     10. B(H   9,C   7)                  1.0892         0.361183   
     11. B(C  10,C   3)                  1.5146         0.395321   
     12. B(H  11,C  10)                  1.1074         0.337854   
     13. B(H  12,C  10)                  1.1074         0.337854   
     14. B(C  13,C  10)                  1.5307         0.372595   
     15. B(H  14,C  13)                  1.1054         0.340238   
     16. B(H  15,C  13)                  1.1054         0.340233   
     17. B(C  16,C  13)                  1.5336         0.368723   
     18. B(H  17,C  16)                  1.1057         0.339866   
     19. B(H  18,C  16)                  1.1057         0.339864   
     20. B(C  19,C  16)                  1.5307         0.372663   
     21. B(H  20,C  19)                  1.1037         0.342396   
     22. B(H  21,C  19)                  1.1037         0.342396   
     23. B(C  22,C   6)                  1.5168         0.392169   
     24. B(H  23,C  22)                  1.1056         0.340067   
     25. B(H  24,C  22)                  1.1056         0.340072   
     26. B(C  25,C  22)                  1.5305         0.372864   
     27. B(H  26,C  25)                  1.1056         0.340010   
     28. B(H  27,C  25)                  1.1056         0.340013   
     29. B(C  28,C  25)                  1.5338         0.368444   
     30. B(H  29,C  28)                  1.1059         0.339708   
     31. B(H  30,C  28)                  1.1059         0.339709   
     32. B(C  31,C  28)                  1.5307         0.372587   
     33. B(H  32,C  31)                  1.1037         0.342447   
     34. B(H  33,C  31)                  1.1037         0.342447   
     35. B(C  34,C   1)                  1.2267         1.138540   
     36. B(H  35,C  19)                  1.1020         0.344595   
     37. B(H  36,C  31)                  1.1021         0.344502   
     38. B(C  37,C  34)                  1.4241         0.551149   
     39. B(C  38,C  37)                  1.4138         0.572463   
     40. B(C  39,C  38)                  1.3939         0.615991   
     41. B(C  40,C  39)                  1.4000         0.602279   
     42. B(C  41,C  40)                  1.4000         0.602165   
     43. B(C  42,C  41)                  1.3939         0.615996   
     44. B(C  42,C  37)                  1.4138         0.572564   
     45. B(H  43,C  40)                  1.0925         0.356866   
     46. B(H  44,C  41)                  1.0927         0.356575   
     47. B(H  45,C  38)                  1.0916         0.357965   
     48. B(H  46,C  42)                  1.0916         0.357942   
     49. B(H  47,C  39)                  1.0927         0.356568   
     50. L(C   5,C   1,C  34,C   4, 1) 179.0237         0.477985   
     51. L(C   5,C   1,C  34,C   4, 2) 179.8844         0.477985   
     52. A(C   3,C   2,C   7)          119.7534         0.401483   
     53. A(C   0,C   2,C   7)          117.6739         0.426905   
     54. A(C   0,C   2,C   3)          122.5727         0.425375   
     55. A(C   2,C   3,C  10)          118.0950         0.384899   
     56. A(C   2,C   3,C   4)          117.2287         0.420771   
     57. A(C   4,C   3,C  10)          124.6763         0.404592   
     58. A(C   3,C   4,C   5)          123.1394         0.428836   
     59. A(C   3,C   4,H   8)          119.5799         0.356122   
     60. A(C   5,C   4,H   8)          117.2807         0.345542   
     61. A(C   4,C   5,C   6)          119.7757         0.412408   
     62. A(C   1,C   5,C   4)          119.1002         0.418684   
     63. A(C   1,C   5,C   6)          121.1241         0.415685   
     64. A(C   5,C   6,C   7)          118.5631         0.425291   
     65. A(C   5,C   6,C  22)          119.0829         0.388792   
     66. A(C   7,C   6,C  22)          122.3539         0.403596   
     67. A(C   6,C   7,H   9)          120.5897         0.356069   
     68. A(C   2,C   7,H   9)          117.8706         0.340882   
     69. A(C   2,C   7,C   6)          121.5397         0.421830   
     70. A(H  12,C  10,C  13)          109.1863         0.320809   
     71. A(C   3,C  10,C  13)          116.8004         0.366722   
     72. A(C   3,C  10,H  12)          108.0837         0.323936   
     73. A(H  11,C  10,C  13)          109.1847         0.320809   
     74. A(C   3,C  10,H  11)          108.0855         0.323936   
     75. A(H  11,C  10,H  12)          104.8364         0.285096   
     76. A(H  15,C  13,C  16)          109.1209         0.320629   
     77. A(H  14,C  13,C  16)          109.1169         0.320630   
     78. A(C  10,C  13,C  16)          112.6611         0.362379   
     79. A(H  14,C  13,H  15)          106.3261         0.285721   
     80. A(C  10,C  13,H  15)          109.7053         0.321177   
     81. A(C  10,C  13,H  14)          109.7086         0.321178   
     82. A(H  17,C  16,H  18)          105.8755         0.285624   
     83. A(C  13,C  16,H  18)          109.2133         0.320572   
     84. A(C  13,C  16,H  17)          109.2138         0.320573   
     85. A(H  18,C  16,C  19)          109.5888         0.321130   
     86. A(H  17,C  16,C  19)          109.5901         0.321130   
     87. A(C  13,C  16,C  19)          113.1031         0.362390   
     88. A(C  16,C  19,H  35)          111.4599         0.321858   
     89. A(H  20,C  19,H  21)          107.4099         0.286285   
     90. A(C  16,C  19,H  21)          111.2830         0.321520   
     91. A(C  16,C  19,H  20)          111.2841         0.321520   
     92. A(H  21,C  19,H  35)          107.6003         0.286572   
     93. A(H  20,C  19,H  35)          107.6004         0.286571   
     94. A(H  24,C  22,C  25)          109.3109         0.321191   
     95. A(H  23,C  22,C  25)          109.3120         0.321190   
     96. A(C   6,C  22,C  25)          117.0548         0.366265   
     97. A(H  23,C  22,H  24)          104.6105         0.285678   
     98. A(C   6,C  22,H  24)          107.9145         0.323859   
     99. A(C   6,C  22,H  23)          107.9161         0.323858   
    100. A(H  27,C  25,C  28)          109.0122         0.320555   
    101. A(H  26,C  25,C  28)          109.0140         0.320555   
    102. A(C  22,C  25,C  28)          112.5660         0.362376   
    103. A(H  26,C  25,H  27)          106.2830         0.285662   
    104. A(C  22,C  25,H  27)          109.8839         0.321181   
    105. A(C  22,C  25,H  26)          109.8797         0.321181   
    106. A(H  30,C  28,C  31)          109.5763         0.321095   
    107. A(H  29,C  28,C  31)          109.5754         0.321095   
    108. A(C  25,C  28,C  31)          113.1623         0.362330   
    109. A(H  29,C  28,H  30)          105.8848         0.285583   
    110. A(C  25,C  28,H  30)          109.1910         0.320509   
    111. A(C  25,C  28,H  29)          109.1915         0.320508   
    112. A(H  32,C  31,H  33)          107.3931         0.286299   
    113. A(C  28,C  31,H  33)          111.2790         0.321517   
    114. A(C  28,C  31,H  32)          111.2782         0.321517   
    115. A(H  33,C  31,H  36)          107.6003         0.286566   
    116. A(H  32,C  31,H  36)          107.6000         0.286566   
    117. A(C  28,C  31,H  36)          111.4859         0.321833   
    118. L(C   1,C  34,C  37,C  38, 2) 180.1043         0.474545   
    119. L(C   1,C  34,C  37,C  38, 1) 179.8120         0.474545   
    120. A(C  38,C  37,C  42)          118.6975         0.421841   
    121. A(C  34,C  37,C  42)          120.7164         0.418995   
    122. A(C  34,C  37,C  38)          120.5861         0.418982   
    123. A(C  39,C  38,H  45)          120.4948         0.352167   
    124. A(C  37,C  38,H  45)          119.0861         0.347838   
    125. A(C  37,C  38,C  39)          120.4191         0.427394   
    126. A(C  40,C  39,H  47)          120.0223         0.350598   
    127. A(C  38,C  39,H  47)          119.6011         0.351935   
    128. A(C  38,C  39,C  40)          120.3766         0.431306   
    129. A(C  41,C  40,H  43)          120.1490         0.350636   
    130. A(C  39,C  40,H  43)          120.1399         0.350648   
    131. A(C  39,C  40,C  41)          119.7111         0.429551   
    132. A(C  42,C  41,H  44)          119.5992         0.351936   
    133. A(C  40,C  41,H  44)          120.0297         0.350588   
    134. A(C  40,C  41,C  42)          120.3712         0.431292   
    135. A(C  41,C  42,H  46)          120.4719         0.352164   
    136. A(C  37,C  42,H  46)          119.1035         0.347845   
    137. A(C  37,C  42,C  41)          120.4245         0.427409   
    138. D(C  10,C   3,C   2,C   7)   -179.9863         0.016553   
    139. D(C   4,C   3,C   2,C   7)      0.0065         0.016553   
    140. D(C   4,C   3,C   2,C   0)   -179.9884         0.016553   
    141. D(C  10,C   3,C   2,C   0)      0.0187         0.016553   
    142. D(C   5,C   4,C   3,C  10)    179.9862         0.029944   
    143. D(H   8,C   4,C   3,C  10)     -0.0112         0.029944   
    144. D(H   8,C   4,C   3,C   2)    179.9965         0.029944   
    145. D(C   5,C   4,C   3,C   2)     -0.0061         0.029944   
    146. D(C   1,C   5,C   4,H   8)      0.0066         0.020557   
    147. D(C   6,C   5,C   4,H   8)   -179.9964         0.020557   
    148. D(C   6,C   5,C   4,C   3)      0.0062         0.020557   
    149. D(C   1,C   5,C   4,C   3)   -179.9908         0.020557   
    150. D(C   7,C   6,C   5,C   4)     -0.0064         0.018918   
    151. D(C  22,C   6,C   5,C   1)     -0.0059         0.018918   
    152. D(C   7,C   6,C   5,C   1)    179.9905         0.018918   
    153. D(C  22,C   6,C   5,C   4)    179.9972         0.018918   
    154. D(H   9,C   7,C   6,C  22)      0.0004         0.029564   
    155. D(C   2,C   7,C   6,C  22)   -179.9966         0.029564   
    156. D(C   2,C   7,C   6,C   5)      0.0071         0.029564   
    157. D(H   9,C   7,C   6,C   5)   -179.9959         0.029564   
    158. D(C   6,C   7,C   2,C   3)     -0.0073         0.017237   
    159. D(C   6,C   7,C   2,C   0)    179.9879         0.017237   
    160. D(H   9,C   7,C   2,C   3)    179.9957         0.017237   
    161. D(H   9,C   7,C   2,C   0)     -0.0091         0.017237   
    162. D(C  13,C  10,C   3,C   4)      0.0659         0.011611   
    163. D(C  13,C  10,C   3,C   2)   -179.9418         0.011611   
    164. D(H  12,C  10,C   3,C   4)    123.5889         0.011611   
    165. D(H  11,C  10,C   3,C   4)   -123.4564         0.011611   
    166. D(H  12,C  10,C   3,C   2)    -56.4188         0.011611   
    167. D(H  11,C  10,C   3,C   2)     56.5358         0.011611   
    168. D(H  14,C  13,C  10,C   3)    -58.2247         0.011089   
    169. D(C  16,C  13,C  10,H  11)    -57.0399         0.011089   
    170. D(C  16,C  13,C  10,C   3)   -179.9967         0.011089   
    171. D(H  15,C  13,C  10,H  12)    -64.7270         0.011089   
    172. D(H  15,C  13,C  10,H  11)   -178.8147         0.011089   
    173. D(H  15,C  13,C  10,C   3)     58.2286         0.011089   
    174. D(H  14,C  13,C  10,H  12)    178.8196         0.011089   
    175. D(C  16,C  13,C  10,H  12)     57.0477         0.011089   
    176. D(H  14,C  13,C  10,H  11)     64.7320         0.011089   
    177. D(C  19,C  16,C  13,H  15)    -57.8880         0.010873   
    178. D(C  19,C  16,C  13,C  10)   -179.9931         0.010873   
    179. D(H  18,C  16,C  13,H  15)    179.7905         0.010873   
    180. D(H  18,C  16,C  13,H  14)    -64.4211         0.010873   
    181. D(H  18,C  16,C  13,C  10)     57.6854         0.010873   
    182. D(H  17,C  16,C  13,H  15)     64.4355         0.010873   
    183. D(C  19,C  16,C  13,H  14)     57.9005         0.010873   
    184. D(H  17,C  16,C  13,H  14)   -179.7761         0.010873   
    185. D(H  17,C  16,C  13,C  10)    -57.6696         0.010873   
    186. D(H  35,C  19,C  16,H  18)    -57.8677         0.011092   
    187. D(H  35,C  19,C  16,H  17)     57.9074         0.011092   
    188. D(H  35,C  19,C  16,C  13)   -179.9794         0.011092   
    189. D(H  21,C  19,C  16,H  18)     62.2519         0.011092   
    190. D(H  21,C  19,C  16,H  17)    178.0271         0.011092   
    191. D(H  21,C  19,C  16,C  13)    -59.8598         0.011092   
    192. D(H  20,C  19,C  16,H  18)   -177.9884         0.011092   
    193. D(H  20,C  19,C  16,H  17)    -62.2132         0.011092   
    194. D(H  20,C  19,C  16,C  13)     59.8999         0.011092   
    195. D(C  25,C  22,C   6,C   5)    179.9724         0.011435   
    196. D(H  24,C  22,C   6,C   7)   -123.7588         0.011435   
    197. D(H  24,C  22,C   6,C   5)     56.2374         0.011435   
    198. D(H  23,C  22,C   6,C   5)    -56.2899         0.011435   
    199. D(C  25,C  22,C   6,C   7)     -0.0239         0.011435   
    200. D(H  23,C  22,C   6,C   7)    123.7138         0.011435   
    201. D(C  28,C  25,C  22,H  24)    -56.9814         0.011104   
    202. D(C  28,C  25,C  22,C   6)    179.9975         0.011104   
    203. D(H  27,C  25,C  22,H  24)   -178.6794         0.011104   
    204. D(H  27,C  25,C  22,H  23)    -64.7246         0.011104   
    205. D(H  27,C  25,C  22,C   6)     58.2995         0.011104   
    206. D(H  26,C  25,C  22,H  24)     64.7160         0.011104   
    207. D(C  28,C  25,C  22,H  23)     56.9734         0.011104   
    208. D(H  26,C  25,C  22,H  23)    178.6708         0.011104   
    209. D(H  26,C  25,C  22,C   6)    -58.3051         0.011104   
    210. D(C  31,C  28,C  25,H  27)    -57.8178         0.010858   
    211. D(C  31,C  28,C  25,H  26)     57.8028         0.010858   
    212. D(C  31,C  28,C  25,C  22)    179.9905         0.010858   
    213. D(H  30,C  28,C  25,H  27)    179.8526         0.010858   
    214. D(H  30,C  28,C  25,H  26)    -64.5268         0.010858   
    215. D(H  30,C  28,C  25,C  22)     57.6609         0.010858   
    216. D(H  29,C  28,C  25,H  27)     64.5111         0.010858   
    217. D(H  29,C  28,C  25,H  26)   -179.8683         0.010858   
    218. D(H  29,C  28,C  25,C  22)    -57.6806         0.010858   
    219. D(H  36,C  31,C  28,H  30)    -57.9050         0.011088   
    220. D(H  36,C  31,C  28,H  29)     57.8659         0.011088   
    221. D(H  36,C  31,C  28,C  25)    179.9805         0.011088   
    222. D(H  33,C  31,C  28,H  30)     62.2297         0.011088   
    223. D(H  33,C  31,C  28,H  29)    178.0005         0.011088   
    224. D(H  33,C  31,C  28,C  25)    -59.8849         0.011088   
    225. D(H  32,C  31,C  28,H  30)   -178.0387         0.011088   
    226. D(H  32,C  31,C  28,H  29)    -62.2678         0.011088   
    227. D(H  32,C  31,C  28,C  25)     59.8467         0.011088   
    228. D(C  42,C  37,C   5,C   6)     -0.0055         0.001500   
    229. D(C  42,C  37,C   5,C   4)    179.9667         0.001500   
    230. D(C  38,C  37,C   5,C   6)    179.9824         0.001500   
    231. D(C  38,C  37,C   5,C   4)     -0.0453         0.001500   
    232. D(H  45,C  38,C  37,C  42)   -179.9982         0.022489   
    233. D(H  45,C  38,C  37,C  34)     -0.0009         0.022489   
    234. D(C  39,C  38,C  37,C  42)      0.0028         0.022489   
    235. D(C  39,C  38,C  37,C  34)   -179.9998         0.022489   
    236. D(H  47,C  39,C  38,H  45)      0.0003         0.026236   
    237. D(H  47,C  39,C  38,C  37)    179.9993         0.026236   
    238. D(C  40,C  39,C  38,H  45)    179.9998         0.026236   
    239. D(C  40,C  39,C  38,C  37)     -0.0012         0.026236   
    240. D(H  43,C  40,C  39,H  47)     -0.0001         0.025017   
    241. D(H  43,C  40,C  39,C  38)   -179.9997         0.025017   
    242. D(C  41,C  40,C  39,H  47)    179.9992         0.025017   
    243. D(C  41,C  40,C  39,C  38)     -0.0003         0.025017   
    244. D(H  44,C  41,C  40,H  43)     -0.0002         0.025007   
    245. D(H  44,C  41,C  40,C  39)   -179.9995         0.025007   
    246. D(C  42,C  41,C  40,H  43)    179.9995         0.025007   
    247. D(C  42,C  41,C  40,C  39)      0.0001         0.025007   
    248. D(H  46,C  42,C  41,H  44)      0.0005         0.026236   
    249. D(H  46,C  42,C  41,C  40)   -179.9991         0.026236   
    250. D(C  37,C  42,C  41,H  44)   -179.9988         0.026236   
    251. D(C  37,C  42,C  41,C  40)      0.0016         0.026236   
    252. D(H  46,C  42,C  37,C  38)    179.9977         0.022497   
    253. D(H  46,C  42,C  37,C  34)      0.0003         0.022497   
    254. D(C  41,C  42,C  37,C  38)     -0.0030         0.022497   
    255. D(C  41,C  42,C  37,C  34)    179.9997         0.022497   
    -----------------------------------------------------------------

Number of atoms                         .... 48
Number of degrees of freedom            .... 255

         *************************************************************
         *                GEOMETRY OPTIMIZATION CYCLE   1            *
         *************************************************************
---------------------------------
CARTESIAN COORDINATES (ANGSTROEM)
---------------------------------
  C     -2.775358    0.046208   -0.011751
  C      2.820255    0.009685   -0.009139
  C     -1.416126   -0.010274   -0.011347
  C     -0.684648   -1.267420   -0.014386
  C      0.690490   -1.196208   -0.013389
  C      1.407047    0.036197   -0.009702
  C      0.687689    1.279681   -0.006696
  C     -0.690449    1.243926   -0.007610
  H      1.277162   -2.115524   -0.015523
  H     -1.268852    2.166837   -0.005472
  C     -1.480792   -2.555886   -0.018568
  H     -2.154671   -2.540740   -0.897146
  H     -2.157395   -2.544715    0.857974
  C     -0.681275   -3.861204   -0.020309
  H     -0.017862   -3.890851   -0.904058
  H     -0.020683   -3.894869    0.865412
  C     -1.579450   -5.104210   -0.024628
  H     -2.246605   -5.074150    0.856659
  H     -2.243576   -5.070198   -0.908059
  C     -0.790051   -6.415615   -0.026228
  H     -0.143052   -6.494872    0.864454
  H     -0.139497   -6.490536   -0.914694
  C      1.465882    2.581608   -0.002726
  H      2.141040    2.571608    0.872700
  H      2.142655    2.575943   -0.876938
  C      0.653075    3.878460   -0.000281
  H     -0.008622    3.909115   -0.885508
  H     -0.010403    3.904750    0.883750
  C      1.540606    5.129343    0.003729
  H      2.205493    5.100499    0.886927
  H      2.207479    5.104735   -0.878099
  C      0.741236    6.434757    0.005976
  H      0.090513    6.504407    0.894697
  H      0.093010    6.509016   -0.884195
  C      4.046121   -0.034213   -0.010003
  H     -1.460807   -7.289936   -0.029701
  H      1.404972    7.314510    0.009190
  C      5.469175   -0.089851   -0.009729
  C      6.140470   -1.334126   -0.012366
  C      7.533422   -1.384522   -0.012085
  C      8.284577   -0.203110   -0.009213
  C      7.630744    1.034879   -0.006618
  C      6.238242    1.096428   -0.006877
  H      9.376146   -0.247118   -0.009009
  H      8.211876    1.960203   -0.004379
  H      5.552872   -2.254102   -0.014605
  H      5.726741    2.060809   -0.004870
  H      8.038460   -2.353485   -0.014131

----------------------------
CARTESIAN COORDINATES (A.U.)
----------------------------
  NO LB      ZA    FRAG     MASS         X           Y           Z
   0 C     6.0000    0    12.011   -5.244666    0.087321   -0.022207
   1 C     6.0000    0    12.011    5.329509    0.018301   -0.017270
   2 C     6.0000    0    12.011   -2.676089   -0.019416   -0.021442
   3 C     6.0000    0    12.011   -1.293797   -2.395076   -0.027185
   4 C     6.0000    0    12.011    1.304836   -2.260506   -0.025301
   5 C     6.0000    0    12.011    2.658933    0.068402   -0.018335
   6 C     6.0000    0    12.011    1.299543    2.418247   -0.012654
   7 C     6.0000    0    12.011   -1.304760    2.350680   -0.014381
   8 H     1.0000    0     1.008    2.413486   -3.997762   -0.029334
   9 H     1.0000    0     1.008   -2.397782    4.094729   -0.010341
  10 C     6.0000    0    12.011   -2.798290   -4.829924   -0.035089
  11 H     1.0000    0     1.008   -4.071738   -4.801303   -1.695361
  12 H     1.0000    0     1.008   -4.076886   -4.808815    1.621335
  13 C     6.0000    0    12.011   -1.287423   -7.296619   -0.038379
  14 H     1.0000    0     1.008   -0.033755   -7.352643   -1.708423
  15 H     1.0000    0     1.008   -0.039085   -7.360237    1.635391
  16 C     6.0000    0    12.011   -2.984727   -9.645560   -0.046540
  17 H     1.0000    0     1.008   -4.245468   -9.588753    1.618850
  18 H     1.0000    0     1.008   -4.239743   -9.581286   -1.715982
  19 C     6.0000    0    12.011   -1.492981  -12.123756   -0.049565
  20 H     1.0000    0     1.008   -0.270330  -12.273529    1.633581
  21 H     1.0000    0     1.008   -0.263612  -12.265336   -1.728521
  22 C     6.0000    0    12.011    2.770115    4.878533   -0.005151
  23 H     1.0000    0     1.008    4.045979    4.859636    1.649164
  24 H     1.0000    0     1.008    4.049030    4.867828   -1.657173
  25 C     6.0000    0    12.011    1.234134    7.329228   -0.000530
  26 H     1.0000    0     1.008   -0.016293    7.387157   -1.673368
  27 H     1.0000    0     1.008   -0.019659    7.378908    1.670046
  28 C     6.0000    0    12.011    2.911324    9.693053    0.007046
  29 H     1.0000    0     1.008    4.167777    9.638546    1.676049
  30 H     1.0000    0     1.008    4.171531    9.646551   -1.659366
  31 C     6.0000    0    12.011    1.400732   12.159929    0.011293
  32 H     1.0000    0     1.008    0.171045   12.291547    1.690732
  33 H     1.0000    0     1.008    0.175763   12.300257   -1.670887
  34 C     6.0000    0    12.011    7.646061   -0.064654   -0.018903
  35 H     1.0000    0     1.008   -2.760524  -13.775982   -0.056127
  36 H     1.0000    0     1.008    2.655013   13.822421    0.017366
  37 C     6.0000    0    12.011   10.335243   -0.169794   -0.018386
  38 C     6.0000    0    12.011   11.603807   -2.521134   -0.023368
  39 C     6.0000    0    12.011   14.236105   -2.616367   -0.022838
  40 C     6.0000    0    12.011   15.655582   -0.383822   -0.017411
  41 C     6.0000    0    12.011   14.420016    1.955637   -0.012506
  42 C     6.0000    0    12.011   11.788569    2.071948   -0.012996
  43 H     1.0000    0     1.008   17.718348   -0.466986   -0.017025
  44 H     1.0000    0     1.008   15.518196    3.704247   -0.008274
  45 H     1.0000    0     1.008   10.493407   -4.259635   -0.027600
  46 H     1.0000    0     1.008   10.821971    3.894365   -0.009204
  47 H     1.0000    0     1.008   15.190487   -4.447442   -0.026704

--------------------------------
INTERNAL COORDINATES (ANGSTROEM)
--------------------------------
 C      0   0   0     0.000000000000     0.00000000     0.00000000
 C      1   0   0     5.595732004957     0.00000000     0.00000000
 C      1   2   0     1.360405191013     2.00560026     0.00000000
 C      3   1   2     1.454469918689   122.57268791   179.87546019
 C      4   3   1     1.376980208531   117.22867989   180.01155142
 C      2   1   3     1.413456756580     0.70078342   180.04362844
 C      6   2   5     1.436571908484   121.12406587   180.00302186
 C      7   6   2     1.378601847162   118.56311133   179.99054662
 H      5   4   3     1.090564627606   119.57987629   179.99649821
 H      8   7   6     1.089182455298   120.58966669   180.00407885
 C      4   3   1     1.514598143512   118.09498938     0.00000000
 H     11   4   3     1.107357915994   108.08554859    56.53583569
 H     11   4   3     1.107358659164   108.08373428   303.58115156
 C     11   4   3     1.530714496630   116.80037928   180.05817528
 H     14  11   4     1.105444583233   109.70863920   301.77526421
 H     14  11   4     1.105448465363   109.70533933    58.22859475
 C     14  11   4     1.533558086370   112.66110580   180.00330784
 H     17  14  11     1.105742166080   109.21375501   302.33041719
 H     17  14  11     1.105743859162   109.21334405    57.68537949
 C     17  14  11     1.530665064032   113.10306867   180.00694348
 H     20  17  14     1.103723193693   111.28414541    59.89992599
 H     20  17  14     1.103723017427   111.28296697   300.14024706
 C      7   6   2     1.516777664683   119.08294731     0.00000000
 H     23   7   6     1.105580701721   107.91606339   303.71010560
 H     23   7   6     1.105577037297   107.91447122    56.23744248
 C     23   7   6     1.530518232004   117.05478261   179.97241633
 H     26  23   7     1.105627075376   109.87974588   301.69490823
 H     26  23   7     1.105624501298   109.88387152    58.29948684
 C     26  23   7     1.533764592831   112.56596694   179.99750909
 H     29  26  23     1.105868820719   109.19151540   302.31939451
 H     29  26  23     1.105867991045   109.19103182    57.66089109
 C     29  26  23     1.530720359307   113.16229135   179.99053427
 H     32  29  26     1.103682689923   111.27816991    59.84672670
 H     32  29  26     1.103682976140   111.27899091   300.11506728
 C      2   1   3     1.226652884749   178.32176436     2.01506262
 H     20  17  14     1.101980315981   111.45985788   180.02058279
 H     32  29  26     1.102053733118   111.48590918   179.98045027
 C     35   2   6     1.424140703761   179.80499042   341.01984994
 C     38  35   2     1.413812362503   120.58607539    15.40693246
 C     39  38  35     1.393863497676   120.41908479   180.00015779
 C     40  39  38     1.399991502332   120.37661057     0.00000000
 C     41  40  39     1.400042963895   119.71107387     0.00000000
 C     42  41  40     1.393861490907   120.37116468     0.00000000
 H     41  40  39     1.092455893739   120.13987717   180.00034672
 H     42  41  40     1.092677705168   120.02965548   180.00046773
 H     39  38  35     1.091618719799   119.08613018     0.00000000
 H     43  42  41     1.091636261109   120.47192886   180.00086835
 H     40  39  38     1.092683124259   119.60108407   179.99928286

---------------------------
INTERNAL COORDINATES (A.U.)
---------------------------
 C      0   0   0     0.000000000000     0.00000000     0.00000000
 C      1   0   0    10.574401008187     0.00000000     0.00000000
 C      1   2   0     2.570793242180     2.00560026     0.00000000
 C      3   1   2     2.748549816349   122.57268791   179.87546019
 C      4   3   1     2.602115485954   117.22867989   180.01155142
 C      2   1   3     2.671046172077     0.70078342   180.04362844
 C      6   2   5     2.714727478719   121.12406587   180.00302186
 C      7   6   2     2.605179938854   118.56311133   179.99054662
 H      5   4   3     2.060868477517   119.57987629   179.99649821
 H      8   7   6     2.058256550386   120.58966669   180.00407885
 C      4   3   1     2.862175694184   118.09498938     0.00000000
 H     11   4   3     2.092603193458   108.08554859    56.53583569
 H     11   4   3     2.092604597845   108.08373428   303.58115156
 C     11   4   3     2.892631187855   116.80037928   180.05817528
 H     14  11   4     2.088987518538   109.70863920   301.77526421
 H     14  11   4     2.088994854700   109.70533933    58.22859475
 C     14  11   4     2.898004793701   112.66110580   180.00330784
 H     17  14  11     2.089549868619   109.21375501   302.33041719
 H     17  14  11     2.089553068082   109.21334405    57.68537949
 C     17  14  11     2.892537773781   113.10306867   180.00694348
 H     20  17  14     2.085734563736   111.28414541    59.89992599
 H     20  17  14     2.085734230642   111.28296697   300.14024706
 C      7   6   2     2.866294392300   119.08294731     0.00000000
 H     23   7   6     2.089244745201   107.91606339   303.71010560
 H     23   7   6     2.089237820443   107.91447122    56.23744248
 C     23   7   6     2.892260301461   117.05478261   179.97241633
 H     26  23   7     2.089332378710   109.87974588   301.69490823
 H     26  23   7     2.089327514406   109.88387152    58.29948684
 C     26  23   7     2.898395034356   112.56596694   179.99750909
 H     29  26  23     2.089789211202   109.19151540   302.31939451
 H     29  26  23     2.089787643345   109.19103182    57.66089109
 C     29  26  23     2.892642266708   113.16229135   179.99053427
 H     32  29  26     2.085658022704   111.27816991    59.84672670
 H     32  29  26     2.085658563575   111.27899091   300.11506728
 C      2   1   3     2.318038013559   178.32176436     2.01506262
 H     20  17  14     2.082441002175   111.45985788   180.02058279
 H     32  29  26     2.082579740458   111.48590918   179.98045027
 C     35   2   6     2.691235906278   179.80499042   341.01984994
 C     38  35   2     2.671718169883   120.58607539    15.40693246
 C     39  38  35     2.634020278678   120.41908479   180.00015779
 C     40  39  38     2.645600529224   120.37661057     0.00000000
 C     41  40  39     2.645697777485   119.71107387     0.00000000
 C     42  41  40     2.634016486433   120.37116468     0.00000000
 H     41  40  39     2.064442452556   120.13987717   180.00034672
 H     42  41  40     2.064861615409   120.02965548   180.00046773
 H     39  38  35     2.062860423082   119.08613018     0.00000000
 H     43  42  41     2.062893571354   120.47192886   180.00086835
 H     40  39  38     2.064871856006   119.60108407   179.99928286

---------------------
BASIS SET INFORMATION
---------------------
There are 2 groups of distinct atoms

 Group   1 Type C   : 10s5p1d contracted to 6s2p1d pattern {511111/41/1}
 Group   2 Type H   : 6s1p contracted to 4s1p pattern {3111/1}

Atom   0C    basis set group =>   1
Atom   1C    basis set group =>   1
Atom   2C    basis set group =>   1
Atom   3C    basis set group =>   1
Atom   4C    basis set group =>   1
Atom   5C    basis set group =>   1
Atom   6C    basis set group =>   1
Atom   7C    basis set group =>   1
Atom   8H    basis set group =>   2
Atom   9H    basis set group =>   2
Atom  10C    basis set group =>   1
Atom  11H    basis set group =>   2
Atom  12H    basis set group =>   2
Atom  13C    basis set group =>   1
Atom  14H    basis set group =>   2
Atom  15H    basis set group =>   2
Atom  16C    basis set group =>   1
Atom  17H    basis set group =>   2
Atom  18H    basis set group =>   2
Atom  19C    basis set group =>   1
Atom  20H    basis set group =>   2
Atom  21H    basis set group =>   2
Atom  22C    basis set group =>   1
Atom  23H    basis set group =>   2
Atom  24H    basis set group =>   2
Atom  25C    basis set group =>   1
Atom  26H    basis set group =>   2
Atom  27H    basis set group =>   2
Atom  28C    basis set group =>   1
Atom  29H    basis set group =>   2
Atom  30H    basis set group =>   2
Atom  31C    basis set group =>   1
Atom  32H    basis set group =>   2
Atom  33H    basis set group =>   2
Atom  34C    basis set group =>   1
Atom  35H    basis set group =>   2
Atom  36H    basis set group =>   2
Atom  37C    basis set group =>   1
Atom  38C    basis set group =>   1
Atom  39C    basis set group =>   1
Atom  40C    basis set group =>   1
Atom  41C    basis set group =>   1
Atom  42C    basis set group =>   1
Atom  43H    basis set group =>   2
Atom  44H    basis set group =>   2
Atom  45H    basis set group =>   2
Atom  46H    basis set group =>   2
Atom  47H    basis set group =>   2
---------------------------------
AUXILIARY/J BASIS SET INFORMATION
---------------------------------
There are 2 groups of distinct atoms

 Group   1 Type C   : 12s5p4d2f1g contracted to 6s4p3d1f1g pattern {711111/2111/211/2/1}
 Group   2 Type H   : 5s2p1d contracted to 3s1p1d pattern {311/2/1}

Atom   0C    basis set group =>   1
Atom   1C    basis set group =>   1
Atom   2C    basis set group =>   1
Atom   3C    basis set group =>   1
Atom   4C    basis set group =>   1
Atom   5C    basis set group =>   1
Atom   6C    basis set group =>   1
Atom   7C    basis set group =>   1
Atom   8H    basis set group =>   2
Atom   9H    basis set group =>   2
Atom  10C    basis set group =>   1
Atom  11H    basis set group =>   2
Atom  12H    basis set group =>   2
Atom  13C    basis set group =>   1
Atom  14H    basis set group =>   2
Atom  15H    basis set group =>   2
Atom  16C    basis set group =>   1
Atom  17H    basis set group =>   2
Atom  18H    basis set group =>   2
Atom  19C    basis set group =>   1
Atom  20H    basis set group =>   2
Atom  21H    basis set group =>   2
Atom  22C    basis set group =>   1
Atom  23H    basis set group =>   2
Atom  24H    basis set group =>   2
Atom  25C    basis set group =>   1
Atom  26H    basis set group =>   2
Atom  27H    basis set group =>   2
Atom  28C    basis set group =>   1
Atom  29H    basis set group =>   2
Atom  30H    basis set group =>   2
Atom  31C    basis set group =>   1
Atom  32H    basis set group =>   2
Atom  33H    basis set group =>   2
Atom  34C    basis set group =>   1
Atom  35H    basis set group =>   2
Atom  36H    basis set group =>   2
Atom  37C    basis set group =>   1
Atom  38C    basis set group =>   1
Atom  39C    basis set group =>   1
Atom  40C    basis set group =>   1
Atom  41C    basis set group =>   1
Atom  42C    basis set group =>   1
Atom  43H    basis set group =>   2
Atom  44H    basis set group =>   2
Atom  45H    basis set group =>   2
Atom  46H    basis set group =>   2
Atom  47H    basis set group =>   2


           ************************************************************
           *        Program running with 16 parallel MPI-processes    *
           *              working on a common directory               *
           ************************************************************
------------------------------------------------------------------------------
                           ORCA GTO INTEGRAL CALCULATION
                           -- RI-GTO INTEGRALS CHOSEN --
------------------------------------------------------------------------------
------------------------------------------------------------------------------
                   ___                                                        
                  /   \      - P O W E R E D   B Y -                         
                 /     \                                                     
                 |  |  |   _    _      __       _____    __    __             
                 |  |  |  | |  | |    /  \     |  _  \  |  |  /  |          
                  \  \/   | |  | |   /    \    | | | |  |  | /  /          
                 / \  \   | |__| |  /  /\  \   | |_| |  |  |/  /          
                |  |  |   |  __  | /  /__\  \  |    /   |      \           
                |  |  |   | |  | | |   __   |  |    \   |  |\   \          
                \     /   | |  | | |  |  |  |  | |\  \  |  | \   \       
                 \___/    |_|  |_| |__|  |__|  |_| \__\ |__|  \__/        
                                                                              
                      - O R C A' S   B I G   F R I E N D -                    
                                      &                                       
                       - I N T E G R A L  F E E D E R -                       
                                                                              
 v1 FN, 2020, v2 2021                                                         
------------------------------------------------------------------------------


Reading SHARK input file opt_EPRII.SHARKINP.tmp ... ok
----------------------
SHARK INTEGRAL PACKAGE
----------------------

Number of atoms                             ...     48
Number of basis functions                   ...    566
Number of shells                            ...    332
Maximum angular momentum                    ...      2
Integral batch strategy                     ... SHARK/LIBINT Hybrid
RI-J (if used) integral strategy            ... SPLIT-RIJ (Revised 2003 algorithm where possible)
Printlevel                                  ...      1
Contraction scheme used                     ... SEGMENTED contraction
Coulomb Range Separation                    ... NOT USED
Exchange Range Separation                   ... NOT USED
Finite Nucleus Model                        ... NOT USED
Auxiliary Coulomb fitting basis             ... AVAILABLE
   # of basis functions in Aux-J            ...   1402
   # of shells in Aux-J                     ...    470
   Maximum angular momentum in Aux-J        ...      4
Auxiliary J/K fitting basis                 ... NOT available
Auxiliary Correlation fitting basis         ... NOT available
Auxiliary 'external' fitting basis          ... NOT available
Integral threshold                          ...     2.500000e-11
Primitive cut-off                           ...     2.500000e-12
Primitive pair pre-selection threshold      ...     2.500000e-12

Calculating pre-screening integrals         ... done (  0.0 sec) Dimension = 332
Organizing shell pair data                  ... done (  0.2 sec)
Shell pair information
Total number of shell pairs                 ...     55278
Shell pairs after pre-screening             ...     28745
Total number of primitive shell pairs       ...    148139
Primitive shell pairs kept                  ...     54169
          la=0 lb=0:  13198 shell pairs
          la=1 lb=0:   9885 shell pairs
          la=1 lb=1:   1763 shell pairs
          la=2 lb=0:   2722 shell pairs
          la=2 lb=1:   1024 shell pairs
          la=2 lb=2:    153 shell pairs

Calculating one electron integrals          ... done (  0.0 sec)
Calculating RI/J V-Matrix + Cholesky decomp.... done (  0.2 sec)
Calculating Nuclear repulsion               ... done (  0.0 sec) ENN=   1629.446539159833 Eh

SHARK setup successfully completed in   1.0 seconds

Maximum memory used throughout the entire GTOINT-calculation: 39.8 MB


           ************************************************************
           *        Program running with 16 parallel MPI-processes    *
           *              working on a common directory               *
           ************************************************************
-------------------------------------------------------------------------------
                                 ORCA SCF
-------------------------------------------------------------------------------

------------
SCF SETTINGS
------------
Hamiltonian:
 Density Functional     Method          .... DFT(GTOs)
 Exchange Functional    Exchange        .... B88
   X-Alpha parameter    XAlpha          ....  0.666667
   Becke's b parameter  XBeta           ....  0.004200
 Correlation Functional Correlation     .... LYP
 LDA part of GGA corr.  LDAOpt          .... VWN-5
 Gradients option       PostSCFGGA      .... off
 Hybrid DFT is turned on
   Fraction HF Exchange ScalHFX         ....  0.200000
   Scaling of DF-GGA-X  ScalDFX         ....  0.720000
   Scaling of DF-GGA-C  ScalDFC         ....  0.810000
   Scaling of DF-LDA-C  ScalLDAC        ....  1.000000
   Perturbative correction              ....  0.000000
   Density functional embedding theory  .... OFF
   NL short-range parameter             ....  4.800000
 RI-approximation to the Coulomb term is turned on
   Number of AuxJ basis functions       .... 1402
   RIJ-COSX (HFX calculated with COS-X)).... on


General Settings:
 Integral files         IntName         .... opt_EPRII
 Hartree-Fock type      HFTyp           .... UHF
 Total Charge           Charge          ....    0
 Multiplicity           Mult            ....    2
 Number of Electrons    NEL             ....  163
 Basis Dimension        Dim             ....  566
 Nuclear Repulsion      ENuc            ....   1629.4465391598 Eh

Convergence Acceleration:
 DIIS                   CNVDIIS         .... on
   Start iteration      DIISMaxIt       ....    12
   Startup error        DIISStart       ....  0.200000
   # of expansion vecs  DIISMaxEq       ....     5
   Bias factor          DIISBfac        ....   1.050
   Max. coefficient     DIISMaxC        ....  10.000
 Trust-Rad. Augm. Hess. CNVTRAH         .... auto
   Auto Start mean grad. ratio tolernc. ....  1.125000
   Auto Start start iteration           ....    20
   Auto Start num. interpolation iter.  ....    10
   Max. Number of Micro iterations      ....    16
   Max. Number of Macro iterations      .... Maxiter - #DIIS iter
   Number of Davidson start vectors     ....     2
   Converg. threshold I  (grad. norm)   ....   1.000e-05
   Converg. threshold II (energy diff.) ....   1.000e-08
   Grad. Scal. Fac. for Micro threshold ....   0.100
   Minimum threshold for Micro iter.    ....   0.010
   NR start threshold (gradient norm)   ....   0.001
   Initial trust radius                 ....   0.400
   Minimum AH scaling param. (alpha)    ....   1.000
   Maximum AH scaling param. (alpha)    .... 1000.000
   Orbital update algorithm             .... Taylor
   White noise on init. David. guess    .... on
   Maximum white noise                  ....   0.010
   Quad. conv. algorithm                .... NR
 SOSCF                  CNVSOSCF        .... off
 Level Shifting         CNVShift        .... on
   Level shift para.    LevelShift      ....    0.2500
   Turn off err/grad.   ShiftErr        ....    0.0010
 Zerner damping         CNVZerner       .... off
 Static damping         CNVDamp         .... on
   Fraction old density DampFac         ....    0.7000
   Max. Damping (<1)    DampMax         ....    0.9800
   Min. Damping (>=0)   DampMin         ....    0.0000
   Turn off err/grad.   DampErr         ....    0.1000
 Fernandez-Rico         CNVRico         .... off

SCF Procedure:
 Maximum # iterations   MaxIter         ....   125
 SCF integral mode      SCFMode         .... Direct
   Integral package                     .... SHARK and LIBINT hybrid scheme
 Reset frequency        DirectResetFreq ....    20
 Integral Threshold     Thresh          ....  2.500e-11 Eh
 Primitive CutOff       TCut            ....  2.500e-12 Eh

Convergence Tolerance:
 Convergence Check Mode ConvCheckMode   .... Total+1el-Energy
 Convergence forced     ConvForced      .... 0
 Energy Change          TolE            ....  1.000e-08 Eh
 1-El. energy change                    ....  1.000e-05 Eh
 DIIS Error             TolErr          ....  5.000e-07


Diagonalization of the overlap matrix:
Smallest eigenvalue                        ... 7.359e-05
Time for diagonalization                   ...    0.063 sec
Threshold for overlap eigenvalues          ... 1.000e-08
Number of eigenvalues below threshold      ... 0
Time for construction of square roots      ...    0.060 sec
Total time needed                          ...    0.125 sec

Time for model grid setup =    0.409 sec

------------------------------
INITIAL GUESS: MODEL POTENTIAL
------------------------------
Loading Hartree-Fock densities                     ... done
Calculating cut-offs                               ... done
Initializing the effective Hamiltonian             ... done
Setting up the integral package (SHARK)            ... done
Starting the Coulomb interaction                   ... done (   0.3 sec)
Reading the grid                                   ... done
Mapping shells                                     ... done
Starting the XC term evaluation                    ... done (   0.2 sec)
  promolecular density results
     # of electrons  =    162.999359129
     EX              =   -125.515546427
     EC              =     -5.360179565
     EX+EC           =   -130.875725992
Transforming the Hamiltonian                       ... done (   0.0 sec)
Diagonalizing the Hamiltonian                      ... done (   0.1 sec)
Back transforming the eigenvectors                 ... done (   0.0 sec)
Now organizing SCF variables                       ... done
                      ------------------
                      INITIAL GUESS DONE (   1.2 sec)
                      ------------------
-------------------
DFT GRID GENERATION
-------------------

General Integration Accuracy     IntAcc      ... 4.388
Radial Grid Type                 RadialGrid  ... OptM3 with GC (2021)
Angular Grid (max. ang.)         AngularGrid ... 4 (Lebedev-302)
Angular grid pruning method      GridPruning ... 4 (adaptive)
Weight generation scheme         WeightScheme... Becke
Basis function cutoff            BFCut       ... 1.0000e-11
Integration weight cutoff        WCut        ... 1.0000e-14
Angular grids for H and He will be reduced by one unit
Partially contracted basis set               ... off
Rotationally invariant grid construction     ... off

Total number of grid points                  ...   217077
Total number of batches                      ...     3415
Average number of points per batch           ...       63
Average number of grid points per atom       ...     4522
Time for grid setup =    1.383 sec

--------------------
COSX GRID GENERATION
--------------------

GRIDX 1
-------
General Integration Accuracy     IntAcc      ... 3.816
Radial Grid Type                 RadialGrid  ... OptM3 with GC (2021)
Angular Grid (max. ang.)         AngularGrid ... 1 (Lebedev-50)
Angular grid pruning method      GridPruning ... 4 (adaptive)
Weight generation scheme         WeightScheme... Becke
Basis function cutoff            BFCut       ... 1.0000e-11
Integration weight cutoff        WCut        ... 1.0000e-14
Angular grids for H and He will be reduced by one unit
Partially contracted basis set               ... on
Rotationally invariant grid construction     ... off

Total number of grid points                  ...    27664
Total number of batches                      ...      458
Average number of points per batch           ...       60
Average number of grid points per atom       ...      576
UseSFitting                                  ... on

GRIDX 2
-------
General Integration Accuracy     IntAcc      ... 4.020
Radial Grid Type                 RadialGrid  ... OptM3 with GC (2021)
Angular Grid (max. ang.)         AngularGrid ... 2 (Lebedev-110)
Angular grid pruning method      GridPruning ... 4 (adaptive)
Weight generation scheme         WeightScheme... Becke
Basis function cutoff            BFCut       ... 1.0000e-11
Integration weight cutoff        WCut        ... 1.0000e-14
Angular grids for H and He will be reduced by one unit
Partially contracted basis set               ... on
Rotationally invariant grid construction     ... off

Total number of grid points                  ...    58871
Total number of batches                      ...      945
Average number of points per batch           ...       62
Average number of grid points per atom       ...     1226
UseSFitting                                  ... on

GRIDX 3
-------
General Integration Accuracy     IntAcc      ... 4.338
Radial Grid Type                 RadialGrid  ... OptM3 with GC (2021)
Angular Grid (max. ang.)         AngularGrid ... 3 (Lebedev-194)
Angular grid pruning method      GridPruning ... 4 (adaptive)
Weight generation scheme         WeightScheme... Becke
Basis function cutoff            BFCut       ... 1.0000e-11
Integration weight cutoff        WCut        ... 1.0000e-14
Angular grids for H and He will be reduced by one unit
Partially contracted basis set               ... on
Rotationally invariant grid construction     ... off

Total number of grid points                  ...   128758
Total number of batches                      ...     2038
Average number of points per batch           ...       63
Average number of grid points per atom       ...     2682
UseSFitting                                  ... on

Time for X-Grid setup             =    2.721 sec

--------------
SCF ITERATIONS
--------------
ITER       Energy         Delta-E        Max-DP      RMS-DP      [F,P]     Damp
               ***  Starting incremental Fock matrix formation  ***
  0   -890.2880437289   0.000000000000 0.06826349  0.00080797  0.0797543 0.7000
  1   -890.5321945405  -0.244150811630 0.03974524  0.00055720  0.0426718 0.7000
                               ***Turning on DIIS***
  2   -890.6357581544  -0.103563613924 0.07611556  0.00108324  0.0166919 0.0000
  3   -890.7796605100  -0.143902355612 0.02598233  0.00035345  0.0282587 0.0000
  4   -890.8240656297  -0.044405119618 0.02037384  0.00016433  0.0076281 0.0000
  5   -890.8263630006  -0.002297370989 0.01285621  0.00007449  0.0070460 0.0000
  6   -890.8268672025  -0.000504201812 0.00582294  0.00003548  0.0028459 0.0000
  7   -890.8270757027  -0.000208500295 0.00480781  0.00002101  0.0020499 0.0000
  8   -890.8271997969  -0.000124094196 0.00367007  0.00001554  0.0017089 0.0000
  9   -890.8272760727  -0.000076275737 0.00304681  0.00001340  0.0010666 0.0000
 10   -890.8273253533  -0.000049280662 0.00312227  0.00001651  0.0006511 0.0000
               *** Restarting incremental Fock matrix formation ***
                                   *** Resetting DIIS ***
 11   -890.8276390061  -0.000313652728 0.00192927  0.00001567  0.0003988 0.0000
 12   -890.8276381966   0.000000809474 0.00083666  0.00000413  0.0006802 0.0000
 13   -890.8276424552  -0.000004258571 0.00035527  0.00000142  0.0001191 0.0000
 14   -890.8276427744  -0.000000319247 0.00021273  0.00000121  0.0001046 0.0000
 15   -890.8276429963  -0.000000221918 0.00010624  0.00000068  0.0000772 0.0000
 16   -890.8276430657  -0.000000069353 0.00007554  0.00000049  0.0000463 0.0000
 17   -890.8276430923  -0.000000026631 0.00002633  0.00000021  0.0000163 0.0000
 18   -890.8276431056  -0.000000013255 0.00006270  0.00000027  0.0000062 0.0000
 19   -890.8276431176  -0.000000012031 0.00003835  0.00000017  0.0000047 0.0000
 20   -890.8276431226  -0.000000004977 0.00005910  0.00000024  0.0000035 0.0000
 21   -890.8276431310  -0.000000008396 0.00004119  0.00000015  0.0000031 0.0000
 22   -890.8276431363  -0.000000005335 0.00000863  0.00000008  0.0000031 0.0000
 23   -890.8276431404  -0.000000004047 0.00003604  0.00000015  0.0000027 0.0000
 24   -890.8276431299   0.000000010504 0.00002736  0.00000011  0.0000023 0.0000
 25   -890.8276431408  -0.000000010920 0.00001419  0.00000009  0.0000021 0.0000
 26   -890.8276431407   0.000000000046 0.00002817  0.00000014  0.0000019 0.0000
 27   -890.8276431400   0.000000000779 0.00001744  0.00000008  0.0000016 0.0000
                 **** Energy Check signals convergence ****

               *****************************************************
               *                     SUCCESS                       *
               *           SCF CONVERGED AFTER  28 CYCLES          *
               *****************************************************

Old exchange energy                            =    -25.565639506 Eh
New exchange energy                            =    -25.565626342 Eh
Exchange energy change after final integration =      0.000013164 Eh
Total energy after final integration           =   -890.827629968 Eh
Final COS-X integration done in                =     9.782 sec

----------------
TOTAL SCF ENERGY
----------------

Total Energy       :         -890.82762997 Eh          -24240.65218 eV

Components:
Nuclear Repulsion  :         1629.44653916 Eh           44339.49451 eV
Electronic Energy  :        -2520.27416913 Eh          -68580.14669 eV
One Electron Energy:        -4436.41054679 Eh         -120720.86831 eV
Two Electron Energy:         1916.13637766 Eh           52140.72162 eV
Max COSX asymmetry :            0.00000265 Eh               0.00007 eV

Virial components:
Potential Energy   :        -1774.62713596 Eh          -48290.05939 eV
Kinetic Energy     :          883.79950600 Eh           24049.40721 eV
Virial Ratio       :            2.00795217


DFT components:
N(Alpha)           :       82.000163073814 electrons
N(Beta)            :       81.000169232003 electrons
N(Total)           :      163.000332305818 electrons
E(X)               :     -101.407438517090 Eh       
E(C)               :       -6.331234018140 Eh       
E(XC)              :     -107.738672535231 Eh       
DFET-embed. en.    :        0.000000000000 Eh       

---------------
SCF CONVERGENCE
---------------

  Last Energy change         ...    8.0315e-09  Tolerance :   1.0000e-08
  Last MAX-Density change    ...    0.0000e+00  Tolerance :   1.0000e-07
  Last RMS-Density change    ...    0.0000e+00  Tolerance :   5.0000e-09
  Last DIIS Error            ...    1.4813e-06  Tolerance :   5.0000e-07

             **** THE GBW FILE WAS UPDATED (opt_EPRII.gbw) ****
             **** DENSITY opt_EPRII.scfp WAS UPDATED ****
             **** ENERGY FILE WAS UPDATED (opt_EPRII.en.tmp) ****
----------------------
UHF SPIN CONTAMINATION
----------------------

Warning: in a DFT calculation there is little theoretical justification to 
         calculate <S**2> as in Hartree-Fock theory. We will do it anyways
         but you should keep in mind that the values have only limited relevance

Expectation value of <S**2>     :     0.796124
Ideal value S*(S+1) for S=0.5   :     0.750000
Deviation                       :     0.046124

             **** THE GBW FILE WAS UPDATED (opt_EPRII.gbw) ****
             **** DENSITY opt_EPRII.scfp WAS UPDATED ****
----------------
ORBITAL ENERGIES
----------------
                 SPIN UP ORBITALS
  NO   OCC          E(Eh)            E(eV) 
   0   1.0000     -10.254278      -279.0331 
   1   1.0000     -10.229951      -278.3711 
   2   1.0000     -10.228137      -278.3218 
   3   1.0000     -10.225515      -278.2504 
   4   1.0000     -10.217185      -278.0237 
   5   1.0000     -10.214735      -277.9571 
   6   1.0000     -10.212369      -277.8927 
   7   1.0000     -10.208208      -277.7795 
   8   1.0000     -10.208079      -277.7760 
   9   1.0000     -10.207787      -277.7680 
  10   1.0000     -10.207596      -277.7628 
  11   1.0000     -10.206320      -277.7281 
  12   1.0000     -10.206182      -277.7243 
  13   1.0000     -10.204945      -277.6907 
  14   1.0000     -10.204084      -277.6673 
  15   1.0000     -10.197455      -277.4869 
  16   1.0000     -10.192690      -277.3572 
  17   1.0000     -10.188129      -277.2331 
  18   1.0000     -10.186140      -277.1790 
  19   1.0000     -10.186121      -277.1784 
  20   1.0000     -10.185451      -277.1602 
  21   1.0000     -10.176089      -276.9055 
  22   1.0000     -10.175316      -276.8844 
  23   1.0000      -0.881090       -23.9757 
  24   1.0000      -0.866353       -23.5747 
  25   1.0000      -0.824429       -22.4339 
  26   1.0000      -0.803260       -21.8578 
  27   1.0000      -0.797873       -21.7112 
  28   1.0000      -0.782177       -21.2841 
  29   1.0000      -0.771108       -20.9829 
  30   1.0000      -0.754221       -20.5234 
  31   1.0000      -0.740361       -20.1462 
  32   1.0000      -0.728571       -19.8254 
  33   1.0000      -0.704841       -19.1797 
  34   1.0000      -0.678297       -18.4574 
  35   1.0000      -0.656808       -17.8726 
  36   1.0000      -0.630381       -17.1535 
  37   1.0000      -0.619373       -16.8540 
  38   1.0000      -0.612269       -16.6607 
  39   1.0000      -0.599316       -16.3082 
  40   1.0000      -0.582548       -15.8519 
  41   1.0000      -0.568132       -15.4597 
  42   1.0000      -0.551096       -14.9961 
  43   1.0000      -0.535672       -14.5764 
  44   1.0000      -0.513792       -13.9810 
  45   1.0000      -0.484389       -13.1809 
  46   1.0000      -0.482416       -13.1272 
  47   1.0000      -0.476338       -12.9618 
  48   1.0000      -0.473462       -12.8836 
  49   1.0000      -0.459887       -12.5142 
  50   1.0000      -0.441577       -12.0159 
  51   1.0000      -0.439381       -11.9562 
  52   1.0000      -0.429393       -11.6844 
  53   1.0000      -0.428650       -11.6642 
  54   1.0000      -0.428075       -11.6485 
  55   1.0000      -0.426301       -11.6002 
  56   1.0000      -0.421524       -11.4703 
  57   1.0000      -0.414492       -11.2789 
  58   1.0000      -0.409615       -11.1462 
  59   1.0000      -0.389301       -10.5934 
  60   1.0000      -0.381640       -10.3850 
  61   1.0000      -0.376071       -10.2334 
  62   1.0000      -0.370852       -10.0914 
  63   1.0000      -0.367048        -9.9879 
  64   1.0000      -0.363987        -9.9046 
  65   1.0000      -0.362890        -9.8747 
  66   1.0000      -0.354381        -9.6432 
  67   1.0000      -0.347706        -9.4616 
  68   1.0000      -0.336802        -9.1649 
  69   1.0000      -0.334834        -9.1113 
  70   1.0000      -0.333468        -9.0741 
  71   1.0000      -0.329083        -8.9548 
  72   1.0000      -0.325897        -8.8681 
  73   1.0000      -0.324641        -8.8339 
  74   1.0000      -0.324512        -8.8304 
  75   1.0000      -0.295009        -8.0276 
  76   1.0000      -0.293376        -7.9832 
  77   1.0000      -0.272711        -7.4209 
  78   1.0000      -0.262896        -7.1538 
  79   1.0000      -0.260459        -7.0875 
  80   1.0000      -0.238922        -6.5014 
  81   1.0000      -0.176141        -4.7930 
  82   0.0000      -0.107261        -2.9187 
  83   0.0000      -0.043562        -1.1854 
  84   0.0000      -0.017607        -0.4791 
  85   0.0000      -0.011682        -0.3179 
  86   0.0000       0.011460         0.3118 
  87   0.0000       0.012182         0.3315 
  88   0.0000       0.019798         0.5387 
  89   0.0000       0.020921         0.5693 
  90   0.0000       0.030034         0.8173 
  91   0.0000       0.033080         0.9001 
  92   0.0000       0.034067         0.9270 
  93   0.0000       0.039950         1.0871 
  94   0.0000       0.044660         1.2153 
  95   0.0000       0.053131         1.4458 
  96   0.0000       0.057981         1.5777 
  97   0.0000       0.065263         1.7759 
  98   0.0000       0.071846         1.9550 
  99   0.0000       0.076087         2.0704 
 100   0.0000       0.081467         2.2168 
 101   0.0000       0.087890         2.3916 
 102   0.0000       0.091091         2.4787 
 103   0.0000       0.097839         2.6623 
 104   0.0000       0.101788         2.7698 
 105   0.0000       0.112700         3.0667 
 106   0.0000       0.122892         3.3441 
 107   0.0000       0.127296         3.4639 
 108   0.0000       0.134419         3.6577 
 109   0.0000       0.146747         3.9932 
 110   0.0000       0.149767         4.0754 
 111   0.0000       0.155909         4.2425 
 112   0.0000       0.167749         4.5647 
 113   0.0000       0.171798         4.6749 
 114   0.0000       0.173100         4.7103 
 115   0.0000       0.179319         4.8795 
 116   0.0000       0.184352         5.0165 
 117   0.0000       0.186421         5.0728 
 118   0.0000       0.191753         5.2179 
 119   0.0000       0.194139         5.2828 
 120   0.0000       0.197619         5.3775 
 121   0.0000       0.200271         5.4497 
 122   0.0000       0.203629         5.5410 
 123   0.0000       0.207528         5.6471 
 124   0.0000       0.210881         5.7384 
 125   0.0000       0.211742         5.7618 
 126   0.0000       0.217538         5.9195 
 127   0.0000       0.221245         6.0204 
 128   0.0000       0.230143         6.2625 
 129   0.0000       0.231471         6.2986 
 130   0.0000       0.239364         6.5134 
 131   0.0000       0.243001         6.6124 
 132   0.0000       0.243883         6.6364 
 133   0.0000       0.249261         6.7827 
 134   0.0000       0.249318         6.7843 
 135   0.0000       0.251922         6.8552 
 136   0.0000       0.261844         7.1251 
 137   0.0000       0.266223         7.2443 
 138   0.0000       0.268850         7.3158 
 139   0.0000       0.270514         7.3611 
 140   0.0000       0.274029         7.4567 
 141   0.0000       0.279008         7.5922 
 142   0.0000       0.280452         7.6315 
 143   0.0000       0.285787         7.7767 
 144   0.0000       0.289106         7.8670 
 145   0.0000       0.290283         7.8990 
 146   0.0000       0.290594         7.9075 
 147   0.0000       0.296019         8.0551 
 148   0.0000       0.297386         8.0923 
 149   0.0000       0.301678         8.2091 
 150   0.0000       0.305415         8.3108 
 151   0.0000       0.307832         8.3765 
 152   0.0000       0.308449         8.3933 
 153   0.0000       0.313623         8.5341 
 154   0.0000       0.316291         8.6067 
 155   0.0000       0.318138         8.6570 
 156   0.0000       0.322039         8.7631 
 157   0.0000       0.326886         8.8950 
 158   0.0000       0.330632         8.9970 
 159   0.0000       0.339695         9.2436 
 160   0.0000       0.341113         9.2821 
 161   0.0000       0.343387         9.3440 
 162   0.0000       0.346133         9.4187 
 163   0.0000       0.356783         9.7086 
 164   0.0000       0.358545         9.7565 
 165   0.0000       0.364592         9.9210 
 166   0.0000       0.369435        10.0528 
 167   0.0000       0.371624        10.1124 
 168   0.0000       0.372193        10.1279 
 169   0.0000       0.374787        10.1985 
 170   0.0000       0.387501        10.5444 
 171   0.0000       0.387953        10.5567 
 172   0.0000       0.394715        10.7407 
 173   0.0000       0.397273        10.8104 
 174   0.0000       0.408176        11.1070 
 175   0.0000       0.411422        11.1954 
 176   0.0000       0.413757        11.2589 
 177   0.0000       0.416276        11.3274 
 178   0.0000       0.422013        11.4836 
 179   0.0000       0.428677        11.6649 
 180   0.0000       0.431540        11.7428 
 181   0.0000       0.433369        11.7926 
 182   0.0000       0.434742        11.8299 
 183   0.0000       0.444166        12.0864 
 184   0.0000       0.446123        12.1396 
 185   0.0000       0.453709        12.3461 
 186   0.0000       0.456264        12.4156 
 187   0.0000       0.463416        12.6102 
 188   0.0000       0.464773        12.6471 
 189   0.0000       0.470831        12.8120 
 190   0.0000       0.474167        12.9027 
 191   0.0000       0.479406        13.0453 
 192   0.0000       0.480912        13.0863 
 193   0.0000       0.484364        13.1802 
 194   0.0000       0.500834        13.6284 
 195   0.0000       0.505739        13.7618 
 196   0.0000       0.506774        13.7900 
 197   0.0000       0.513359        13.9692 
 198   0.0000       0.514520        14.0008 
 199   0.0000       0.526197        14.3185 
 200   0.0000       0.528986        14.3944 
 201   0.0000       0.537011        14.6128 
 202   0.0000       0.545952        14.8561 
 203   0.0000       0.548328        14.9208 
 204   0.0000       0.552108        15.0236 
 205   0.0000       0.558544        15.1987 
 206   0.0000       0.560925        15.2635 
 207   0.0000       0.564604        15.3636 
 208   0.0000       0.573562        15.6074 
 209   0.0000       0.580477        15.7956 
 210   0.0000       0.590706        16.0739 
 211   0.0000       0.598479        16.2855 
 212   0.0000       0.604375        16.4459 
 213   0.0000       0.617360        16.7992 
 214   0.0000       0.631731        17.1903 
 215   0.0000       0.637999        17.3608 
 216   0.0000       0.653632        17.7862 
 217   0.0000       0.657858        17.9012 
 218   0.0000       0.661972        18.0132 
 219   0.0000       0.671450        18.2711 
 220   0.0000       0.675931        18.3930 
 221   0.0000       0.679934        18.5019 
 222   0.0000       0.696400        18.9500 
 223   0.0000       0.704092        19.1593 
 224   0.0000       0.724911        19.7258 
 225   0.0000       0.750551        20.4235 
 226   0.0000       0.762017        20.7355 
 227   0.0000       0.764684        20.8081 
 228   0.0000       0.773097        21.0370 
 229   0.0000       0.774087        21.0640 
 230   0.0000       0.795072        21.6350 
 231   0.0000       0.812928        22.1209 
 232   0.0000       0.817624        22.2487 
 233   0.0000       0.835692        22.7403 
 234   0.0000       0.840055        22.8591 
 235   0.0000       0.841691        22.9036 
 236   0.0000       0.846360        23.0306 
 237   0.0000       0.849391        23.1131 
 238   0.0000       0.861948        23.4548 
 239   0.0000       0.863024        23.4841 
 240   0.0000       0.863531        23.4979 
 241   0.0000       0.876673        23.8555 
 242   0.0000       0.889819        24.2132 
 243   0.0000       0.893129        24.3033 
 244   0.0000       0.897108        24.4116 
 245   0.0000       0.898396        24.4466 
 246   0.0000       0.908615        24.7247 
 247   0.0000       0.911979        24.8162 
 248   0.0000       0.914543        24.8860 
 249   0.0000       0.919481        25.0204 
 250   0.0000       0.923850        25.1392 
 251   0.0000       0.930261        25.3137 
 252   0.0000       0.931051        25.3352 
 253   0.0000       0.932692        25.3798 
 254   0.0000       0.938056        25.5258 
 255   0.0000       0.941320        25.6146 
 256   0.0000       0.952840        25.9281 
 257   0.0000       0.958669        26.0867 
 258   0.0000       0.967272        26.3208 
 259   0.0000       0.971927        26.4475 
 260   0.0000       0.975052        26.5325 
 261   0.0000       0.975591        26.5472 
 262   0.0000       0.982987        26.7484 
 263   0.0000       0.988268        26.8922 
 264   0.0000       0.991485        26.9797 
 265   0.0000       0.994867        27.0717 
 266   0.0000       0.997112        27.1328 
 267   0.0000       1.003802        27.3148 
 268   0.0000       1.013555        27.5802 
 269   0.0000       1.018757        27.7218 
 270   0.0000       1.023197        27.8426 
 271   0.0000       1.028618        27.9901 
 272   0.0000       1.034967        28.1629 
 273   0.0000       1.037566        28.2336 
 274   0.0000       1.048546        28.5324 
 275   0.0000       1.055715        28.7275 
 276   0.0000       1.055777        28.7292 
 277   0.0000       1.064466        28.9656 
 278   0.0000       1.071836        29.1662 
 279   0.0000       1.092979        29.7415 
 280   0.0000       1.094372        29.7794 
 281   0.0000       1.101388        29.9703 
 282   0.0000       1.107845        30.1460 
 283   0.0000       1.108308        30.1586 
 284   0.0000       1.116896        30.3923 
 285   0.0000       1.122783        30.5525 
 286   0.0000       1.142383        31.0858 
 287   0.0000       1.154981        31.4286 
 288   0.0000       1.162510        31.6335 
 289   0.0000       1.170625        31.8543 
 290   0.0000       1.172290        31.8996 
 291   0.0000       1.176996        32.0277 
 292   0.0000       1.182213        32.1697 
 293   0.0000       1.193794        32.4848 
 294   0.0000       1.201901        32.7054 
 295   0.0000       1.203269        32.7426 
 296   0.0000       1.208200        32.8768 
 297   0.0000       1.215423        33.0733 
 298   0.0000       1.240198        33.7475 
 299   0.0000       1.241494        33.7828 
 300   0.0000       1.244563        33.8663 
 301   0.0000       1.257747        34.2250 
 302   0.0000       1.279216        34.8092 
 303   0.0000       1.283140        34.9160 
 304   0.0000       1.291723        35.1496 
 305   0.0000       1.299764        35.3684 
 306   0.0000       1.310561        35.6622 
 307   0.0000       1.316239        35.8167 
 308   0.0000       1.322991        36.0004 
 309   0.0000       1.332639        36.2629 
 310   0.0000       1.335711        36.3465 
 311   0.0000       1.351956        36.7886 
 312   0.0000       1.358232        36.9594 
 313   0.0000       1.366832        37.1934 
 314   0.0000       1.376599        37.4592 
 315   0.0000       1.383460        37.6459 
[...]
      dyz     :     0.000007
      dx2y2   :     0.000932
      dxy     :     0.001076
  2 C s       :    -0.005767  s :    -0.005767
      pz      :    -0.093059  p :    -0.106647
      px      :    -0.007488
      py      :    -0.006100
      dz2     :     0.000575  d :     0.038447
      dxz     :     0.032522
      dyz     :     0.003229
      dx2y2   :     0.001528
      dxy     :     0.000592
  3 C s       :     0.006473  s :     0.006473
      pz      :     0.175559  p :     0.184566
      px      :     0.004301
      py      :     0.004706
      dz2     :    -0.000876  d :    -0.008460
      dxz     :    -0.004128
      dyz     :    -0.001862
      dx2y2   :    -0.000728
      dxy     :    -0.000866
  4 C s       :    -0.004529  s :    -0.004529
      pz      :    -0.085391  p :    -0.095308
      px      :    -0.005251
      py      :    -0.004666
      dz2     :     0.000402  d :     0.020814
      dxz     :     0.013748
      dyz     :     0.005072
      dx2y2   :     0.000820
      dxy     :     0.000771
  5 C s       :     0.007883  s :     0.007883
      pz      :     0.216830  p :     0.228822
      px      :     0.005729
      py      :     0.006264
      dz2     :    -0.001189  d :    -0.010957
      dxz     :    -0.003755
      dyz     :    -0.003596
      dx2y2   :    -0.000855
      dxy     :    -0.001563
  6 C s       :    -0.004559  s :    -0.004559
      pz      :    -0.082249  p :    -0.092431
      px      :    -0.005381
      py      :    -0.004802
      dz2     :     0.000455  d :     0.019720
      dxz     :     0.012950
      dyz     :     0.004676
      dx2y2   :     0.000842
      dxy     :     0.000797
  7 C s       :     0.005921  s :     0.005921
      pz      :     0.179474  p :     0.187646
      px      :     0.003725
      py      :     0.004447
      dz2     :    -0.000776  d :    -0.008771
      dxz     :    -0.004615
      dyz     :    -0.001807
      dx2y2   :    -0.000740
      dxy     :    -0.000833
  8 H s       :     0.002372  s :     0.002372
      pz      :    -0.002564  p :    -0.003182
      px      :    -0.000248
      py      :    -0.000370
  9 H s       :    -0.005183  s :    -0.005183
      pz      :     0.005257  p :     0.006186
      px      :     0.000295
      py      :     0.000634
 10 C s       :    -0.001191  s :    -0.001191
      pz      :    -0.001876  p :    -0.007507
      px      :    -0.002521
      py      :    -0.003110
      dz2     :     0.000117  d :     0.007489
      dxz     :     0.004187
      dyz     :     0.002635
      dx2y2   :     0.000200
      dxy     :     0.000350
 11 H s       :     0.007270  s :     0.007270
      pz      :    -0.000081  p :    -0.000247
      px      :    -0.000103
      py      :    -0.000063
 12 H s       :     0.007250  s :     0.007250
      pz      :    -0.000080  p :    -0.000246
      px      :    -0.000103
      py      :    -0.000063
 13 C s       :     0.000051  s :     0.000051
      pz      :     0.000041  p :     0.000329
      px      :     0.000138
      py      :     0.000150
      dz2     :    -0.000016  d :    -0.000215
      dxz     :     0.000023
      dyz     :    -0.000055
      dx2y2   :    -0.000105
      dxy     :    -0.000062
 14 H s       :    -0.000110  s :    -0.000110
      pz      :     0.000006  p :     0.000015
      px      :     0.000002
      py      :     0.000007
 15 H s       :    -0.000111  s :    -0.000111
      pz      :     0.000007  p :     0.000015
      px      :     0.000002
      py      :     0.000006
 16 C s       :    -0.000058  s :    -0.000058
      pz      :     0.000155  p :     0.000003
      px      :    -0.000040
      py      :    -0.000112
      dz2     :    -0.000001  d :     0.000005
      dxz     :     0.000000
      dyz     :     0.000010
      dx2y2   :     0.000003
      dxy     :    -0.000007
 17 H s       :     0.000045  s :     0.000045
      pz      :     0.000000  p :     0.000011
      px      :     0.000001
      py      :     0.000009
 18 H s       :     0.000045  s :     0.000045
      pz      :     0.000000  p :     0.000011
      px      :     0.000001
      py      :     0.000009
 19 C s       :    -0.000007  s :    -0.000007
      pz      :     0.000004  p :    -0.000039
      px      :    -0.000011
      py      :    -0.000031
      dz2     :    -0.000000  d :     0.000008
      dxz     :     0.000007
      dyz     :     0.000002
      dx2y2   :    -0.000003
      dxy     :     0.000001
 20 H s       :     0.000013  s :     0.000013
      pz      :    -0.000000  p :    -0.000002
      px      :    -0.000000
      py      :    -0.000001
 21 H s       :     0.000013  s :     0.000013
      pz      :    -0.000000  p :    -0.000002
      px      :    -0.000000
      py      :    -0.000001
 22 C s       :     0.000444  s :     0.000444
      pz      :     0.000542  p :     0.002768
      px      :     0.000967
      py      :     0.001259
      dz2     :    -0.000080  d :    -0.003703
      dxz     :    -0.001817
      dyz     :    -0.001368
      dx2y2   :    -0.000224
      dxy     :    -0.000214
 23 H s       :    -0.003637  s :    -0.003637
      pz      :     0.000048  p :     0.000136
      px      :     0.000080
      py      :     0.000008
 24 H s       :    -0.003633  s :    -0.003633
      pz      :     0.000048  p :     0.000136
      px      :     0.000080
      py      :     0.000008
 25 C s       :    -0.000082  s :    -0.000082
      pz      :     0.000449  p :     0.000102
      px      :    -0.000159
      py      :    -0.000189
      dz2     :     0.000006  d :     0.000051
      dxz     :    -0.000054
      dyz     :     0.000038
      dx2y2   :     0.000042
      dxy     :     0.000018
 26 H s       :     0.000095  s :     0.000095
      pz      :     0.000001  p :     0.000035
      px      :     0.000020
      py      :     0.000014
 27 H s       :     0.000094  s :     0.000094
      pz      :     0.000001  p :     0.000035
      px      :     0.000020
      py      :     0.000014
 28 C s       :     0.000012  s :     0.000012
      pz      :    -0.000064  p :    -0.000048
      px      :    -0.000004
      py      :     0.000020
      dz2     :     0.000001  d :     0.000029
      dxz     :     0.000026
      dyz     :     0.000003
      dx2y2   :    -0.000005
      dxy     :     0.000004
 29 H s       :     0.000020  s :     0.000020
      pz      :    -0.000001  p :    -0.000009
      px      :    -0.000002
      py      :    -0.000006
 30 H s       :     0.000020  s :     0.000020
      pz      :    -0.000001  p :    -0.000009
      px      :    -0.000002
      py      :    -0.000006
 31 C s       :     0.000001  s :     0.000001
      pz      :    -0.000001  p :     0.000015
      px      :     0.000004
      py      :     0.000011
      dz2     :    -0.000000  d :    -0.000007
      dxz     :    -0.000003
      dyz     :    -0.000002
      dx2y2   :    -0.000000
      dxy     :    -0.000001
 32 H s       :    -0.000006  s :    -0.000006
      pz      :     0.000000  p :     0.000001
      px      :     0.000000
      py      :     0.000001
 33 H s       :    -0.000007  s :    -0.000007
      pz      :     0.000000  p :     0.000001
      px      :     0.000000
      py      :     0.000001
 34 C s       :     0.004736  s :     0.004736
      pz      :     0.129529  p :     0.146756
      px      :     0.002242
      py      :     0.014985
      dz2     :    -0.000592  d :    -0.006715
      dxz     :    -0.004641
      dyz     :    -0.000003
      dx2y2   :    -0.000616
      dxy     :    -0.000863
 35 H s       :    -0.000002  s :    -0.000002
      pz      :    -0.000000  p :    -0.000003
      px      :    -0.000001
      py      :    -0.000002
 36 H s       :    -0.000003  s :    -0.000003
      pz      :     0.000001  p :     0.000002
      px      :     0.000000
      py      :     0.000001
 37 C s       :    -0.001799  s :    -0.001799
      pz      :    -0.024552  p :    -0.029176
      px      :    -0.003250
      py      :    -0.001374
      dz2     :     0.000185  d :     0.010294
      dxz     :     0.007776
      dyz     :     0.000856
      dx2y2   :     0.000530
      dxy     :     0.000948
 38 C s       :     0.001491  s :     0.001491
      pz      :     0.039359  p :     0.041728
      px      :     0.001199
      py      :     0.001170
      dz2     :    -0.000163  d :    -0.002080
      dxz     :    -0.000924
      dyz     :    -0.000562
      dx2y2   :    -0.000224
      dxy     :    -0.000207
 39 C s       :    -0.000883  s :    -0.000883
      pz      :    -0.017895  p :    -0.019804
      px      :    -0.001110
      py      :    -0.000799
      dz2     :     0.000089  d :     0.004051
      dxz     :     0.002810
      dyz     :     0.000818
      dx2y2   :     0.000164
      dxy     :     0.000169
 40 C s       :     0.001447  s :     0.001447
      pz      :     0.043531  p :     0.045654
      px      :     0.000949
      py      :     0.001174
      dz2     :    -0.000184  d :    -0.001556
      dxz     :    -0.000186
      dyz     :    -0.000904
      dx2y2   :    -0.000131
      dxy     :    -0.000151
 41 C s       :    -0.000883  s :    -0.000883
      pz      :    -0.017891  p :    -0.019800
      px      :    -0.001070
      py      :    -0.000840
      dz2     :     0.000089  d :     0.004049
      dxz     :     0.002594
      dyz     :     0.001034
      dx2y2   :     0.000171
      dxy     :     0.000162
 42 C s       :     0.001493  s :     0.001493
      pz      :     0.039349  p :     0.041715
      px      :     0.001232
      py      :     0.001135
      dz2     :    -0.000163  d :    -0.002082
      dxz     :    -0.001006
      dyz     :    -0.000481
      dx2y2   :    -0.000241
      dxy     :    -0.000191
 43 H s       :    -0.001310  s :    -0.001310
      pz      :     0.001387  p :     0.001622
      px      :     0.000213
      py      :     0.000022
 44 H s       :     0.000536  s :     0.000536
      pz      :    -0.000530  p :    -0.000654
      px      :    -0.000051
      py      :    -0.000073
 45 H s       :    -0.001192  s :    -0.001192
      pz      :     0.001104  p :     0.001329
      px      :     0.000071
      py      :     0.000154
 46 H s       :    -0.001191  s :    -0.001191
      pz      :     0.001106  p :     0.001331
      px      :     0.000059
      py      :     0.000166
 47 H s       :     0.000536  s :     0.000536
      pz      :    -0.000530  p :    -0.000654
      px      :    -0.000047
      py      :    -0.000077


                      *****************************
                      * MAYER POPULATION ANALYSIS *
                      *****************************

  NA   - Mulliken gross atomic population
  ZA   - Total nuclear charge
  QA   - Mulliken gross atomic charge
  VA   - Mayer's total valence
  BVA  - Mayer's bonded valence
  FA   - Mayer's free valence

  ATOM       NA         ZA         QA         VA         BVA        FA
  0 C      6.4028     6.0000    -0.4028     1.8539     1.6176     0.2362
  1 C      6.3619     6.0000    -0.3619     3.7865     3.7801     0.0064
  2 C      5.6341     6.0000     0.3659     3.8433     3.8284     0.0149
  3 C      5.6942     6.0000     0.3058     3.8750     3.8309     0.0441
  4 C      6.4131     6.0000    -0.4131     4.3174     4.3056     0.0119
  5 C      5.4872     6.0000     0.5128     3.9039     3.8370     0.0668
  6 C      5.7527     6.0000     0.2473     4.0178     4.0068     0.0110
  7 C      6.3854     6.0000    -0.3854     4.1567     4.1130     0.0438
  8 H      0.8650     1.0000     0.1350     0.9650     0.9649     0.0000
  9 H      0.8665     1.0000     0.1335     0.9661     0.9659     0.0002
 10 C      6.3665     6.0000    -0.3665     3.9724     3.9722     0.0002
 11 H      0.8449     1.0000     0.1551     0.9631     0.9630     0.0001
 12 H      0.8450     1.0000     0.1550     0.9631     0.9630     0.0001
 13 C      6.2743     6.0000    -0.2743     4.0283     4.0283     0.0000
 14 H      0.8562     1.0000     0.1438     0.9655     0.9655     0.0000
 15 H      0.8560     1.0000     0.1440     0.9655     0.9655     0.0000
 16 C      6.2608     6.0000    -0.2608     3.8900     3.8900     0.0000
 17 H      0.8542     1.0000     0.1458     0.9665     0.9665     0.0000
 18 H      0.8543     1.0000     0.1457     0.9665     0.9665     0.0000
 19 C      6.5101     6.0000    -0.5101     3.9012     3.9012     0.0000
 20 H      0.8403     1.0000     0.1597     0.9651     0.9651     0.0000
 21 H      0.8404     1.0000     0.1596     0.9652     0.9652     0.0000
 22 C      6.3494     6.0000    -0.3494     4.0169     4.0168     0.0000
 23 H      0.8457     1.0000     0.1543     0.9628     0.9627     0.0000
 24 H      0.8458     1.0000     0.1542     0.9628     0.9628     0.0000
 25 C      6.2703     6.0000    -0.2703     4.0221     4.0221     0.0000
 26 H      0.8580     1.0000     0.1420     0.9663     0.9663     0.0000
 27 H      0.8580     1.0000     0.1420     0.9664     0.9664     0.0000
 28 C      6.2635     6.0000    -0.2635     3.8949     3.8949     0.0000
 29 H      0.8556     1.0000     0.1444     0.9669     0.9669     0.0000
 30 H      0.8556     1.0000     0.1444     0.9669     0.9669     0.0000
 31 C      6.5094     6.0000    -0.5094     3.9011     3.9011     0.0000
 32 H      0.8398     1.0000     0.1602     0.9651     0.9651     0.0000
 33 H      0.8398     1.0000     0.1602     0.9651     0.9651     0.0000
 34 C      6.3094     6.0000    -0.3094     3.9647     3.9408     0.0238
 35 H      0.8538     1.0000     0.1462     0.9665     0.9665     0.0000
 36 H      0.8555     1.0000     0.1445     0.9668     0.9668     0.0000
 37 C      5.4097     6.0000     0.5903     3.9242     3.9231     0.0010
 38 C      6.2791     6.0000    -0.2791     4.1951     4.1930     0.0021
 39 C      6.0979     6.0000    -0.0979     4.0965     4.0960     0.0005
 40 C      6.1226     6.0000    -0.1226     4.0761     4.0735     0.0026
 41 C      6.1006     6.0000    -0.1006     4.1000     4.0995     0.0005
 42 C      6.2736     6.0000    -0.2736     4.1822     4.1802     0.0021
 43 H      0.8923     1.0000     0.1077     0.9580     0.9579     0.0000
 44 H      0.8936     1.0000     0.1064     0.9613     0.9613     0.0000
 45 H      0.8806     1.0000     0.1194     0.9604     0.9604     0.0000
 46 H      0.8809     1.0000     0.1191     0.9604     0.9603     0.0000
 47 H      0.8935     1.0000     0.1065     0.9614     0.9614     0.0000

  Mayer bond orders larger than 0.100000
B(  0-C ,  2-C ) :   1.2112 B(  0-C ,  7-C ) :   0.1237 B(  1-C ,  5-C ) :   0.8633 
B(  1-C ,  6-C ) :   0.1124 B(  1-C , 34-C ) :   2.4491 B(  2-C ,  3-C ) :   1.2174 
B(  2-C ,  4-C ) :   0.1315 B(  2-C ,  6-C ) :   0.1075 B(  2-C ,  7-C ) :   1.1559 
B(  3-C ,  4-C ) :   1.5371 B(  3-C ,  5-C ) :   0.1258 B(  3-C , 10-C ) :   0.9412 
B(  4-C ,  5-C ) :   1.3643 B(  4-C ,  8-H ) :   0.9716 B(  5-C ,  6-C ) :   1.2909 
B(  5-C ,  7-C ) :   0.1385 B(  5-C , 34-C ) :   0.1245 B(  6-C ,  7-C ) :   1.5585 
B(  6-C , 22-C ) :   0.9705 B(  7-C ,  9-H ) :   0.9675 B( 10-C , 11-H ) :   0.9596 
B( 10-C , 12-H ) :   0.9597 B( 10-C , 13-C ) :   1.0244 B( 13-C , 14-H ) :   0.9631 
B( 13-C , 15-H ) :   0.9632 B( 13-C , 16-C ) :   0.9858 B( 16-C , 17-H ) :   0.9711 
B( 16-C , 18-H ) :   0.9711 B( 16-C , 19-C ) :   0.9560 B( 19-C , 20-H ) :   0.9725 
B( 19-C , 21-H ) :   0.9725 B( 19-C , 35-H ) :   0.9676 B( 22-C , 23-H ) :   0.9544 
B( 22-C , 24-H ) :   0.9544 B( 22-C , 25-C ) :   1.0228 B( 25-C , 26-H ) :   0.9611 
B( 25-C , 27-H ) :   0.9611 B( 25-C , 28-C ) :   0.9879 B( 28-C , 29-H ) :   0.9717 
B( 28-C , 30-H ) :   0.9717 B( 28-C , 31-C ) :   0.9555 B( 31-C , 32-H ) :   0.9728 
B( 31-C , 33-H ) :   0.9728 B( 31-C , 36-H ) :   0.9672 B( 34-C , 37-C ) :   1.0198 
B( 37-C , 38-C ) :   1.3789 B( 37-C , 42-C ) :   1.3754 B( 38-C , 39-C ) :   1.4812 
B( 38-C , 45-H ) :   0.9820 B( 39-C , 40-C ) :   1.4492 B( 39-C , 47-H ) :   0.9756 
B( 40-C , 41-C ) :   1.4519 B( 40-C , 42-C ) :   0.1004 B( 40-C , 43-H ) :   0.9653 
B( 41-C , 42-C ) :   1.4806 B( 41-C , 44-H ) :   0.9765 B( 42-C , 46-H ) :   0.9797 


-------
TIMINGS
-------

Total SCF time: 0 days 0 hours 1 min 14 sec 

Total time                  ....      74.625 sec
Sum of individual times     ....      70.551 sec  ( 94.5%)

Fock matrix formation       ....      62.987 sec  ( 84.4%)
  Split-RI-J                ....       4.828 sec  (  7.7% of F)
  Chain of spheres X        ....      42.095 sec  ( 66.8% of F)
  XC integration            ....      12.278 sec  ( 19.5% of F)
    Basis function eval.    ....       0.993 sec  (  8.1% of XC)
    Density eval.           ....       1.641 sec  ( 13.4% of XC)
    XC-Functional eval.     ....       0.250 sec  (  2.0% of XC)
    XC-Potential eval.      ....       0.927 sec  (  7.5% of XC)
Diagonalization             ....       1.626 sec  (  2.2%)
Density matrix formation    ....       0.142 sec  (  0.2%)
Population analysis         ....       0.492 sec  (  0.7%)
Initial guess               ....       0.257 sec  (  0.3%)
Orbital Transformation      ....       0.000 sec  (  0.0%)
Orbital Orthonormalization  ....       0.200 sec  (  0.3%)
DIIS solution               ....       0.969 sec  (  1.3%)
Grid generation             ....       4.078 sec  (  5.5%)

Maximum memory used throughout the entire SCF-calculation: 132.0 MB

-------------------------   --------------------
FINAL SINGLE POINT ENERGY      -890.828782554082
-------------------------   --------------------

                                *** OPTIMIZATION RUN DONE ***

                            ***************************************
                            *     ORCA property calculations      *
                            ***************************************

                                    ---------------------
                                    Active property flags
                                    ---------------------
   (+) Dipole Moment


------------------------------------------------------------------------------
                       ORCA ELECTRIC PROPERTIES CALCULATION
------------------------------------------------------------------------------

Dipole Moment Calculation                       ... on
Quadrupole Moment Calculation                   ... off
Polarizability Calculation                      ... off
GBWName                                         ... opt_EPRII.gbw
Electron density                                ... opt_EPRII.scfp
The origin for moment calculation is the CENTER OF MASS  = ( 3.637552, -0.055205 -0.019332)

-------------
DIPOLE MOMENT
-------------
                                X             Y             Z
Electronic contribution:     12.01781      -0.26368      -0.00254
Nuclear contribution   :    -10.80287       0.14144       0.00254
                        -----------------------------------------
Total Dipole Moment    :      1.21494      -0.12224      -0.00001
                        -----------------------------------------
Magnitude (a.u.)       :      1.22107
Magnitude (Debye)      :      3.10372



--------------------
Rotational spectrum 
--------------------
 
Rotational constants in cm-1:     0.006709     0.004670     0.002765 
Rotational constants in MHz :   201.131378   140.008553    82.884845 

 Dipole components along the rotational axes: 
x,y,z [a.u.] :     0.975941     0.733863     0.000037 
x,y,z [Debye]:     2.480644     1.865331     0.000095 

 

Timings for individual modules:

Sum of individual times         ...      684.027 sec (=  11.400 min)
GTO integral calculation        ...       15.557 sec (=   0.259 min)   2.3 %
SCF iterations                  ...      559.227 sec (=   9.320 min)  81.8 %
SCF Gradient evaluation         ...      107.460 sec (=   1.791 min)  15.7 %
Geometry relaxation             ...        1.784 sec (=   0.030 min)   0.3 %
                             ****ORCA TERMINATED NORMALLY****
TOTAL RUN TIME: 0 days 0 hours 11 minutes 39 seconds 498 msec
