
                                 *****************
                                 * O   R   C   A *
                                 *****************

                                            #,                                       
                                            ###                                      
                                            ####                                     
                                            #####                                    
                                            ######                                   
                                           ########,                                 
                                     ,,################,,,,,                         
                               ,,#################################,,                 
                          ,,##########################################,,             
                       ,#########################################, ''#####,          
                    ,#############################################,,   '####,        
                  ,##################################################,,,,####,       
                ,###########''''           ''''###############################       
              ,#####''   ,,,,##########,,,,          '''####'''          '####       
            ,##' ,,,,###########################,,,                        '##       
           ' ,,###''''                  '''############,,,                           
         ,,##''                                '''############,,,,        ,,,,,,###''
      ,#''                                            '''#######################'''  
     '                                                          ''''####''''         
             ,#######,   #######,   ,#######,      ##                                
            ,#'     '#,  ##    ##  ,#'     '#,    #''#        ######   ,####,        
            ##       ##  ##   ,#'  ##            #'  '#       #        #'  '#        
            ##       ##  #######   ##           ,######,      #####,   #    #        
            '#,     ,#'  ##    ##  '#,     ,#' ,#      #,         ##   #,  ,#        
             '#######'   ##     ##  '#######'  #'      '#     #####' # '####'        



                  #######################################################
                  #                        -***-                        #
                  #          Department of theory and spectroscopy      #
                  #    Directorship and core code : Frank Neese         #
                  #        Max Planck Institute fuer Kohlenforschung    #
                  #                Kaiser Wilhelm Platz 1               #
                  #                 D-45470 Muelheim/Ruhr               #
                  #                      Germany                        #
                  #                                                     #
                  #                  All rights reserved                #
                  #                        -***-                        #
                  #######################################################


                         Program Version 5.0.4 -  RELEASE  -


 With contributions from (in alphabetic order):
   Daniel Aravena         : Magnetic Suceptibility
   Michael Atanasov       : Ab Initio Ligand Field Theory (pilot matlab implementation)
   Alexander A. Auer      : GIAO ZORA, VPT2 properties, NMR spectrum
   Ute Becker             : Parallelization
   Giovanni Bistoni       : ED, misc. LED, open-shell LED, HFLD
   Martin Brehm           : Molecular dynamics
   Dmytro Bykov           : SCF Hessian
   Vijay G. Chilkuri      : MRCI spin determinant printing, contributions to CSF-ICE
   Dipayan Datta          : RHF DLPNO-CCSD density
   Achintya Kumar Dutta   : EOM-CC, STEOM-CC
   Dmitry Ganyushin       : Spin-Orbit,Spin-Spin,Magnetic field MRCI
   Miquel Garcia          : C-PCM and meta-GGA Hessian, CC/C-PCM, Gaussian charge scheme
   Yang Guo               : DLPNO-NEVPT2, F12-NEVPT2, CIM, IAO-localization
   Andreas Hansen         : Spin unrestricted coupled pair/coupled cluster methods
   Benjamin Helmich-Paris : MC-RPA, TRAH-SCF, COSX integrals
   Lee Huntington         : MR-EOM, pCC
   Robert Izsak           : Overlap fitted RIJCOSX, COSX-SCS-MP3, EOM
   Marcus Kettner         : VPT2
   Christian Kollmar      : KDIIS, OOCD, Brueckner-CCSD(T), CCSD density, CASPT2, CASPT2-K
   Simone Kossmann        : Meta GGA functionals, TD-DFT gradient, OOMP2, MP2 Hessian
   Martin Krupicka        : Initial AUTO-CI
   Lucas Lang             : DCDCAS
   Marvin Lechner         : AUTO-CI (C++ implementation), FIC-MRCC
   Dagmar Lenk            : GEPOL surface, SMD
   Dimitrios Liakos       : Extrapolation schemes; Compound Job, initial MDCI parallelization
   Dimitrios Manganas     : Further ROCIS development; embedding schemes
   Dimitrios Pantazis     : SARC Basis sets
   Anastasios Papadopoulos: AUTO-CI, single reference methods and gradients
   Taras Petrenko         : DFT Hessian,TD-DFT gradient, ASA, ECA, R-Raman, ABS, FL, XAS/XES, NRVS
   Peter Pinski           : DLPNO-MP2, DLPNO-MP2 Gradient
   Christoph Reimann      : Effective Core Potentials
   Marius Retegan         : Local ZFS, SOC
   Christoph Riplinger    : Optimizer, TS searches, QM/MM, DLPNO-CCSD(T), (RO)-DLPNO pert. Triples
   Tobias Risthaus        : Range-separated hybrids, TD-DFT gradient, RPA, STAB
   Michael Roemelt        : Original ROCIS implementation
   Masaaki Saitow         : Open-shell DLPNO-CCSD energy and density
   Barbara Sandhoefer     : DKH picture change effects
   Avijit Sen             : IP-ROCIS
   Kantharuban Sivalingam : CASSCF convergence, NEVPT2, FIC-MRCI
   Bernardo de Souza      : ESD, SOC TD-DFT
   Georgi Stoychev        : AutoAux, RI-MP2 NMR, DLPNO-MP2 response
   Willem Van den Heuvel  : Paramagnetic NMR
   Boris Wezisla          : Elementary symmetry handling
   Frank Wennmohs         : Technical directorship


 We gratefully acknowledge several colleagues who have allowed us to
 interface, adapt or use parts of their codes:
   Stefan Grimme, W. Hujo, H. Kruse, P. Pracht,  : VdW corrections, initial TS optimization,
                  C. Bannwarth, S. Ehlert          DFT functionals, gCP, sTDA/sTD-DF
   Ed Valeev, F. Pavosevic, A. Kumar             : LibInt (2-el integral package), F12 methods
   Garnet Chan, S. Sharma, J. Yang, R. Olivares  : DMRG
   Ulf Ekstrom                                   : XCFun DFT Library
   Mihaly Kallay                                 : mrcc  (arbitrary order and MRCC methods)
   Jiri Pittner, Ondrej Demel                    : Mk-CCSD
   Frank Weinhold                                : gennbo (NPA and NBO analysis)
   Christopher J. Cramer and Donald G. Truhlar   : smd solvation model
   Lars Goerigk                                  : TD-DFT with DH, B97 family of functionals
   V. Asgeirsson, H. Jonsson                     : NEB implementation
   FAccTs GmbH                                   : IRC, NEB, NEB-TS, DLPNO-Multilevel, CI-OPT
                                                   MM, QMMM, 2- and 3-layer-ONIOM, Crystal-QMMM,
                                                   LR-CPCM, SF, NACMEs, symmetry and pop. for TD-DFT,
                                                   nearIR, NL-DFT gradient (VV10), updates on ESD,
                                                   ML-optimized integration grids
   S Lehtola, MJT Oliveira, MAL Marques          : LibXC Library
   Liviu Ungur et al                             : ANISO software


 Your calculation uses the libint2 library for the computation of 2-el integrals
 For citations please refer to: http://libint.valeyev.net

 Your ORCA version has been built with support for libXC version: 5.1.0
 For citations please refer to: https://tddft.org/programs/libxc/

 This ORCA versions uses:
   CBLAS   interface :  Fast vector & matrix operations
   LAPACKE interface :  Fast linear algebra routines
   SCALAPACK package :  Parallel linear algebra routines
   Shared memory     :  Shared parallel matrices
   BLAS/LAPACK       :  OpenBLAS 0.3.15  USE64BITINT DYNAMIC_ARCH NO_AFFINITY SkylakeX SINGLE_THREADED
        Core in use  :  SkylakeX
   Copyright (c) 2011-2014, The OpenBLAS Project




***************************************
The coordinates will be read from file: model.xyz
***************************************


================================================================================

----- Orbital basis set information -----
Your calculation utilizes the basis: cc-pVDZ 
       H, B-Ne : Obtained from the ccRepo (grant-hill.group.shef.ac.uk/ccrepo) Feb. 2017
                 T. H. Dunning, Jr., J. Chem. Phys. 90, 1007 (1989)
            He : Obtained from the ccRepo (grant-hill.group.shef.ac.uk/ccrepo) Feb. 2017
                 D. E. Woon, T. H. Dunning, Jr., J. Chem. Phys. 100, 2975 (1994)
  Li-Be, Na-Mg : Obtained from the ccRepo (grant-hill.group.shef.ac.uk/ccrepo) Feb. 2017
                 B. P. Prascher, D. E. Woon, K. A. Peterson, T. H. Dunning, Jr., A. K. Wilson, Theor. Chem. Acc. 128, 69 (2011)
         Al-Ar : Obtained from the ccRepo (grant-hill.group.shef.ac.uk/ccrepo) Feb. 2017
                 D. E. Woon, T. H. Dunning, Jr., J. Chem. Phys. 98, 1358 (1993)
            Ca : Obtained from the Peterson Research Group Website (tyr0.chem.wsu.edu/~kipeters) Feb. 2017
                 J. Koput, K. A. Peterson, J. Phys. Chem. 106, 9595 (2002)
         Sc-Zn : Obtained from the ccRepo (grant-hill.group.shef.ac.uk/ccrepo) Feb. 2017
                 N. B. Balabanov, K. A. Peterson, J. Chem. Phys. 123, 064107 (2005)
                 N. B. Balabanov, K. A. Peterson, J. Chem. Phys. 125, 074110 (2006)
         Ga-Kr : Obtained from the ccRepo (grant-hill.group.shef.ac.uk/ccrepo) Feb. 2017
                 A. K. Wilson, D. E. Woon, K. A. Peterson, T. H. Dunning, Jr., J. Chem. Phys. 110, 7667 (1999)

----- AuxJ basis set information -----
Your calculation utilizes the auxiliary basis: def2/J
   F. Weigend, Phys. Chem. Chem. Phys. 8, 1057 (2006).

================================================================================
                                        WARNINGS
                       Please study these warnings very carefully!
================================================================================

WARNING: Old DensityContainer found on disk!
         Will remove this file - 
         If you want to keep old densities, please start your calculation with a different basename. 


WARNING: your system is open-shell and RHF/RKS was chosen
  ===> : WILL SWITCH to UHF/UKS


WARNING: Geometry Optimization
  ===> : Switching off AutoStart
         For restart on a previous wavefunction, please use MOREAD

INFO   : the flag for use of the SHARK integral package has been found!

================================================================================
                                       INPUT FILE
================================================================================
NAME = opt_cc-pVDZ.inp
|  1> ! B3LYP cc-pVDZ OPT
|  2> %pal nprocs 16 end
|  3> *XYZFile 0 2 model.xyz
|  4> 
|  5>                          ****END OF INPUT****
================================================================================

                       *****************************
                       * Geometry Optimization Run *
                       *****************************

Geometry optimization settings:
Update method            Update   .... BFGS
Choice of coordinates    CoordSys .... Z-matrix Internals
Initial Hessian          InHess   .... Almoef's Model

Convergence Tolerances:
Energy Change            TolE     ....  5.0000e-06 Eh
Max. Gradient            TolMAXG  ....  3.0000e-04 Eh/bohr
RMS Gradient             TolRMSG  ....  1.0000e-04 Eh/bohr
Max. Displacement        TolMAXD  ....  4.0000e-03 bohr
RMS Displacement         TolRMSD  ....  2.0000e-03 bohr
Strict Convergence                ....  False
------------------------------------------------------------------------------
                        ORCA OPTIMIZATION COORDINATE SETUP
------------------------------------------------------------------------------

The optimization will be done in new redundant internal coordinates
Making redundant internal coordinates   ...  (new redundants) done
Evaluating the initial hessian          ...  (Almloef) done
Evaluating the coordinates              ...  done
Calculating the B-matrix                .... done
Calculating the G-matrix                .... done
Diagonalizing the G-matrix              .... done
Small eigenvalue found = 7.056e-04
Small eigenvalue found = 1.992e-03
Small eigenvalue found = 7.378e-03
Small eigenvalue found = 9.459e-03
Small eigenvalue found = 1.953e-02
Small eigenvalue found = 2.291e-02
Small eigenvalue found = 2.380e-02
Small eigenvalue found = 2.878e-02
Small eigenvalue found = 2.975e-02
The first mode is                       ....  117
The number of degrees of freedom        ....  138

    -----------------------------------------------------------------
                    Redundant Internal Coordinates


    -----------------------------------------------------------------
         Definition                    Initial Value    Approx d2E/dq
    -----------------------------------------------------------------
      1. B(C   2,C   0)                  1.3604         0.696555   
      2. B(C   3,C   2)                  1.4545         0.493039   
      3. B(C   4,C   3)                  1.3770         0.655407   
      4. B(C   5,C   4)                  1.4256         0.548235   
      5. B(C   5,C   1)                  1.4135         0.573211   
      6. B(C   6,C   5)                  1.4366         0.526546   
      7. B(C   7,C   2)                  1.4490         0.503022   
      8. B(C   7,C   6)                  1.3786         0.651514   
      9. B(H   8,C   4)                  1.0906         0.359354   
     10. B(H   9,C   7)                  1.0892         0.361183   
     11. B(C  10,C   3)                  1.5146         0.395321   
     12. B(H  11,C  10)                  1.1074         0.337854   
     13. B(H  12,C  10)                  1.1074         0.337854   
     14. B(C  13,C  10)                  1.5307         0.372595   
     15. B(H  14,C  13)                  1.1054         0.340238   
     16. B(H  15,C  13)                  1.1054         0.340233   
     17. B(C  16,C  13)                  1.5336         0.368723   
     18. B(H  17,C  16)                  1.1057         0.339866   
     19. B(H  18,C  16)                  1.1057         0.339864   
     20. B(C  19,C  16)                  1.5307         0.372663   
     21. B(H  20,C  19)                  1.1037         0.342396   
     22. B(H  21,C  19)                  1.1037         0.342396   
     23. B(C  22,C   6)                  1.5168         0.392169   
     24. B(H  23,C  22)                  1.1056         0.340067   
     25. B(H  24,C  22)                  1.1056         0.340072   
     26. B(C  25,C  22)                  1.5305         0.372864   
     27. B(H  26,C  25)                  1.1056         0.340010   
     28. B(H  27,C  25)                  1.1056         0.340013   
     29. B(C  28,C  25)                  1.5338         0.368444   
     30. B(H  29,C  28)                  1.1059         0.339708   
     31. B(H  30,C  28)                  1.1059         0.339709   
     32. B(C  31,C  28)                  1.5307         0.372587   
     33. B(H  32,C  31)                  1.1037         0.342447   
     34. B(H  33,C  31)                  1.1037         0.342447   
     35. B(C  34,C   1)                  1.2267         1.138540   
     36. B(H  35,C  19)                  1.1020         0.344595   
     37. B(H  36,C  31)                  1.1021         0.344502   
     38. B(C  37,C  34)                  1.4241         0.551149   
     39. B(C  38,C  37)                  1.4138         0.572463   
     40. B(C  39,C  38)                  1.3939         0.615991   
     41. B(C  40,C  39)                  1.4000         0.602279   
     42. B(C  41,C  40)                  1.4000         0.602165   
     43. B(C  42,C  41)                  1.3939         0.615996   
     44. B(C  42,C  37)                  1.4138         0.572564   
     45. B(H  43,C  40)                  1.0925         0.356866   
     46. B(H  44,C  41)                  1.0927         0.356575   
     47. B(H  45,C  38)                  1.0916         0.357965   
     48. B(H  46,C  42)                  1.0916         0.357942   
     49. B(H  47,C  39)                  1.0927         0.356568   
     50. L(C   5,C   1,C  34,C   4, 1) 179.0237         0.477985   
     51. L(C   5,C   1,C  34,C   4, 2) 179.8844         0.477985   
     52. A(C   3,C   2,C   7)          119.7534         0.401483   
     53. A(C   0,C   2,C   7)          117.6739         0.426905   
     54. A(C   0,C   2,C   3)          122.5727         0.425375   
     55. A(C   2,C   3,C  10)          118.0950         0.384899   
     56. A(C   2,C   3,C   4)          117.2287         0.420771   
     57. A(C   4,C   3,C  10)          124.6763         0.404592   
     58. A(C   3,C   4,C   5)          123.1394         0.428836   
     59. A(C   3,C   4,H   8)          119.5799         0.356122   
     60. A(C   5,C   4,H   8)          117.2807         0.345542   
     61. A(C   4,C   5,C   6)          119.7757         0.412408   
     62. A(C   1,C   5,C   4)          119.1002         0.418684   
     63. A(C   1,C   5,C   6)          121.1241         0.415685   
     64. A(C   5,C   6,C   7)          118.5631         0.425291   
     65. A(C   5,C   6,C  22)          119.0829         0.388792   
     66. A(C   7,C   6,C  22)          122.3539         0.403596   
     67. A(C   6,C   7,H   9)          120.5897         0.356069   
     68. A(C   2,C   7,H   9)          117.8706         0.340882   
     69. A(C   2,C   7,C   6)          121.5397         0.421830   
     70. A(H  12,C  10,C  13)          109.1863         0.320809   
     71. A(C   3,C  10,C  13)          116.8004         0.366722   
     72. A(C   3,C  10,H  12)          108.0837         0.323936   
     73. A(H  11,C  10,C  13)          109.1847         0.320809   
     74. A(C   3,C  10,H  11)          108.0855         0.323936   
     75. A(H  11,C  10,H  12)          104.8364         0.285096   
     76. A(H  15,C  13,C  16)          109.1209         0.320629   
     77. A(H  14,C  13,C  16)          109.1169         0.320630   
     78. A(C  10,C  13,C  16)          112.6611         0.362379   
     79. A(H  14,C  13,H  15)          106.3261         0.285721   
     80. A(C  10,C  13,H  15)          109.7053         0.321177   
     81. A(C  10,C  13,H  14)          109.7086         0.321178   
     82. A(H  17,C  16,H  18)          105.8755         0.285624   
     83. A(C  13,C  16,H  18)          109.2133         0.320572   
     84. A(C  13,C  16,H  17)          109.2138         0.320573   
     85. A(H  18,C  16,C  19)          109.5888         0.321130   
     86. A(H  17,C  16,C  19)          109.5901         0.321130   
     87. A(C  13,C  16,C  19)          113.1031         0.362390   
     88. A(C  16,C  19,H  35)          111.4599         0.321858   
     89. A(H  20,C  19,H  21)          107.4099         0.286285   
     90. A(C  16,C  19,H  21)          111.2830         0.321520   
     91. A(C  16,C  19,H  20)          111.2841         0.321520   
     92. A(H  21,C  19,H  35)          107.6003         0.286572   
     93. A(H  20,C  19,H  35)          107.6004         0.286571   
     94. A(H  24,C  22,C  25)          109.3109         0.321191   
     95. A(H  23,C  22,C  25)          109.3120         0.321190   
     96. A(C   6,C  22,C  25)          117.0548         0.366265   
     97. A(H  23,C  22,H  24)          104.6105         0.285678   
     98. A(C   6,C  22,H  24)          107.9145         0.323859   
     99. A(C   6,C  22,H  23)          107.9161         0.323858   
    100. A(H  27,C  25,C  28)          109.0122         0.320555   
    101. A(H  26,C  25,C  28)          109.0140         0.320555   
    102. A(C  22,C  25,C  28)          112.5660         0.362376   
    103. A(H  26,C  25,H  27)          106.2830         0.285662   
    104. A(C  22,C  25,H  27)          109.8839         0.321181   
    105. A(C  22,C  25,H  26)          109.8797         0.321181   
    106. A(H  30,C  28,C  31)          109.5763         0.321095   
    107. A(H  29,C  28,C  31)          109.5754         0.321095   
    108. A(C  25,C  28,C  31)          113.1623         0.362330   
    109. A(H  29,C  28,H  30)          105.8848         0.285583   
    110. A(C  25,C  28,H  30)          109.1910         0.320509   
    111. A(C  25,C  28,H  29)          109.1915         0.320508   
    112. A(H  32,C  31,H  33)          107.3931         0.286299   
    113. A(C  28,C  31,H  33)          111.2790         0.321517   
    114. A(C  28,C  31,H  32)          111.2782         0.321517   
    115. A(H  33,C  31,H  36)          107.6003         0.286566   
    116. A(H  32,C  31,H  36)          107.6000         0.286566   
    117. A(C  28,C  31,H  36)          111.4859         0.321833   
    118. L(C   1,C  34,C  37,C  38, 2) 180.1043         0.474545   
    119. L(C   1,C  34,C  37,C  38, 1) 179.8120         0.474545   
    120. A(C  38,C  37,C  42)          118.6975         0.421841   
    121. A(C  34,C  37,C  42)          120.7164         0.418995   
    122. A(C  34,C  37,C  38)          120.5861         0.418982   
    123. A(C  39,C  38,H  45)          120.4948         0.352167   
    124. A(C  37,C  38,H  45)          119.0861         0.347838   
    125. A(C  37,C  38,C  39)          120.4191         0.427394   
    126. A(C  40,C  39,H  47)          120.0223         0.350598   
    127. A(C  38,C  39,H  47)          119.6011         0.351935   
    128. A(C  38,C  39,C  40)          120.3766         0.431306   
    129. A(C  41,C  40,H  43)          120.1490         0.350636   
    130. A(C  39,C  40,H  43)          120.1399         0.350648   
    131. A(C  39,C  40,C  41)          119.7111         0.429551   
    132. A(C  42,C  41,H  44)          119.5992         0.351936   
    133. A(C  40,C  41,H  44)          120.0297         0.350588   
    134. A(C  40,C  41,C  42)          120.3712         0.431292   
    135. A(C  41,C  42,H  46)          120.4719         0.352164   
    136. A(C  37,C  42,H  46)          119.1035         0.347845   
    137. A(C  37,C  42,C  41)          120.4245         0.427409   
    138. D(C  10,C   3,C   2,C   7)   -179.9863         0.016553   
    139. D(C   4,C   3,C   2,C   7)      0.0065         0.016553   
    140. D(C   4,C   3,C   2,C   0)   -179.9884         0.016553   
    141. D(C  10,C   3,C   2,C   0)      0.0187         0.016553   
    142. D(C   5,C   4,C   3,C  10)    179.9862         0.029944   
    143. D(H   8,C   4,C   3,C  10)     -0.0112         0.029944   
    144. D(H   8,C   4,C   3,C   2)    179.9965         0.029944   
    145. D(C   5,C   4,C   3,C   2)     -0.0061         0.029944   
    146. D(C   1,C   5,C   4,H   8)      0.0066         0.020557   
    147. D(C   6,C   5,C   4,H   8)   -179.9964         0.020557   
    148. D(C   6,C   5,C   4,C   3)      0.0062         0.020557   
    149. D(C   1,C   5,C   4,C   3)   -179.9908         0.020557   
    150. D(C   7,C   6,C   5,C   4)     -0.0064         0.018918   
    151. D(C  22,C   6,C   5,C   1)     -0.0059         0.018918   
    152. D(C   7,C   6,C   5,C   1)    179.9905         0.018918   
    153. D(C  22,C   6,C   5,C   4)    179.9972         0.018918   
    154. D(H   9,C   7,C   6,C  22)      0.0004         0.029564   
    155. D(C   2,C   7,C   6,C  22)   -179.9966         0.029564   
    156. D(C   2,C   7,C   6,C   5)      0.0071         0.029564   
    157. D(H   9,C   7,C   6,C   5)   -179.9959         0.029564   
    158. D(C   6,C   7,C   2,C   3)     -0.0073         0.017237   
    159. D(C   6,C   7,C   2,C   0)    179.9879         0.017237   
    160. D(H   9,C   7,C   2,C   3)    179.9957         0.017237   
    161. D(H   9,C   7,C   2,C   0)     -0.0091         0.017237   
    162. D(C  13,C  10,C   3,C   4)      0.0659         0.011611   
    163. D(C  13,C  10,C   3,C   2)   -179.9418         0.011611   
    164. D(H  12,C  10,C   3,C   4)    123.5889         0.011611   
    165. D(H  11,C  10,C   3,C   4)   -123.4564         0.011611   
    166. D(H  12,C  10,C   3,C   2)    -56.4188         0.011611   
    167. D(H  11,C  10,C   3,C   2)     56.5358         0.011611   
    168. D(H  14,C  13,C  10,C   3)    -58.2247         0.011089   
    169. D(C  16,C  13,C  10,H  11)    -57.0399         0.011089   
    170. D(C  16,C  13,C  10,C   3)   -179.9967         0.011089   
    171. D(H  15,C  13,C  10,H  12)    -64.7270         0.011089   
    172. D(H  15,C  13,C  10,H  11)   -178.8147         0.011089   
    173. D(H  15,C  13,C  10,C   3)     58.2286         0.011089   
    174. D(H  14,C  13,C  10,H  12)    178.8196         0.011089   
    175. D(C  16,C  13,C  10,H  12)     57.0477         0.011089   
    176. D(H  14,C  13,C  10,H  11)     64.7320         0.011089   
    177. D(C  19,C  16,C  13,H  15)    -57.8880         0.010873   
    178. D(C  19,C  16,C  13,C  10)   -179.9931         0.010873   
    179. D(H  18,C  16,C  13,H  15)    179.7905         0.010873   
    180. D(H  18,C  16,C  13,H  14)    -64.4211         0.010873   
    181. D(H  18,C  16,C  13,C  10)     57.6854         0.010873   
    182. D(H  17,C  16,C  13,H  15)     64.4355         0.010873   
    183. D(C  19,C  16,C  13,H  14)     57.9005         0.010873   
    184. D(H  17,C  16,C  13,H  14)   -179.7761         0.010873   
    185. D(H  17,C  16,C  13,C  10)    -57.6696         0.010873   
    186. D(H  35,C  19,C  16,H  18)    -57.8677         0.011092   
    187. D(H  35,C  19,C  16,H  17)     57.9074         0.011092   
    188. D(H  35,C  19,C  16,C  13)   -179.9794         0.011092   
    189. D(H  21,C  19,C  16,H  18)     62.2519         0.011092   
    190. D(H  21,C  19,C  16,H  17)    178.0271         0.011092   
    191. D(H  21,C  19,C  16,C  13)    -59.8598         0.011092   
    192. D(H  20,C  19,C  16,H  18)   -177.9884         0.011092   
    193. D(H  20,C  19,C  16,H  17)    -62.2132         0.011092   
    194. D(H  20,C  19,C  16,C  13)     59.8999         0.011092   
    195. D(C  25,C  22,C   6,C   5)    179.9724         0.011435   
    196. D(H  24,C  22,C   6,C   7)   -123.7588         0.011435   
    197. D(H  24,C  22,C   6,C   5)     56.2374         0.011435   
    198. D(H  23,C  22,C   6,C   5)    -56.2899         0.011435   
    199. D(C  25,C  22,C   6,C   7)     -0.0239         0.011435   
    200. D(H  23,C  22,C   6,C   7)    123.7138         0.011435   
    201. D(C  28,C  25,C  22,H  24)    -56.9814         0.011104   
    202. D(C  28,C  25,C  22,C   6)    179.9975         0.011104   
    203. D(H  27,C  25,C  22,H  24)   -178.6794         0.011104   
    204. D(H  27,C  25,C  22,H  23)    -64.7246         0.011104   
    205. D(H  27,C  25,C  22,C   6)     58.2995         0.011104   
    206. D(H  26,C  25,C  22,H  24)     64.7160         0.011104   
    207. D(C  28,C  25,C  22,H  23)     56.9734         0.011104   
    208. D(H  26,C  25,C  22,H  23)    178.6708         0.011104   
    209. D(H  26,C  25,C  22,C   6)    -58.3051         0.011104   
    210. D(C  31,C  28,C  25,H  27)    -57.8178         0.010858   
    211. D(C  31,C  28,C  25,H  26)     57.8028         0.010858   
    212. D(C  31,C  28,C  25,C  22)    179.9905         0.010858   
    213. D(H  30,C  28,C  25,H  27)    179.8526         0.010858   
    214. D(H  30,C  28,C  25,H  26)    -64.5268         0.010858   
    215. D(H  30,C  28,C  25,C  22)     57.6609         0.010858   
    216. D(H  29,C  28,C  25,H  27)     64.5111         0.010858   
    217. D(H  29,C  28,C  25,H  26)   -179.8683         0.010858   
    218. D(H  29,C  28,C  25,C  22)    -57.6806         0.010858   
    219. D(H  36,C  31,C  28,H  30)    -57.9050         0.011088   
    220. D(H  36,C  31,C  28,H  29)     57.8659         0.011088   
    221. D(H  36,C  31,C  28,C  25)    179.9805         0.011088   
    222. D(H  33,C  31,C  28,H  30)     62.2297         0.011088   
    223. D(H  33,C  31,C  28,H  29)    178.0005         0.011088   
    224. D(H  33,C  31,C  28,C  25)    -59.8849         0.011088   
    225. D(H  32,C  31,C  28,H  30)   -178.0387         0.011088   
    226. D(H  32,C  31,C  28,H  29)    -62.2678         0.011088   
    227. D(H  32,C  31,C  28,C  25)     59.8467         0.011088   
    228. D(C  42,C  37,C   5,C   6)     -0.0055         0.001500   
    229. D(C  42,C  37,C   5,C   4)    179.9667         0.001500   
    230. D(C  38,C  37,C   5,C   6)    179.9824         0.001500   
    231. D(C  38,C  37,C   5,C   4)     -0.0453         0.001500   
    232. D(H  45,C  38,C  37,C  42)   -179.9982         0.022489   
    233. D(H  45,C  38,C  37,C  34)     -0.0009         0.022489   
    234. D(C  39,C  38,C  37,C  42)      0.0028         0.022489   
    235. D(C  39,C  38,C  37,C  34)   -179.9998         0.022489   
    236. D(H  47,C  39,C  38,H  45)      0.0003         0.026236   
    237. D(H  47,C  39,C  38,C  37)    179.9993         0.026236   
    238. D(C  40,C  39,C  38,H  45)    179.9998         0.026236   
    239. D(C  40,C  39,C  38,C  37)     -0.0012         0.026236   
    240. D(H  43,C  40,C  39,H  47)     -0.0001         0.025017   
    241. D(H  43,C  40,C  39,C  38)   -179.9997         0.025017   
    242. D(C  41,C  40,C  39,H  47)    179.9992         0.025017   
    243. D(C  41,C  40,C  39,C  38)     -0.0003         0.025017   
    244. D(H  44,C  41,C  40,H  43)     -0.0002         0.025007   
    245. D(H  44,C  41,C  40,C  39)   -179.9995         0.025007   
    246. D(C  42,C  41,C  40,H  43)    179.9995         0.025007   
    247. D(C  42,C  41,C  40,C  39)      0.0001         0.025007   
    248. D(H  46,C  42,C  41,H  44)      0.0005         0.026236   
    249. D(H  46,C  42,C  41,C  40)   -179.9991         0.026236   
    250. D(C  37,C  42,C  41,H  44)   -179.9988         0.026236   
    251. D(C  37,C  42,C  41,C  40)      0.0016         0.026236   
    252. D(H  46,C  42,C  37,C  38)    179.9977         0.022497   
    253. D(H  46,C  42,C  37,C  34)      0.0003         0.022497   
    254. D(C  41,C  42,C  37,C  38)     -0.0030         0.022497   
    255. D(C  41,C  42,C  37,C  34)    179.9997         0.022497   
    -----------------------------------------------------------------

Number of atoms                         .... 48
Number of degrees of freedom            .... 255

         *************************************************************
         *                GEOMETRY OPTIMIZATION CYCLE   1            *
         *************************************************************
---------------------------------
CARTESIAN COORDINATES (ANGSTROEM)
---------------------------------
  C     -2.775358    0.046208   -0.011751
  C      2.820255    0.009685   -0.009139
  C     -1.416126   -0.010274   -0.011347
  C     -0.684648   -1.267420   -0.014386
  C      0.690490   -1.196208   -0.013389
  C      1.407047    0.036197   -0.009702
  C      0.687689    1.279681   -0.006696
  C     -0.690449    1.243926   -0.007610
  H      1.277162   -2.115524   -0.015523
  H     -1.268852    2.166837   -0.005472
  C     -1.480792   -2.555886   -0.018568
  H     -2.154671   -2.540740   -0.897146
  H     -2.157395   -2.544715    0.857974
  C     -0.681275   -3.861204   -0.020309
  H     -0.017862   -3.890851   -0.904058
  H     -0.020683   -3.894869    0.865412
  C     -1.579450   -5.104210   -0.024628
  H     -2.246605   -5.074150    0.856659
  H     -2.243576   -5.070198   -0.908059
  C     -0.790051   -6.415615   -0.026228
  H     -0.143052   -6.494872    0.864454
  H     -0.139497   -6.490536   -0.914694
  C      1.465882    2.581608   -0.002726
  H      2.141040    2.571608    0.872700
  H      2.142655    2.575943   -0.876938
  C      0.653075    3.878460   -0.000281
  H     -0.008622    3.909115   -0.885508
  H     -0.010403    3.904750    0.883750
  C      1.540606    5.129343    0.003729
  H      2.205493    5.100499    0.886927
  H      2.207479    5.104735   -0.878099
  C      0.741236    6.434757    0.005976
  H      0.090513    6.504407    0.894697
  H      0.093010    6.509016   -0.884195
  C      4.046121   -0.034213   -0.010003
  H     -1.460807   -7.289936   -0.029701
  H      1.404972    7.314510    0.009190
  C      5.469175   -0.089851   -0.009729
  C      6.140470   -1.334126   -0.012366
  C      7.533422   -1.384522   -0.012085
  C      8.284577   -0.203110   -0.009213
  C      7.630744    1.034879   -0.006618
  C      6.238242    1.096428   -0.006877
  H      9.376146   -0.247118   -0.009009
  H      8.211876    1.960203   -0.004379
  H      5.552872   -2.254102   -0.014605
  H      5.726741    2.060809   -0.004870
  H      8.038460   -2.353485   -0.014131

----------------------------
CARTESIAN COORDINATES (A.U.)
----------------------------
  NO LB      ZA    FRAG     MASS         X           Y           Z
   0 C     6.0000    0    12.011   -5.244666    0.087321   -0.022207
   1 C     6.0000    0    12.011    5.329509    0.018301   -0.017270
   2 C     6.0000    0    12.011   -2.676089   -0.019416   -0.021442
   3 C     6.0000    0    12.011   -1.293797   -2.395076   -0.027185
   4 C     6.0000    0    12.011    1.304836   -2.260506   -0.025301
   5 C     6.0000    0    12.011    2.658933    0.068402   -0.018335
   6 C     6.0000    0    12.011    1.299543    2.418247   -0.012654
   7 C     6.0000    0    12.011   -1.304760    2.350680   -0.014381
   8 H     1.0000    0     1.008    2.413486   -3.997762   -0.029334
   9 H     1.0000    0     1.008   -2.397782    4.094729   -0.010341
  10 C     6.0000    0    12.011   -2.798290   -4.829924   -0.035089
  11 H     1.0000    0     1.008   -4.071738   -4.801303   -1.695361
  12 H     1.0000    0     1.008   -4.076886   -4.808815    1.621335
  13 C     6.0000    0    12.011   -1.287423   -7.296619   -0.038379
  14 H     1.0000    0     1.008   -0.033755   -7.352643   -1.708423
  15 H     1.0000    0     1.008   -0.039085   -7.360237    1.635391
  16 C     6.0000    0    12.011   -2.984727   -9.645560   -0.046540
  17 H     1.0000    0     1.008   -4.245468   -9.588753    1.618850
  18 H     1.0000    0     1.008   -4.239743   -9.581286   -1.715982
  19 C     6.0000    0    12.011   -1.492981  -12.123756   -0.049565
  20 H     1.0000    0     1.008   -0.270330  -12.273529    1.633581
  21 H     1.0000    0     1.008   -0.263612  -12.265336   -1.728521
  22 C     6.0000    0    12.011    2.770115    4.878533   -0.005151
  23 H     1.0000    0     1.008    4.045979    4.859636    1.649164
  24 H     1.0000    0     1.008    4.049030    4.867828   -1.657173
  25 C     6.0000    0    12.011    1.234134    7.329228   -0.000530
  26 H     1.0000    0     1.008   -0.016293    7.387157   -1.673368
  27 H     1.0000    0     1.008   -0.019659    7.378908    1.670046
  28 C     6.0000    0    12.011    2.911324    9.693053    0.007046
  29 H     1.0000    0     1.008    4.167777    9.638546    1.676049
  30 H     1.0000    0     1.008    4.171531    9.646551   -1.659366
  31 C     6.0000    0    12.011    1.400732   12.159929    0.011293
  32 H     1.0000    0     1.008    0.171045   12.291547    1.690732
  33 H     1.0000    0     1.008    0.175763   12.300257   -1.670887
  34 C     6.0000    0    12.011    7.646061   -0.064654   -0.018903
  35 H     1.0000    0     1.008   -2.760524  -13.775982   -0.056127
  36 H     1.0000    0     1.008    2.655013   13.822421    0.017366
  37 C     6.0000    0    12.011   10.335243   -0.169794   -0.018386
  38 C     6.0000    0    12.011   11.603807   -2.521134   -0.023368
  39 C     6.0000    0    12.011   14.236105   -2.616367   -0.022838
  40 C     6.0000    0    12.011   15.655582   -0.383822   -0.017411
  41 C     6.0000    0    12.011   14.420016    1.955637   -0.012506
  42 C     6.0000    0    12.011   11.788569    2.071948   -0.012996
  43 H     1.0000    0     1.008   17.718348   -0.466986   -0.017025
  44 H     1.0000    0     1.008   15.518196    3.704247   -0.008274
  45 H     1.0000    0     1.008   10.493407   -4.259635   -0.027600
  46 H     1.0000    0     1.008   10.821971    3.894365   -0.009204
  47 H     1.0000    0     1.008   15.190487   -4.447442   -0.026704

--------------------------------
INTERNAL COORDINATES (ANGSTROEM)
--------------------------------
 C      0   0   0     0.000000000000     0.00000000     0.00000000
 C      1   0   0     5.595732004957     0.00000000     0.00000000
 C      1   2   0     1.360405191013     2.00560026     0.00000000
 C      3   1   2     1.454469918689   122.57268791   179.87546019
 C      4   3   1     1.376980208531   117.22867989   180.01155142
 C      2   1   3     1.413456756580     0.70078342   180.04362844
 C      6   2   5     1.436571908484   121.12406587   180.00302186
 C      7   6   2     1.378601847162   118.56311133   179.99054662
 H      5   4   3     1.090564627606   119.57987629   179.99649821
 H      8   7   6     1.089182455298   120.58966669   180.00407885
 C      4   3   1     1.514598143512   118.09498938     0.00000000
 H     11   4   3     1.107357915994   108.08554859    56.53583569
 H     11   4   3     1.107358659164   108.08373428   303.58115156
 C     11   4   3     1.530714496630   116.80037928   180.05817528
 H     14  11   4     1.105444583233   109.70863920   301.77526421
 H     14  11   4     1.105448465363   109.70533933    58.22859475
 C     14  11   4     1.533558086370   112.66110580   180.00330784
 H     17  14  11     1.105742166080   109.21375501   302.33041719
 H     17  14  11     1.105743859162   109.21334405    57.68537949
 C     17  14  11     1.530665064032   113.10306867   180.00694348
 H     20  17  14     1.103723193693   111.28414541    59.89992599
 H     20  17  14     1.103723017427   111.28296697   300.14024706
 C      7   6   2     1.516777664683   119.08294731     0.00000000
 H     23   7   6     1.105580701721   107.91606339   303.71010560
 H     23   7   6     1.105577037297   107.91447122    56.23744248
 C     23   7   6     1.530518232004   117.05478261   179.97241633
 H     26  23   7     1.105627075376   109.87974588   301.69490823
 H     26  23   7     1.105624501298   109.88387152    58.29948684
 C     26  23   7     1.533764592831   112.56596694   179.99750909
 H     29  26  23     1.105868820719   109.19151540   302.31939451
 H     29  26  23     1.105867991045   109.19103182    57.66089109
 C     29  26  23     1.530720359307   113.16229135   179.99053427
 H     32  29  26     1.103682689923   111.27816991    59.84672670
 H     32  29  26     1.103682976140   111.27899091   300.11506728
 C      2   1   3     1.226652884749   178.32176436     2.01506262
 H     20  17  14     1.101980315981   111.45985788   180.02058279
 H     32  29  26     1.102053733118   111.48590918   179.98045027
 C     35   2   6     1.424140703761   179.80499042   341.01984994
 C     38  35   2     1.413812362503   120.58607539    15.40693246
 C     39  38  35     1.393863497676   120.41908479   180.00015779
 C     40  39  38     1.399991502332   120.37661057     0.00000000
 C     41  40  39     1.400042963895   119.71107387     0.00000000
 C     42  41  40     1.393861490907   120.37116468     0.00000000
 H     41  40  39     1.092455893739   120.13987717   180.00034672
 H     42  41  40     1.092677705168   120.02965548   180.00046773
 H     39  38  35     1.091618719799   119.08613018     0.00000000
 H     43  42  41     1.091636261109   120.47192886   180.00086835
 H     40  39  38     1.092683124259   119.60108407   179.99928286

---------------------------
INTERNAL COORDINATES (A.U.)
---------------------------
 C      0   0   0     0.000000000000     0.00000000     0.00000000
 C      1   0   0    10.574401008187     0.00000000     0.00000000
 C      1   2   0     2.570793242180     2.00560026     0.00000000
 C      3   1   2     2.748549816349   122.57268791   179.87546019
 C      4   3   1     2.602115485954   117.22867989   180.01155142
 C      2   1   3     2.671046172077     0.70078342   180.04362844
 C      6   2   5     2.714727478719   121.12406587   180.00302186
 C      7   6   2     2.605179938854   118.56311133   179.99054662
 H      5   4   3     2.060868477517   119.57987629   179.99649821
 H      8   7   6     2.058256550386   120.58966669   180.00407885
 C      4   3   1     2.862175694184   118.09498938     0.00000000
 H     11   4   3     2.092603193458   108.08554859    56.53583569
 H     11   4   3     2.092604597845   108.08373428   303.58115156
 C     11   4   3     2.892631187855   116.80037928   180.05817528
 H     14  11   4     2.088987518538   109.70863920   301.77526421
 H     14  11   4     2.088994854700   109.70533933    58.22859475
 C     14  11   4     2.898004793701   112.66110580   180.00330784
 H     17  14  11     2.089549868619   109.21375501   302.33041719
 H     17  14  11     2.089553068082   109.21334405    57.68537949
 C     17  14  11     2.892537773781   113.10306867   180.00694348
 H     20  17  14     2.085734563736   111.28414541    59.89992599
 H     20  17  14     2.085734230642   111.28296697   300.14024706
 C      7   6   2     2.866294392300   119.08294731     0.00000000
 H     23   7   6     2.089244745201   107.91606339   303.71010560
 H     23   7   6     2.089237820443   107.91447122    56.23744248
 C     23   7   6     2.892260301461   117.05478261   179.97241633
 H     26  23   7     2.089332378710   109.87974588   301.69490823
 H     26  23   7     2.089327514406   109.88387152    58.29948684
 C     26  23   7     2.898395034356   112.56596694   179.99750909
 H     29  26  23     2.089789211202   109.19151540   302.31939451
 H     29  26  23     2.089787643345   109.19103182    57.66089109
 C     29  26  23     2.892642266708   113.16229135   179.99053427
 H     32  29  26     2.085658022704   111.27816991    59.84672670
 H     32  29  26     2.085658563575   111.27899091   300.11506728
 C      2   1   3     2.318038013559   178.32176436     2.01506262
 H     20  17  14     2.082441002175   111.45985788   180.02058279
 H     32  29  26     2.082579740458   111.48590918   179.98045027
 C     35   2   6     2.691235906278   179.80499042   341.01984994
 C     38  35   2     2.671718169883   120.58607539    15.40693246
 C     39  38  35     2.634020278678   120.41908479   180.00015779
 C     40  39  38     2.645600529224   120.37661057     0.00000000
 C     41  40  39     2.645697777485   119.71107387     0.00000000
 C     42  41  40     2.634016486433   120.37116468     0.00000000
 H     41  40  39     2.064442452556   120.13987717   180.00034672
 H     42  41  40     2.064861615409   120.02965548   180.00046773
 H     39  38  35     2.062860423082   119.08613018     0.00000000
 H     43  42  41     2.062893571354   120.47192886   180.00086835
 H     40  39  38     2.064871856006   119.60108407   179.99928286

---------------------
BASIS SET INFORMATION
---------------------
There are 2 groups of distinct atoms

 Group   1 Type C   : 17s4p1d contracted to 3s2p1d pattern {881/31/1}
 Group   2 Type H   : 4s1p contracted to 2s1p pattern {31/1}

Atom   0C    basis set group =>   1
Atom   1C    basis set group =>   1
Atom   2C    basis set group =>   1
Atom   3C    basis set group =>   1
Atom   4C    basis set group =>   1
Atom   5C    basis set group =>   1
Atom   6C    basis set group =>   1
Atom   7C    basis set group =>   1
Atom   8H    basis set group =>   2
Atom   9H    basis set group =>   2
Atom  10C    basis set group =>   1
Atom  11H    basis set group =>   2
Atom  12H    basis set group =>   2
Atom  13C    basis set group =>   1
Atom  14H    basis set group =>   2
Atom  15H    basis set group =>   2
Atom  16C    basis set group =>   1
Atom  17H    basis set group =>   2
Atom  18H    basis set group =>   2
Atom  19C    basis set group =>   1
Atom  20H    basis set group =>   2
Atom  21H    basis set group =>   2
Atom  22C    basis set group =>   1
Atom  23H    basis set group =>   2
Atom  24H    basis set group =>   2
Atom  25C    basis set group =>   1
Atom  26H    basis set group =>   2
Atom  27H    basis set group =>   2
Atom  28C    basis set group =>   1
Atom  29H    basis set group =>   2
Atom  30H    basis set group =>   2
Atom  31C    basis set group =>   1
Atom  32H    basis set group =>   2
Atom  33H    basis set group =>   2
Atom  34C    basis set group =>   1
Atom  35H    basis set group =>   2
Atom  36H    basis set group =>   2
Atom  37C    basis set group =>   1
Atom  38C    basis set group =>   1
Atom  39C    basis set group =>   1
Atom  40C    basis set group =>   1
Atom  41C    basis set group =>   1
Atom  42C    basis set group =>   1
Atom  43H    basis set group =>   2
Atom  44H    basis set group =>   2
Atom  45H    basis set group =>   2
Atom  46H    basis set group =>   2
Atom  47H    basis set group =>   2
---------------------------------
AUXILIARY/J BASIS SET INFORMATION
---------------------------------
There are 2 groups of distinct atoms

 Group   1 Type C   : 12s5p4d2f1g contracted to 6s4p3d1f1g pattern {711111/2111/211/2/1}
 Group   2 Type H   : 5s2p1d contracted to 3s1p1d pattern {311/2/1}

Atom   0C    basis set group =>   1
Atom   1C    basis set group =>   1
Atom   2C    basis set group =>   1
Atom   3C    basis set group =>   1
Atom   4C    basis set group =>   1
Atom   5C    basis set group =>   1
Atom   6C    basis set group =>   1
Atom   7C    basis set group =>   1
Atom   8H    basis set group =>   2
Atom   9H    basis set group =>   2
Atom  10C    basis set group =>   1
Atom  11H    basis set group =>   2
Atom  12H    basis set group =>   2
Atom  13C    basis set group =>   1
Atom  14H    basis set group =>   2
Atom  15H    basis set group =>   2
Atom  16C    basis set group =>   1
Atom  17H    basis set group =>   2
Atom  18H    basis set group =>   2
Atom  19C    basis set group =>   1
Atom  20H    basis set group =>   2
Atom  21H    basis set group =>   2
Atom  22C    basis set group =>   1
Atom  23H    basis set group =>   2
Atom  24H    basis set group =>   2
Atom  25C    basis set group =>   1
Atom  26H    basis set group =>   2
Atom  27H    basis set group =>   2
Atom  28C    basis set group =>   1
Atom  29H    basis set group =>   2
Atom  30H    basis set group =>   2
Atom  31C    basis set group =>   1
Atom  32H    basis set group =>   2
Atom  33H    basis set group =>   2
Atom  34C    basis set group =>   1
Atom  35H    basis set group =>   2
Atom  36H    basis set group =>   2
Atom  37C    basis set group =>   1
Atom  38C    basis set group =>   1
Atom  39C    basis set group =>   1
Atom  40C    basis set group =>   1
Atom  41C    basis set group =>   1
Atom  42C    basis set group =>   1
Atom  43H    basis set group =>   2
Atom  44H    basis set group =>   2
Atom  45H    basis set group =>   2
Atom  46H    basis set group =>   2
Atom  47H    basis set group =>   2


           ************************************************************
           *        Program running with 16 parallel MPI-processes    *
           *              working on a common directory               *
           ************************************************************
------------------------------------------------------------------------------
                           ORCA GTO INTEGRAL CALCULATION
                           -- RI-GTO INTEGRALS CHOSEN --
------------------------------------------------------------------------------
------------------------------------------------------------------------------
                   ___                                                        
                  /   \      - P O W E R E D   B Y -                         
                 /     \                                                     
                 |  |  |   _    _      __       _____    __    __             
                 |  |  |  | |  | |    /  \     |  _  \  |  |  /  |          
                  \  \/   | |  | |   /    \    | | | |  |  | /  /          
                 / \  \   | |__| |  /  /\  \   | |_| |  |  |/  /          
                |  |  |   |  __  | /  /__\  \  |    /   |      \           
                |  |  |   | |  | | |   __   |  |    \   |  |\   \          
                \     /   | |  | | |  |  |  |  | |\  \  |  | \   \       
                 \___/    |_|  |_| |__|  |__|  |_| \__\ |__|  \__/        
                                                                              
                      - O R C A' S   B I G   F R I E N D -                    
                                      &                                       
                       - I N T E G R A L  F E E D E R -                       
                                                                              
 v1 FN, 2020, v2 2021                                                         
------------------------------------------------------------------------------


Reading SHARK input file opt_cc-pVDZ.SHARKINP.tmp ... ok
----------------------
SHARK INTEGRAL PACKAGE
----------------------

Number of atoms                             ...     48
Number of basis functions                   ...    585
Number of shells                            ...    351
Maximum angular momentum                    ...      2
Integral batch strategy                     ... SHARK/LIBINT Hybrid
RI-J (if used) integral strategy            ... SPLIT-RIJ (Revised 2003 algorithm where possible)
Printlevel                                  ...      1
Contraction scheme used                     ... PARTIAL GENERAL contraction
Coulomb Range Separation                    ... NOT USED
Exchange Range Separation                   ... NOT USED
Finite Nucleus Model                        ... NOT USED
Auxiliary Coulomb fitting basis             ... AVAILABLE
   # of basis functions in Aux-J            ...   1402
   # of shells in Aux-J                     ...    470
   Maximum angular momentum in Aux-J        ...      4
Auxiliary J/K fitting basis                 ... NOT available
Auxiliary Correlation fitting basis         ... NOT available
Auxiliary 'external' fitting basis          ... NOT available
Integral threshold                          ...     2.500000e-11
Primitive cut-off                           ...     2.500000e-12
Primitive pair pre-selection threshold      ...     2.500000e-12

Calculating pre-screening integrals         ... done (  0.0 sec) Dimension = 351
Calculating pre-screening integrals (ORCA)  ... done (  0.1 sec) Dimension = 213
Organizing shell pair data                  ... done (  0.2 sec)
Shell pair information
Total number of shell pairs                 ...     61776
Shell pairs after pre-screening             ...     25182
Total number of primitive shell pairs       ...    100272
Primitive shell pairs kept                  ...     34295
          la=0 lb=0:  10965 shell pairs
          la=1 lb=0:   8889 shell pairs
          la=1 lb=1:   1576 shell pairs
          la=2 lb=0:   2657 shell pairs
          la=2 lb=1:    942 shell pairs
          la=2 lb=2:    153 shell pairs

Calculating one electron integrals          ... done (  0.0 sec)
Calculating RI/J V-Matrix + Cholesky decomp.... done (  0.2 sec)
Calculating Nuclear repulsion               ... done (  0.0 sec) ENN=   1629.446539159833 Eh

SHARK setup successfully completed in   1.1 seconds

Maximum memory used throughout the entire GTOINT-calculation: 36.3 MB


           ************************************************************
           *        Program running with 16 parallel MPI-processes    *
           *              working on a common directory               *
           ************************************************************
-------------------------------------------------------------------------------
                                 ORCA SCF
-------------------------------------------------------------------------------

------------
SCF SETTINGS
------------
Hamiltonian:
 Density Functional     Method          .... DFT(GTOs)
 Exchange Functional    Exchange        .... B88
   X-Alpha parameter    XAlpha          ....  0.666667
   Becke's b parameter  XBeta           ....  0.004200
 Correlation Functional Correlation     .... LYP
 LDA part of GGA corr.  LDAOpt          .... VWN-5
 Gradients option       PostSCFGGA      .... off
 Hybrid DFT is turned on
   Fraction HF Exchange ScalHFX         ....  0.200000
   Scaling of DF-GGA-X  ScalDFX         ....  0.720000
   Scaling of DF-GGA-C  ScalDFC         ....  0.810000
   Scaling of DF-LDA-C  ScalLDAC        ....  1.000000
   Perturbative correction              ....  0.000000
   Density functional embedding theory  .... OFF
   NL short-range parameter             ....  4.800000
 RI-approximation to the Coulomb term is turned on
   Number of AuxJ basis functions       .... 1402
   RIJ-COSX (HFX calculated with COS-X)).... on


General Settings:
 Integral files         IntName         .... opt_cc-pVDZ
 Hartree-Fock type      HFTyp           .... UHF
 Total Charge           Charge          ....    0
 Multiplicity           Mult            ....    2
 Number of Electrons    NEL             ....  163
 Basis Dimension        Dim             ....  447
 Nuclear Repulsion      ENuc            ....   1629.4465391598 Eh

Convergence Acceleration:
 DIIS                   CNVDIIS         .... on
   Start iteration      DIISMaxIt       ....    12
   Startup error        DIISStart       ....  0.200000
   # of expansion vecs  DIISMaxEq       ....     5
   Bias factor          DIISBfac        ....   1.050
   Max. coefficient     DIISMaxC        ....  10.000
 Trust-Rad. Augm. Hess. CNVTRAH         .... auto
   Auto Start mean grad. ratio tolernc. ....  1.125000
   Auto Start start iteration           ....    20
   Auto Start num. interpolation iter.  ....    10
   Max. Number of Micro iterations      ....    16
   Max. Number of Macro iterations      .... Maxiter - #DIIS iter
   Number of Davidson start vectors     ....     2
   Converg. threshold I  (grad. norm)   ....   1.000e-05
   Converg. threshold II (energy diff.) ....   1.000e-08
   Grad. Scal. Fac. for Micro threshold ....   0.100
   Minimum threshold for Micro iter.    ....   0.010
   NR start threshold (gradient norm)   ....   0.001
   Initial trust radius                 ....   0.400
   Minimum AH scaling param. (alpha)    ....   1.000
   Maximum AH scaling param. (alpha)    .... 1000.000
   Orbital update algorithm             .... Taylor
   White noise on init. David. guess    .... on
   Maximum white noise                  ....   0.010
   Quad. conv. algorithm                .... NR
 SOSCF                  CNVSOSCF        .... off
 Level Shifting         CNVShift        .... on
   Level shift para.    LevelShift      ....    0.2500
   Turn off err/grad.   ShiftErr        ....    0.0010
 Zerner damping         CNVZerner       .... off
 Static damping         CNVDamp         .... on
   Fraction old density DampFac         ....    0.7000
   Max. Damping (<1)    DampMax         ....    0.9800
   Min. Damping (>=0)   DampMin         ....    0.0000
   Turn off err/grad.   DampErr         ....    0.1000
 Fernandez-Rico         CNVRico         .... off

SCF Procedure:
 Maximum # iterations   MaxIter         ....   125
 SCF integral mode      SCFMode         .... Direct
   Integral package                     .... SHARK and LIBINT hybrid scheme
 Reset frequency        DirectResetFreq ....    20
 Integral Threshold     Thresh          ....  2.500e-11 Eh
 Primitive CutOff       TCut            ....  2.500e-12 Eh

Convergence Tolerance:
 Convergence Check Mode ConvCheckMode   .... Total+1el-Energy
 Convergence forced     ConvForced      .... 0
 Energy Change          TolE            ....  1.000e-08 Eh
 1-El. energy change                    ....  1.000e-05 Eh
 DIIS Error             TolErr          ....  5.000e-07


Diagonalization of the overlap matrix:
Smallest eigenvalue                        ... 5.274e-05
Time for diagonalization                   ...    0.049 sec
Threshold for overlap eigenvalues          ... 1.000e-08
Number of eigenvalues below threshold      ... 0
Time for construction of square roots      ...    0.041 sec
Total time needed                          ...    0.092 sec

Time for model grid setup =    0.342 sec

------------------------------
INITIAL GUESS: MODEL POTENTIAL
------------------------------
Loading Hartree-Fock densities                     ... done
Calculating cut-offs                               ... done
Initializing the effective Hamiltonian             ... done
Setting up the integral package (SHARK)            ... done
Starting the Coulomb interaction                   ... done (   0.3 sec)
Reading the grid                                   ... done
Mapping shells                                     ... done
Starting the XC term evaluation                    ... done (   0.1 sec)
  promolecular density results
     # of electrons  =    162.999359129
     EX              =   -125.515546427
     EC              =     -5.360179565
     EX+EC           =   -130.875725992
Transforming the Hamiltonian                       ... done (   0.0 sec)
Diagonalizing the Hamiltonian                      ... done (   0.0 sec)
Back transforming the eigenvectors                 ... done (   0.0 sec)
Now organizing SCF variables                       ... done
                      ------------------
                      INITIAL GUESS DONE (   1.1 sec)
                      ------------------
-------------------
DFT GRID GENERATION
-------------------

General Integration Accuracy     IntAcc      ... 4.388
Radial Grid Type                 RadialGrid  ... OptM3 with GC (2021)
Angular Grid (max. ang.)         AngularGrid ... 4 (Lebedev-302)
Angular grid pruning method      GridPruning ... 4 (adaptive)
Weight generation scheme         WeightScheme... Becke
Basis function cutoff            BFCut       ... 1.0000e-11
Integration weight cutoff        WCut        ... 1.0000e-14
Angular grids for H and He will be reduced by one unit
Partially contracted basis set               ... off
Rotationally invariant grid construction     ... off

Total number of grid points                  ...   217077
Total number of batches                      ...     3415
Average number of points per batch           ...       63
Average number of grid points per atom       ...     4522
Time for grid setup =    1.398 sec

--------------------
COSX GRID GENERATION
--------------------

GRIDX 1
-------
General Integration Accuracy     IntAcc      ... 3.816
Radial Grid Type                 RadialGrid  ... OptM3 with GC (2021)
Angular Grid (max. ang.)         AngularGrid ... 1 (Lebedev-50)
Angular grid pruning method      GridPruning ... 4 (adaptive)
Weight generation scheme         WeightScheme... Becke
Basis function cutoff            BFCut       ... 1.0000e-11
Integration weight cutoff        WCut        ... 1.0000e-14
Angular grids for H and He will be reduced by one unit
Partially contracted basis set               ... on
Rotationally invariant grid construction     ... off

Total number of grid points                  ...    27664
Total number of batches                      ...      458
Average number of points per batch           ...       60
Average number of grid points per atom       ...      576
UseSFitting                                  ... on

GRIDX 2
-------
General Integration Accuracy     IntAcc      ... 4.020
Radial Grid Type                 RadialGrid  ... OptM3 with GC (2021)
Angular Grid (max. ang.)         AngularGrid ... 2 (Lebedev-110)
Angular grid pruning method      GridPruning ... 4 (adaptive)
Weight generation scheme         WeightScheme... Becke
Basis function cutoff            BFCut       ... 1.0000e-11
Integration weight cutoff        WCut        ... 1.0000e-14
Angular grids for H and He will be reduced by one unit
Partially contracted basis set               ... on
Rotationally invariant grid construction     ... off

Total number of grid points                  ...    58871
Total number of batches                      ...      945
Average number of points per batch           ...       62
Average number of grid points per atom       ...     1226
UseSFitting                                  ... on

GRIDX 3
-------
General Integration Accuracy     IntAcc      ... 4.338
Radial Grid Type                 RadialGrid  ... OptM3 with GC (2021)
Angular Grid (max. ang.)         AngularGrid ... 3 (Lebedev-194)
Angular grid pruning method      GridPruning ... 4 (adaptive)
Weight generation scheme         WeightScheme... Becke
Basis function cutoff            BFCut       ... 1.0000e-11
Integration weight cutoff        WCut        ... 1.0000e-14
Angular grids for H and He will be reduced by one unit
Partially contracted basis set               ... on
Rotationally invariant grid construction     ... off

Total number of grid points                  ...   128758
Total number of batches                      ...     2038
Average number of points per batch           ...       63
Average number of grid points per atom       ...     2682
UseSFitting                                  ... on

Time for X-Grid setup             =    2.422 sec

 re-compute Schwartz prescreening matrix in partically contracted basis (1) ...done (   0.122 sec)
--------------
SCF ITERATIONS
--------------
ITER       Energy         Delta-E        Max-DP      RMS-DP      [F,P]     Damp
               ***  Starting incremental Fock matrix formation  ***
  0   -890.2040866099   0.000000000000 0.07619560  0.00088180  0.0870777 0.7000
  1   -890.4521238888  -0.248037278916 0.06260304  0.00067656  0.0458502 0.7000
                               ***Turning on DIIS***
  2   -890.5576194218  -0.105495533057 0.12104312  0.00124030  0.0185416 0.0000
  3   -890.7050083868  -0.147388964984 0.03210933  0.00040301  0.0268237 0.0000
  4   -890.7485282782  -0.043519891387 0.01452412  0.00013924  0.0076535 0.0000
  5   -890.7514885454  -0.002960267210 0.00441694  0.00004722  0.0061289 0.0000
  6   -890.7520212745  -0.000532729066 0.00372785  0.00002818  0.0027697 0.0000
  7   -890.7522504409  -0.000229166378 0.00333754  0.00002051  0.0018902 0.0000
  8   -890.7523723423  -0.000121901410 0.00274741  0.00001671  0.0016048 0.0000
  9   -890.7524491251  -0.000076782861 0.00337622  0.00002680  0.0009736 0.0000
               *** Restarting incremental Fock matrix formation ***
                                   *** Resetting DIIS ***
 10   -890.7527740472  -0.000324922093 0.00161985  0.00001145  0.0004779 0.0000
 11   -890.7527737895   0.000000257772 0.00040200  0.00000533  0.0006374 0.0000
 12   -890.7527806316  -0.000006842184 0.00024182  0.00000251  0.0002245 0.0000
 13   -890.7527815017  -0.000000870017 0.00033928  0.00000233  0.0001981 0.0000
 14   -890.7527821050  -0.000000603297 0.00018763  0.00000154  0.0001261 0.0000
 15   -890.7527823202  -0.000000215285 0.00006550  0.00000067  0.0000368 0.0000
 16   -890.7527823475  -0.000000027277 0.00003075  0.00000031  0.0000198 0.0000
 17   -890.7527823622  -0.000000014690 0.00001469  0.00000015  0.0000066 0.0000
 18   -890.7527823874  -0.000000025149 0.00000749  0.00000009  0.0000068 0.0000
 19   -890.7527823769   0.000000010499 0.00000631  0.00000008  0.0000061 0.0000
 20   -890.7527823726   0.000000004264 0.00000766  0.00000008  0.0000052 0.0000
 21   -890.7527823787  -0.000000006090 0.00000636  0.00000007  0.0000034 0.0000
 22   -890.7527823910  -0.000000012277 0.00000705  0.00000007  0.0000031 0.0000
 23   -890.7527823803   0.000000010664 0.00000539  0.00000006  0.0000029 0.0000
 24   -890.7527823856  -0.000000005269 0.00000987  0.00000007  0.0000026 0.0000
 25   -890.7527823978  -0.000000012242 0.00000860  0.00000007  0.0000023 0.0000
 26   -890.7527823980  -0.000000000163 0.00000943  0.00000007  0.0000021 0.0000
 27   -890.7527823889   0.000000009120 0.00000737  0.00000007  0.0000019 0.0000
                 **** Energy Check signals convergence ****

               *****************************************************
               *                     SUCCESS                       *
               *           SCF CONVERGED AFTER  28 CYCLES          *
               *****************************************************

Old exchange energy                            =    -25.597159579 Eh
New exchange energy                            =    -25.597257993 Eh
Exchange energy change after final integration =     -0.000098414 Eh
Total energy after final integration           =   -890.752880806 Eh
Final COS-X integration done in                =     7.762 sec

----------------
TOTAL SCF ENERGY
----------------

Total Energy       :         -890.75288081 Eh          -24238.61815 eV

Components:
Nuclear Repulsion  :         1629.44653916 Eh           44339.49451 eV
Electronic Energy  :        -2520.19941997 Eh          -68578.11266 eV
One Electron Energy:        -4436.51362101 Eh         -120723.67310 eV
Two Electron Energy:         1916.31420104 Eh           52145.56044 eV
Max COSX asymmetry :            0.00000073 Eh               0.00002 eV

Virial components:
Potential Energy   :        -1775.34355840 Eh          -48309.55423 eV
Kinetic Energy     :          884.59067759 Eh           24070.93608 eV
Virial Ratio       :            2.00696616


DFT components:
N(Alpha)           :       82.000185446424 electrons
N(Beta)            :       81.000186899854 electrons
N(Total)           :      163.000372346277 electrons
E(X)               :     -101.510690186205 Eh       
E(C)               :       -6.329609872760 Eh       
E(XC)              :     -107.840300058966 Eh       
DFET-embed. en.    :        0.000000000000 Eh       

---------------
SCF CONVERGENCE
---------------

  Last Energy change         ...   -3.1029e-09  Tolerance :   1.0000e-08
  Last MAX-Density change    ...    0.0000e+00  Tolerance :   1.0000e-07
  Last RMS-Density change    ...    0.0000e+00  Tolerance :   5.0000e-09
  Last DIIS Error            ...    1.7365e-06  Tolerance :   5.0000e-07

             **** THE GBW FILE WAS UPDATED (opt_cc-pVDZ.gbw) ****
             **** DENSITY opt_cc-pVDZ.scfp WAS UPDATED ****
             **** ENERGY FILE WAS UPDATED (opt_cc-pVDZ.en.tmp) ****
----------------------
UHF SPIN CONTAMINATION
----------------------

Warning: in a DFT calculation there is little theoretical justification to 
         calculate <S**2> as in Hartree-Fock theory. We will do it anyways
         but you should keep in mind that the values have only limited relevance

Expectation value of <S**2>     :     0.795816
Ideal value S*(S+1) for S=0.5   :     0.750000
Deviation                       :     0.045816

             **** THE GBW FILE WAS UPDATED (opt_cc-pVDZ.gbw) ****
             **** DENSITY opt_cc-pVDZ.scfp WAS UPDATED ****
----------------
ORBITAL ENERGIES
----------------
                 SPIN UP ORBITALS
  NO   OCC          E(Eh)            E(eV) 
   0   1.0000     -10.244413      -278.7646 
   1   1.0000     -10.218491      -278.0593 
   2   1.0000     -10.218162      -278.0503 
   3   1.0000     -10.215825      -277.9867 
   4   1.0000     -10.207877      -277.7705 
   5   1.0000     -10.207316      -277.7552 
   6   1.0000     -10.199668      -277.5471 
   7   1.0000     -10.199544      -277.5437 
   8   1.0000     -10.199328      -277.5378 
   9   1.0000     -10.198150      -277.5058 
  10   1.0000     -10.197790      -277.4960 
  11   1.0000     -10.197173      -277.4792 
  12   1.0000     -10.197044      -277.4757 
  13   1.0000     -10.196271      -277.4546 
  14   1.0000     -10.195018      -277.4205 
  15   1.0000     -10.191504      -277.3249 
  16   1.0000     -10.191339      -277.3204 
  17   1.0000     -10.187273      -277.2098 
  18   1.0000     -10.185412      -277.1592 
  19   1.0000     -10.185314      -277.1565 
  20   1.0000     -10.184654      -277.1385 
  21   1.0000     -10.178466      -276.9701 
  22   1.0000     -10.177676      -276.9486 
  23   1.0000      -0.881064       -23.9750 
  24   1.0000      -0.865809       -23.5599 
  25   1.0000      -0.825088       -22.4518 
  26   1.0000      -0.803219       -21.8567 
  27   1.0000      -0.799708       -21.7612 
  28   1.0000      -0.781500       -21.2657 
  29   1.0000      -0.772291       -21.0151 
  30   1.0000      -0.753398       -20.5010 
  31   1.0000      -0.740924       -20.1616 
  32   1.0000      -0.728376       -19.8201 
  33   1.0000      -0.706054       -19.2127 
  34   1.0000      -0.677593       -18.4382 
  35   1.0000      -0.657769       -17.8988 
  36   1.0000      -0.630701       -17.1622 
  37   1.0000      -0.618761       -16.8373 
  38   1.0000      -0.611120       -16.6294 
  39   1.0000      -0.599528       -16.3140 
  40   1.0000      -0.583323       -15.8730 
  41   1.0000      -0.568439       -15.4680 
  42   1.0000      -0.550006       -14.9664 
  43   1.0000      -0.534610       -14.5475 
  44   1.0000      -0.513445       -13.9715 
  45   1.0000      -0.483409       -13.1542 
  46   1.0000      -0.482137       -13.1196 
  47   1.0000      -0.476501       -12.9662 
  48   1.0000      -0.473594       -12.8871 
  49   1.0000      -0.459928       -12.5153 
  50   1.0000      -0.440620       -11.9899 
  51   1.0000      -0.438008       -11.9188 
  52   1.0000      -0.429660       -11.6916 
  53   1.0000      -0.429354       -11.6833 
  54   1.0000      -0.427133       -11.6229 
  55   1.0000      -0.426360       -11.6019 
  56   1.0000      -0.421406       -11.4671 
  57   1.0000      -0.414987       -11.2924 
  58   1.0000      -0.409702       -11.1486 
  59   1.0000      -0.389051       -10.5866 
  60   1.0000      -0.381452       -10.3798 
  61   1.0000      -0.376340       -10.2407 
  62   1.0000      -0.371410       -10.1066 
  63   1.0000      -0.367093        -9.9891 
  64   1.0000      -0.362767        -9.8714 
  65   1.0000      -0.362558        -9.8657 
  66   1.0000      -0.352575        -9.5941 
  67   1.0000      -0.347444        -9.4544 
  68   1.0000      -0.337803        -9.1921 
  69   1.0000      -0.334223        -9.0947 
  70   1.0000      -0.333962        -9.0876 
  71   1.0000      -0.330044        -8.9810 
  72   1.0000      -0.326359        -8.8807 
  73   1.0000      -0.325538        -8.8583 
  74   1.0000      -0.324763        -8.8373 
  75   1.0000      -0.294028        -8.0009 
  76   1.0000      -0.289600        -7.8804 
  77   1.0000      -0.271363        -7.3842 
  78   1.0000      -0.261934        -7.1276 
  79   1.0000      -0.260014        -7.0754 
  80   1.0000      -0.237566        -6.4645 
  81   1.0000      -0.174207        -4.7404 
  82   0.0000      -0.103544        -2.8176 
  83   0.0000      -0.040832        -1.1111 
  84   0.0000      -0.013128        -0.3572 
  85   0.0000      -0.008957        -0.2437 
  86   0.0000       0.015147         0.4122 
  87   0.0000       0.041032         1.1165 
  88   0.0000       0.051759         1.4084 
  89   0.0000       0.058465         1.5909 
  90   0.0000       0.061473         1.6728 
  91   0.0000       0.076835         2.0908 
  92   0.0000       0.080701         2.1960 
  93   0.0000       0.085147         2.3170 
  94   0.0000       0.086796         2.3618 
  95   0.0000       0.090512         2.4630 
  96   0.0000       0.091656         2.4941 
  97   0.0000       0.099093         2.6965 
  98   0.0000       0.101053         2.7498 
  99   0.0000       0.110949         3.0191 
 100   0.0000       0.123619         3.3638 
 101   0.0000       0.127105         3.4587 
 102   0.0000       0.135693         3.6924 
 103   0.0000       0.140769         3.8305 
 104   0.0000       0.141340         3.8461 
 105   0.0000       0.144130         3.9220 
 106   0.0000       0.150145         4.0857 
 107   0.0000       0.153147         4.1673 
 108   0.0000       0.155816         4.2400 
 109   0.0000       0.158412         4.3106 
 110   0.0000       0.159000         4.3266 
 111   0.0000       0.161648         4.3987 
 112   0.0000       0.170374         4.6361 
 113   0.0000       0.171543         4.6679 
 114   0.0000       0.173066         4.7094 
 115   0.0000       0.196723         5.3531 
 116   0.0000       0.202321         5.5054 
 117   0.0000       0.207173         5.6375 
 118   0.0000       0.209994         5.7142 
 119   0.0000       0.215042         5.8516 
 120   0.0000       0.220212         5.9923 
 121   0.0000       0.233012         6.3406 
 122   0.0000       0.237958         6.4752 
 123   0.0000       0.263932         7.1820 
 124   0.0000       0.267027         7.2662 
 125   0.0000       0.277092         7.5401 
 126   0.0000       0.281326         7.6553 
 127   0.0000       0.290445         7.9034 
 128   0.0000       0.299175         8.1410 
 129   0.0000       0.309228         8.4145 
 130   0.0000       0.323212         8.7951 
 131   0.0000       0.331649         9.0246 
 132   0.0000       0.346306         9.4235 
 133   0.0000       0.357709         9.7337 
 134   0.0000       0.368928        10.0390 
 135   0.0000       0.375618        10.2211 
 136   0.0000       0.404004        10.9935 
 137   0.0000       0.408248        11.1090 
 138   0.0000       0.408744        11.1225 
 139   0.0000       0.410328        11.1656 
 140   0.0000       0.414423        11.2770 
 141   0.0000       0.414560        11.2807 
 142   0.0000       0.416230        11.3262 
 143   0.0000       0.426248        11.5988 
 144   0.0000       0.441402        12.0112 
 145   0.0000       0.446941        12.1619 
 146   0.0000       0.447268        12.1708 
 147   0.0000       0.451840        12.2952 
 148   0.0000       0.458564        12.4782 
 149   0.0000       0.470943        12.8150 
 150   0.0000       0.471896        12.8409 
 151   0.0000       0.477785        13.0012 
 152   0.0000       0.477914        13.0047 
 153   0.0000       0.482945        13.1416 
 154   0.0000       0.487148        13.2560 
 155   0.0000       0.497522        13.5383 
 156   0.0000       0.501029        13.6337 
 157   0.0000       0.504201        13.7200 
 158   0.0000       0.505292        13.7497 
 159   0.0000       0.506527        13.7833 
 160   0.0000       0.508887        13.8475 
 161   0.0000       0.512079        13.9344 
 162   0.0000       0.512420        13.9436 
 163   0.0000       0.519062        14.1244 
 164   0.0000       0.526530        14.3276 
 165   0.0000       0.537160        14.6169 
 166   0.0000       0.540731        14.7140 
 167   0.0000       0.545387        14.8407 
 168   0.0000       0.569185        15.4883 
 169   0.0000       0.579385        15.7659 
 170   0.0000       0.581681        15.8283 
 171   0.0000       0.585172        15.9233 
 172   0.0000       0.587512        15.9870 
 173   0.0000       0.588631        16.0175 
 174   0.0000       0.590357        16.0644 
 175   0.0000       0.600436        16.3387 
 176   0.0000       0.607476        16.5303 
 177   0.0000       0.611684        16.6448 
 178   0.0000       0.625691        17.0259 
 179   0.0000       0.628753        17.1092 
 180   0.0000       0.630149        17.1472 
 181   0.0000       0.633767        17.2457 
 182   0.0000       0.636351        17.3160 
 183   0.0000       0.637908        17.3583 
 184   0.0000       0.639225        17.3942 
 185   0.0000       0.640439        17.4272 
 186   0.0000       0.650136        17.6911 
 187   0.0000       0.654982        17.8230 
 188   0.0000       0.655439        17.8354 
 189   0.0000       0.655744        17.8437 
 190   0.0000       0.658490        17.9184 
 191   0.0000       0.659644        17.9498 
 192   0.0000       0.663286        18.0489 
 193   0.0000       0.669662        18.2224 
 194   0.0000       0.671017        18.2593 
 195   0.0000       0.675794        18.3893 
 196   0.0000       0.676361        18.4047 
 197   0.0000       0.678435        18.4612 
 198   0.0000       0.682594        18.5743 
 199   0.0000       0.682725        18.5779 
 200   0.0000       0.692823        18.8527 
 201   0.0000       0.695643        18.9294 
 202   0.0000       0.701559        19.0904 
 203   0.0000       0.704978        19.1834 
 204   0.0000       0.710618        19.3369 
 205   0.0000       0.713466        19.4144 
 206   0.0000       0.716409        19.4945 
 207   0.0000       0.721454        19.6318 
 208   0.0000       0.731156        19.8958 
 209   0.0000       0.731589        19.9076 
 210   0.0000       0.740272        20.1438 
 211   0.0000       0.753956        20.5162 
 212   0.0000       0.758163        20.6307 
 213   0.0000       0.770358        20.9625 
 214   0.0000       0.789050        21.4711 
 215   0.0000       0.796831        21.6829 
 216   0.0000       0.813516        22.1369 
 217   0.0000       0.818304        22.2672 
 218   0.0000       0.828837        22.5538 
 219   0.0000       0.836553        22.7638 
 220   0.0000       0.837739        22.7960 
 221   0.0000       0.847156        23.0523 
 222   0.0000       0.861581        23.4448 
 223   0.0000       0.869778        23.6679 
 224   0.0000       0.871997        23.7283 
 225   0.0000       0.876905        23.8618 
 226   0.0000       0.897708        24.4279 
 227   0.0000       0.903612        24.5885 
 228   0.0000       0.908839        24.7308 
 229   0.0000       0.917833        24.9755 
 230   0.0000       0.929891        25.3036 
 231   0.0000       0.933559        25.4034 
 232   0.0000       0.949867        25.8472 
 233   0.0000       0.965610        26.2756 
 234   0.0000       0.972292        26.4574 
 235   0.0000       0.973572        26.4922 
 236   0.0000       0.987503        26.8713 
 237   0.0000       0.990039        26.9403 
 238   0.0000       0.997330        27.1387 
 239   0.0000       0.998315        27.1655 
 240   0.0000       1.023433        27.8490 
 241   0.0000       1.025299        27.8998 
 242   0.0000       1.029975        28.0270 
 243   0.0000       1.038206        28.2510 
 244   0.0000       1.044513        28.4226 
 245   0.0000       1.049995        28.5718 
 246   0.0000       1.051593        28.6153 
 247   0.0000       1.055552        28.7230 
 248   0.0000       1.074929        29.2503 
 249   0.0000       1.098229        29.8843 
 250   0.0000       1.112155        30.2633 
 251   0.0000       1.117078        30.3972 
 252   0.0000       1.139511        31.0077 
 253   0.0000       1.144739        31.1499 
 254   0.0000       1.162303        31.6279 
 255   0.0000       1.184341        32.2275 
 256   0.0000       1.185594        32.2617 
 257   0.0000       1.193538        32.4778 
 258   0.0000       1.195349        32.5271 
 259   0.0000       1.202971        32.7345 
 260   0.0000       1.207911        32.8689 
 261   0.0000       1.215862        33.0853 
 262   0.0000       1.216469        33.1018 
 263   0.0000       1.216867        33.1126 
 264   0.0000       1.220230        33.2041 
 265   0.0000       1.223802        33.3013 
 266   0.0000       1.228120        33.4188 
 267   0.0000       1.235737        33.6261 
 268   0.0000       1.265941        34.4480 
 269   0.0000       1.287677        35.0395 
 270   0.0000       1.295789        35.2602 
 271   0.0000       1.302675        35.4476 
 272   0.0000       1.317503        35.8511 
 273   0.0000       1.319804        35.9137 
 274   0.0000       1.323227        36.0068 
 275   0.0000       1.332739        36.2657 
 276   0.0000       1.352538        36.8044 
 277   0.0000       1.362808        37.0839 
 278   0.0000       1.381712        37.5983 
 279   0.0000       1.387753        37.7627 
[...]
      pz      :    -0.056692  p :    -0.075039
      px      :    -0.003682
      py      :    -0.014665
      dz2     :     0.000294  d :     0.027404
      dxz     :     0.025184
      dyz     :     0.000006
      dx2y2   :     0.000876
      dxy     :     0.001045
  2 C s       :    -0.005930  s :    -0.005930
      pz      :    -0.090893  p :    -0.104440
      px      :    -0.007705
      py      :    -0.005842
      dz2     :     0.000502  d :     0.037878
      dxz     :     0.032189
      dyz     :     0.003164
      dx2y2   :     0.001467
      dxy     :     0.000557
  3 C s       :     0.006488  s :     0.006488
      pz      :     0.174429  p :     0.183175
      px      :     0.004196
      py      :     0.004549
      dz2     :    -0.000769  d :    -0.008215
      dxz     :    -0.004055
      dyz     :    -0.001870
      dx2y2   :    -0.000690
      dxy     :    -0.000832
  4 C s       :    -0.004712  s :    -0.004712
      pz      :    -0.084200  p :    -0.093952
      px      :    -0.005130
      py      :    -0.004623
      dz2     :     0.000392  d :     0.020741
      dxz     :     0.013634
      dyz     :     0.005135
      dx2y2   :     0.000799
      dxy     :     0.000783
  5 C s       :     0.007942  s :     0.007942
      pz      :     0.217453  p :     0.229327
      px      :     0.005638
      py      :     0.006235
      dz2     :    -0.001047  d :    -0.010570
      dxz     :    -0.003699
      dyz     :    -0.003525
      dx2y2   :    -0.000798
      dxy     :    -0.001500
  6 C s       :    -0.004635  s :    -0.004635
      pz      :    -0.081022  p :    -0.090945
      px      :    -0.005253
      py      :    -0.004671
      dz2     :     0.000395  d :     0.019522
      dxz     :     0.012928
      dyz     :     0.004624
      dx2y2   :     0.000807
      dxy     :     0.000767
  7 C s       :     0.006310  s :     0.006310
      pz      :     0.178395  p :     0.186462
      px      :     0.003689
      py      :     0.004378
      dz2     :    -0.000780  d :    -0.008697
      dxz     :    -0.004511
      dyz     :    -0.001808
      dx2y2   :    -0.000718
      dxy     :    -0.000880
  8 H s       :     0.002359  s :     0.002359
      pz      :    -0.002458  p :    -0.003038
      px      :    -0.000239
      py      :    -0.000341
  9 H s       :    -0.005550  s :    -0.005550
      pz      :     0.005050  p :     0.005890
      px      :     0.000276
      py      :     0.000564
 10 C s       :    -0.001236  s :    -0.001236
      pz      :    -0.001996  p :    -0.007505
      px      :    -0.002460
      py      :    -0.003048
      dz2     :     0.000125  d :     0.008261
      dxz     :     0.004928
      dyz     :     0.002652
      dx2y2   :     0.000218
      dxy     :     0.000337
 11 H s       :     0.007963  s :     0.007963
      pz      :    -0.000040  p :    -0.000160
      px      :    -0.000053
      py      :    -0.000067
 12 H s       :     0.007952  s :     0.007952
      pz      :    -0.000039  p :    -0.000159
      px      :    -0.000053
      py      :    -0.000067
 13 C s       :     0.000046  s :     0.000046
      pz      :     0.000072  p :     0.000332
      px      :     0.000124
      py      :     0.000136
      dz2     :    -0.000017  d :    -0.000253
      dxz     :    -0.000000
      dyz     :    -0.000062
      dx2y2   :    -0.000111
      dxy     :    -0.000063
 14 H s       :    -0.000110  s :    -0.000110
      pz      :     0.000006  p :     0.000018
      px      :     0.000004
      py      :     0.000008
 15 H s       :    -0.000109  s :    -0.000109
      pz      :     0.000006  p :     0.000018
      px      :     0.000004
      py      :     0.000008
 16 C s       :    -0.000055  s :    -0.000055
      pz      :     0.000145  p :     0.000011
      px      :    -0.000032
      py      :    -0.000102
      dz2     :    -0.000001  d :     0.000014
      dxz     :     0.000006
      dyz     :     0.000013
      dx2y2   :     0.000002
      dxy     :    -0.000006
 17 H s       :     0.000055  s :     0.000055
      pz      :     0.000000  p :     0.000014
      px      :     0.000002
      py      :     0.000012
 18 H s       :     0.000055  s :     0.000055
      pz      :     0.000000  p :     0.000014
      px      :     0.000002
      py      :     0.000012
 19 C s       :    -0.000008  s :    -0.000008
      pz      :    -0.000003  p :    -0.000046
      px      :    -0.000012
      py      :    -0.000031
      dz2     :    -0.000000  d :     0.000012
      dxz     :     0.000010
      dyz     :     0.000005
      dx2y2   :    -0.000004
      dxy     :     0.000001
 20 H s       :     0.000015  s :     0.000015
      pz      :    -0.000000  p :    -0.000002
      px      :    -0.000000
      py      :    -0.000001
 21 H s       :     0.000015  s :     0.000015
      pz      :    -0.000000  p :    -0.000002
      px      :    -0.000000
      py      :    -0.000001
 22 C s       :     0.000511  s :     0.000511
      pz      :     0.000609  p :     0.002790
      px      :     0.000951
      py      :     0.001231
      dz2     :    -0.000086  d :    -0.004043
      dxz     :    -0.002125
      dyz     :    -0.001384
      dx2y2   :    -0.000240
      dxy     :    -0.000208
 23 H s       :    -0.003598  s :    -0.003598
      pz      :     0.000033  p :     0.000106
      px      :     0.000068
      py      :     0.000005
 24 H s       :    -0.003594  s :    -0.003594
      pz      :     0.000033  p :     0.000106
      px      :     0.000068
      py      :     0.000005
 25 C s       :    -0.000056  s :    -0.000056
      pz      :     0.000410  p :     0.000123
      px      :    -0.000122
      py      :    -0.000165
      dz2     :     0.000006  d :     0.000063
      dxz     :    -0.000044
      dyz     :     0.000038
      dx2y2   :     0.000045
      dxy     :     0.000018
 26 H s       :     0.000122  s :     0.000122
      pz      :     0.000000  p :     0.000033
      px      :     0.000021
      py      :     0.000012
 27 H s       :     0.000122  s :     0.000122
      pz      :     0.000000  p :     0.000033
      px      :     0.000021
      py      :     0.000012
 28 C s       :     0.000014  s :     0.000014
      pz      :    -0.000068  p :    -0.000060
      px      :    -0.000008
      py      :     0.000015
      dz2     :     0.000001  d :     0.000030
      dxz     :     0.000025
      dyz     :     0.000005
      dx2y2   :    -0.000005
      dxy     :     0.000004
 29 H s       :     0.000011  s :     0.000011
      pz      :    -0.000001  p :    -0.000009
      px      :    -0.000002
      py      :    -0.000006
 30 H s       :     0.000011  s :     0.000011
      pz      :    -0.000001  p :    -0.000009
      px      :    -0.000002
      py      :    -0.000006
 31 C s       :     0.000002  s :     0.000002
      pz      :     0.000002  p :     0.000019
      px      :     0.000005
      py      :     0.000012
      dz2     :    -0.000000  d :    -0.000009
      dxz     :    -0.000004
      dyz     :    -0.000003
      dx2y2   :    -0.000000
      dxy     :    -0.000002
 32 H s       :    -0.000005  s :    -0.000005
      pz      :     0.000000  p :     0.000001
      px      :     0.000000
      py      :     0.000000
 33 H s       :    -0.000005  s :    -0.000005
      pz      :     0.000000  p :     0.000001
      px      :     0.000000
      py      :     0.000000
 34 C s       :     0.004751  s :     0.004751
      pz      :     0.130584  p :     0.147765
      px      :     0.002252
      py      :     0.014928
      dz2     :    -0.000540  d :    -0.006409
      dxz     :    -0.004478
      dyz     :    -0.000003
      dx2y2   :    -0.000561
      dxy     :    -0.000828
 35 H s       :    -0.000003  s :    -0.000003
      pz      :    -0.000000  p :    -0.000003
      px      :    -0.000001
      py      :    -0.000002
 36 H s       :    -0.000003  s :    -0.000003
      pz      :     0.000000  p :     0.000001
      px      :     0.000000
      py      :     0.000001
 37 C s       :    -0.001854  s :    -0.001854
      pz      :    -0.024247  p :    -0.028807
      px      :    -0.003191
      py      :    -0.001369
      dz2     :     0.000162  d :     0.010219
      dxz     :     0.007798
      dyz     :     0.000844
      dx2y2   :     0.000500
      dxy     :     0.000915
 38 C s       :     0.001546  s :     0.001546
      pz      :     0.039307  p :     0.041621
      px      :     0.001145
      py      :     0.001168
      dz2     :    -0.000163  d :    -0.002081
      dxz     :    -0.000918
      dyz     :    -0.000557
      dx2y2   :    -0.000221
      dxy     :    -0.000222
 39 C s       :    -0.000921  s :    -0.000921
      pz      :    -0.017702  p :    -0.019579
      px      :    -0.001084
      py      :    -0.000792
      dz2     :     0.000088  d :     0.004042
      dxz     :     0.002804
      dyz     :     0.000817
      dx2y2   :     0.000162
      dxy     :     0.000172
 40 C s       :     0.001510  s :     0.001510
      pz      :     0.043343  p :     0.045466
      px      :     0.000983
      py      :     0.001140
      dz2     :    -0.000189  d :    -0.001569
      dxz     :    -0.000187
      dyz     :    -0.000902
      dx2y2   :    -0.000146
      dxy     :    -0.000144
 41 C s       :    -0.000920  s :    -0.000920
      pz      :    -0.017689  p :    -0.019565
      px      :    -0.001046
      py      :    -0.000830
      dz2     :     0.000088  d :     0.004041
      dxz     :     0.002587
      dyz     :     0.001033
      dx2y2   :     0.000166
      dxy     :     0.000167
 42 C s       :     0.001544  s :     0.001544
      pz      :     0.039291  p :     0.041601
      px      :     0.001172
      py      :     0.001138
      dz2     :    -0.000163  d :    -0.002082
      dxz     :    -0.000999
      dyz     :    -0.000476
      dx2y2   :    -0.000242
      dxy     :    -0.000201
 43 H s       :    -0.001370  s :    -0.001370
      pz      :     0.001324  p :     0.001536
      px      :     0.000189
      py      :     0.000024
 44 H s       :     0.000559  s :     0.000559
      pz      :    -0.000510  p :    -0.000625
      px      :    -0.000049
      py      :    -0.000067
 45 H s       :    -0.001236  s :    -0.001236
      pz      :     0.001063  p :     0.001267
      px      :     0.000065
      py      :     0.000139
 46 H s       :    -0.001232  s :    -0.001232
      pz      :     0.001064  p :     0.001268
      px      :     0.000055
      py      :     0.000150
 47 H s       :     0.000560  s :     0.000560
      pz      :    -0.000510  p :    -0.000626
      px      :    -0.000046
      py      :    -0.000069


                      *****************************
                      * MAYER POPULATION ANALYSIS *
                      *****************************

  NA   - Mulliken gross atomic population
  ZA   - Total nuclear charge
  QA   - Mulliken gross atomic charge
  VA   - Mayer's total valence
  BVA  - Mayer's bonded valence
  FA   - Mayer's free valence

  ATOM       NA         ZA         QA         VA         BVA        FA
  0 C      6.1179     6.0000    -0.1179     2.2643     2.0358     0.2286
  1 C      5.7424     6.0000     0.2576     2.5723     2.5657     0.0066
  2 C      5.9537     6.0000     0.0463     4.1186     4.1043     0.0144
  3 C      6.0498     6.0000    -0.0498     4.0915     4.0493     0.0422
  4 C      5.9917     6.0000     0.0083     3.8861     3.8745     0.0116
  5 C      6.1813     6.0000    -0.1813     3.8273     3.7601     0.0672
  6 C      6.0629     6.0000    -0.0629     4.1690     4.1581     0.0109
  7 C      5.9990     6.0000     0.0010     3.8820     3.8393     0.0427
  8 H      1.0493     1.0000    -0.0493     1.0039     1.0039     0.0000
  9 H      1.0418     1.0000    -0.0418     1.0026     1.0024     0.0001
 10 C      5.9786     6.0000     0.0214     4.0232     4.0229     0.0002
 11 H      0.9641     1.0000     0.0359     0.9688     0.9687     0.0001
 12 H      0.9641     1.0000     0.0359     0.9689     0.9687     0.0001
 13 C      6.0373     6.0000    -0.0373     4.1193     4.1193     0.0000
 14 H      0.9820     1.0000     0.0180     0.9635     0.9635     0.0000
 15 H      0.9821     1.0000     0.0179     0.9635     0.9635     0.0000
 16 C      6.0263     6.0000    -0.0263     4.1182     4.1182     0.0000
 17 H      0.9918     1.0000     0.0082     0.9673     0.9673     0.0000
 18 H      0.9918     1.0000     0.0082     0.9673     0.9673     0.0000
 19 C      5.9976     6.0000     0.0024     4.0182     4.0182     0.0000
 20 H      0.9826     1.0000     0.0174     0.9773     0.9773     0.0000
 21 H      0.9826     1.0000     0.0174     0.9773     0.9773     0.0000
 22 C      5.9606     6.0000     0.0394     4.0317     4.0316     0.0001
 23 H      0.9665     1.0000     0.0335     0.9695     0.9695     0.0000
 24 H      0.9665     1.0000     0.0335     0.9695     0.9695     0.0000
 25 C      6.0358     6.0000    -0.0358     4.1131     4.1131     0.0000
 26 H      0.9828     1.0000     0.0172     0.9633     0.9633     0.0000
 27 H      0.9828     1.0000     0.0172     0.9633     0.9633     0.0000
 28 C      6.0260     6.0000    -0.0260     4.1198     4.1198     0.0000
 29 H      0.9941     1.0000     0.0059     0.9673     0.9673     0.0000
 30 H      0.9941     1.0000     0.0059     0.9673     0.9673     0.0000
 31 C      5.9961     6.0000     0.0039     4.0169     4.0169     0.0000
 32 H      0.9821     1.0000     0.0179     0.9774     0.9774     0.0000
 33 H      0.9821     1.0000     0.0179     0.9774     0.9774     0.0000
 34 C      5.8470     6.0000     0.1530     2.6581     2.6342     0.0239
 35 H      0.9855     1.0000     0.0145     0.9738     0.9738     0.0000
 36 H      0.9868     1.0000     0.0132     0.9736     0.9736     0.0000
 37 C      6.2533     6.0000    -0.2533     3.9277     3.9265     0.0011
 38 C      5.9692     6.0000     0.0308     3.9940     3.9919     0.0021
 39 C      5.9588     6.0000     0.0412     3.9995     3.9990     0.0005
 40 C      5.9668     6.0000     0.0332     3.9984     3.9959     0.0025
 41 C      5.9590     6.0000     0.0410     3.9992     3.9987     0.0005
 42 C      5.9719     6.0000     0.0281     3.9931     3.9910     0.0021
 43 H      1.0268     1.0000    -0.0268     0.9689     0.9689     0.0000
 44 H      1.0270     1.0000    -0.0270     0.9686     0.9686     0.0000
 45 H      1.0407     1.0000    -0.0407     0.9834     0.9834     0.0000
 46 H      1.0399     1.0000    -0.0399     0.9831     0.9831     0.0000
 47 H      1.0269     1.0000    -0.0269     0.9685     0.9685     0.0000

  Mayer bond orders larger than 0.100000
B(  0-C ,  2-C ) :   1.6817 B(  1-C ,  5-C ) :   0.9449 B(  1-C , 34-C ) :   1.7164 
B(  1-C , 37-C ) :  -0.1738 B(  2-C ,  3-C ) :   1.1875 B(  2-C ,  7-C ) :   1.1302 
B(  3-C ,  4-C ) :   1.5209 B(  3-C , 10-C ) :   1.0767 B(  4-C ,  5-C ) :   1.3101 
B(  4-C ,  8-H ) :   0.9222 B(  5-C ,  6-C ) :   1.3139 B(  6-C ,  7-C ) :   1.5453 
B(  6-C , 22-C ) :   1.0908 B(  7-C ,  9-H ) :   0.9161 B( 10-C , 11-H ) :   0.9019 
B( 10-C , 12-H ) :   0.9019 B( 10-C , 13-C ) :   1.1042 B( 13-C , 14-H ) :   0.9307 
B( 13-C , 15-H ) :   0.9307 B( 13-C , 16-C ) :   1.0748 B( 16-C , 17-H ) :   0.9415 
B( 16-C , 18-H ) :   0.9415 B( 16-C , 19-C ) :   1.1060 B( 19-C , 20-H ) :   0.9663 
B( 19-C , 21-H ) :   0.9663 B( 19-C , 35-H ) :   0.9619 B( 22-C , 23-H ) :   0.8979 
B( 22-C , 24-H ) :   0.8979 B( 22-C , 25-C ) :   1.1036 B( 25-C , 26-H ) :   0.9290 
B( 25-C , 27-H ) :   0.9289 B( 25-C , 28-C ) :   1.0753 B( 28-C , 29-H ) :   0.9412 
B( 28-C , 30-H ) :   0.9412 B( 28-C , 31-C ) :   1.1062 B( 31-C , 32-H ) :   0.9662 
B( 31-C , 33-H ) :   0.9662 B( 31-C , 36-H ) :   0.9616 B( 34-C , 37-C ) :   0.9434 
B( 37-C , 38-C ) :   1.4324 B( 37-C , 42-C ) :   1.4299 B( 38-C , 39-C ) :   1.4740 
B( 38-C , 45-H ) :   0.9404 B( 39-C , 40-C ) :   1.4410 B( 39-C , 47-H ) :   0.9380 
B( 40-C , 41-C ) :   1.4407 B( 40-C , 43-H ) :   0.9434 B( 41-C , 42-C ) :   1.4739 
B( 41-C , 44-H ) :   0.9380 B( 42-C , 46-H ) :   0.9408 

-------
TIMINGS
-------

Total SCF time: 0 days 0 hours 1 min 0 sec 

Total time                  ....      60.207 sec
Sum of individual times     ....      56.900 sec  ( 94.5%)

Fock matrix formation       ....      50.820 sec  ( 84.4%)
  Split-RI-J                ....       3.796 sec  (  7.5% of F)
  Chain of spheres X        ....      32.561 sec  ( 64.1% of F)
  XC integration            ....      10.823 sec  ( 21.3% of F)
    Basis function eval.    ....       1.042 sec  (  9.6% of XC)
    Density eval.           ....       1.121 sec  ( 10.4% of XC)
    XC-Functional eval.     ....       0.255 sec  (  2.4% of XC)
    XC-Potential eval.      ....       0.458 sec  (  4.2% of XC)
Diagonalization             ....       1.042 sec  (  1.7%)
Density matrix formation    ....       0.143 sec  (  0.2%)
Population analysis         ....       0.323 sec  (  0.5%)
Initial guess               ....       0.163 sec  (  0.3%)
Orbital Transformation      ....       0.000 sec  (  0.0%)
Orbital Orthonormalization  ....       0.118 sec  (  0.2%)
DIIS solution               ....       0.710 sec  (  1.2%)
Grid generation             ....       3.699 sec  (  6.1%)

Maximum memory used throughout the entire SCF-calculation: 116.9 MB

-------------------------   --------------------
FINAL SINGLE POINT ENERGY      -890.752881097123
-------------------------   --------------------

                                *** OPTIMIZATION RUN DONE ***

                            ***************************************
                            *     ORCA property calculations      *
                            ***************************************

                                    ---------------------
                                    Active property flags
                                    ---------------------
   (+) Dipole Moment


------------------------------------------------------------------------------
                       ORCA ELECTRIC PROPERTIES CALCULATION
------------------------------------------------------------------------------

Dipole Moment Calculation                       ... on
Quadrupole Moment Calculation                   ... off
Polarizability Calculation                      ... off
GBWName                                         ... opt_cc-pVDZ.gbw
Electron density                                ... opt_cc-pVDZ.scfp
The origin for moment calculation is the CENTER OF MASS  = ( 3.638269, -0.055240 -0.019225)

-------------
DIPOLE MOMENT
-------------
                                X             Y             Z
Electronic contribution:     11.93774      -0.25381       0.00026
Nuclear contribution   :    -10.82152       0.14233      -0.00026
                        -----------------------------------------
Total Dipole Moment    :      1.11622      -0.11147      -0.00000
                        -----------------------------------------
Magnitude (a.u.)       :      1.12177
Magnitude (Debye)      :      2.85132



--------------------
Rotational spectrum 
--------------------
 
Rotational constants in cm-1:     0.006741     0.004685     0.002775 
Rotational constants in MHz :   202.092440   140.449518    83.205489 

 Dipole components along the rotational axes: 
x,y,z [a.u.] :     0.896293     0.674564     0.000016 
x,y,z [Debye]:     2.278195     1.714605     0.000040 

 

Timings for individual modules:

Sum of individual times         ...      245.467 sec (=   4.091 min)
GTO integral calculation        ...        6.615 sec (=   0.110 min)   2.7 %
SCF iterations                  ...      217.759 sec (=   3.629 min)  88.7 %
SCF Gradient evaluation         ...       20.064 sec (=   0.334 min)   8.2 %
Geometry relaxation             ...        1.028 sec (=   0.017 min)   0.4 %
                             ****ORCA TERMINATED NORMALLY****
TOTAL RUN TIME: 0 days 0 hours 4 minutes 9 seconds 861 msec
