
                                 *****************
                                 * O   R   C   A *
                                 *****************

                                            #,                                       
                                            ###                                      
                                            ####                                     
                                            #####                                    
                                            ######                                   
                                           ########,                                 
                                     ,,################,,,,,                         
                               ,,#################################,,                 
                          ,,##########################################,,             
                       ,#########################################, ''#####,          
                    ,#############################################,,   '####,        
                  ,##################################################,,,,####,       
                ,###########''''           ''''###############################       
              ,#####''   ,,,,##########,,,,          '''####'''          '####       
            ,##' ,,,,###########################,,,                        '##       
           ' ,,###''''                  '''############,,,                           
         ,,##''                                '''############,,,,        ,,,,,,###''
      ,#''                                            '''#######################'''  
     '                                                          ''''####''''         
             ,#######,   #######,   ,#######,      ##                                
            ,#'     '#,  ##    ##  ,#'     '#,    #''#        ######   ,####,        
            ##       ##  ##   ,#'  ##            #'  '#       #        #'  '#        
            ##       ##  #######   ##           ,######,      #####,   #    #        
            '#,     ,#'  ##    ##  '#,     ,#' ,#      #,         ##   #,  ,#        
             '#######'   ##     ##  '#######'  #'      '#     #####' # '####'        



                  #######################################################
                  #                        -***-                        #
                  #          Department of theory and spectroscopy      #
                  #    Directorship and core code : Frank Neese         #
                  #        Max Planck Institute fuer Kohlenforschung    #
                  #                Kaiser Wilhelm Platz 1               #
                  #                 D-45470 Muelheim/Ruhr               #
                  #                      Germany                        #
                  #                                                     #
                  #                  All rights reserved                #
                  #                        -***-                        #
                  #######################################################


                         Program Version 5.0.4 -  RELEASE  -


 With contributions from (in alphabetic order):
   Daniel Aravena         : Magnetic Suceptibility
   Michael Atanasov       : Ab Initio Ligand Field Theory (pilot matlab implementation)
   Alexander A. Auer      : GIAO ZORA, VPT2 properties, NMR spectrum
   Ute Becker             : Parallelization
   Giovanni Bistoni       : ED, misc. LED, open-shell LED, HFLD
   Martin Brehm           : Molecular dynamics
   Dmytro Bykov           : SCF Hessian
   Vijay G. Chilkuri      : MRCI spin determinant printing, contributions to CSF-ICE
   Dipayan Datta          : RHF DLPNO-CCSD density
   Achintya Kumar Dutta   : EOM-CC, STEOM-CC
   Dmitry Ganyushin       : Spin-Orbit,Spin-Spin,Magnetic field MRCI
   Miquel Garcia          : C-PCM and meta-GGA Hessian, CC/C-PCM, Gaussian charge scheme
   Yang Guo               : DLPNO-NEVPT2, F12-NEVPT2, CIM, IAO-localization
   Andreas Hansen         : Spin unrestricted coupled pair/coupled cluster methods
   Benjamin Helmich-Paris : MC-RPA, TRAH-SCF, COSX integrals
   Lee Huntington         : MR-EOM, pCC
   Robert Izsak           : Overlap fitted RIJCOSX, COSX-SCS-MP3, EOM
   Marcus Kettner         : VPT2
   Christian Kollmar      : KDIIS, OOCD, Brueckner-CCSD(T), CCSD density, CASPT2, CASPT2-K
   Simone Kossmann        : Meta GGA functionals, TD-DFT gradient, OOMP2, MP2 Hessian
   Martin Krupicka        : Initial AUTO-CI
   Lucas Lang             : DCDCAS
   Marvin Lechner         : AUTO-CI (C++ implementation), FIC-MRCC
   Dagmar Lenk            : GEPOL surface, SMD
   Dimitrios Liakos       : Extrapolation schemes; Compound Job, initial MDCI parallelization
   Dimitrios Manganas     : Further ROCIS development; embedding schemes
   Dimitrios Pantazis     : SARC Basis sets
   Anastasios Papadopoulos: AUTO-CI, single reference methods and gradients
   Taras Petrenko         : DFT Hessian,TD-DFT gradient, ASA, ECA, R-Raman, ABS, FL, XAS/XES, NRVS
   Peter Pinski           : DLPNO-MP2, DLPNO-MP2 Gradient
   Christoph Reimann      : Effective Core Potentials
   Marius Retegan         : Local ZFS, SOC
   Christoph Riplinger    : Optimizer, TS searches, QM/MM, DLPNO-CCSD(T), (RO)-DLPNO pert. Triples
   Tobias Risthaus        : Range-separated hybrids, TD-DFT gradient, RPA, STAB
   Michael Roemelt        : Original ROCIS implementation
   Masaaki Saitow         : Open-shell DLPNO-CCSD energy and density
   Barbara Sandhoefer     : DKH picture change effects
   Avijit Sen             : IP-ROCIS
   Kantharuban Sivalingam : CASSCF convergence, NEVPT2, FIC-MRCI
   Bernardo de Souza      : ESD, SOC TD-DFT
   Georgi Stoychev        : AutoAux, RI-MP2 NMR, DLPNO-MP2 response
   Willem Van den Heuvel  : Paramagnetic NMR
   Boris Wezisla          : Elementary symmetry handling
   Frank Wennmohs         : Technical directorship


 We gratefully acknowledge several colleagues who have allowed us to
 interface, adapt or use parts of their codes:
   Stefan Grimme, W. Hujo, H. Kruse, P. Pracht,  : VdW corrections, initial TS optimization,
                  C. Bannwarth, S. Ehlert          DFT functionals, gCP, sTDA/sTD-DF
   Ed Valeev, F. Pavosevic, A. Kumar             : LibInt (2-el integral package), F12 methods
   Garnet Chan, S. Sharma, J. Yang, R. Olivares  : DMRG
   Ulf Ekstrom                                   : XCFun DFT Library
   Mihaly Kallay                                 : mrcc  (arbitrary order and MRCC methods)
   Jiri Pittner, Ondrej Demel                    : Mk-CCSD
   Frank Weinhold                                : gennbo (NPA and NBO analysis)
   Christopher J. Cramer and Donald G. Truhlar   : smd solvation model
   Lars Goerigk                                  : TD-DFT with DH, B97 family of functionals
   V. Asgeirsson, H. Jonsson                     : NEB implementation
   FAccTs GmbH                                   : IRC, NEB, NEB-TS, DLPNO-Multilevel, CI-OPT
                                                   MM, QMMM, 2- and 3-layer-ONIOM, Crystal-QMMM,
                                                   LR-CPCM, SF, NACMEs, symmetry and pop. for TD-DFT,
                                                   nearIR, NL-DFT gradient (VV10), updates on ESD,
                                                   ML-optimized integration grids
   S Lehtola, MJT Oliveira, MAL Marques          : LibXC Library
   Liviu Ungur et al                             : ANISO software


 Your calculation uses the libint2 library for the computation of 2-el integrals
 For citations please refer to: http://libint.valeyev.net

 Your ORCA version has been built with support for libXC version: 5.1.0
 For citations please refer to: https://tddft.org/programs/libxc/

 This ORCA versions uses:
   CBLAS   interface :  Fast vector & matrix operations
   LAPACKE interface :  Fast linear algebra routines
   SCALAPACK package :  Parallel linear algebra routines
   Shared memory     :  Shared parallel matrices
   BLAS/LAPACK       :  OpenBLAS 0.3.15  USE64BITINT DYNAMIC_ARCH NO_AFFINITY SkylakeX SINGLE_THREADED
        Core in use  :  SkylakeX
   Copyright (c) 2011-2014, The OpenBLAS Project




***************************************
The coordinates will be read from file: model.xyz
***************************************


================================================================================

----- Orbital basis set information -----
Your calculation utilizes the basis: EPR-II
   V. Barone, in Recent Advances in Density Functional Methods, Part 1 (ed. D. P. Chong), World Scientific, Singapore, 1995, p. 287.

----- AuxJ basis set information -----
Your calculation utilizes the auxiliary basis: def2/J
   F. Weigend, Phys. Chem. Chem. Phys. 8, 1057 (2006).

================================================================================
                                        WARNINGS
                       Please study these warnings very carefully!
================================================================================


WARNING: your system is open-shell and RHF/RKS was chosen
  ===> : WILL SWITCH to UHF/UKS


WARNING: Geometry Optimization
  ===> : Switching off AutoStart
         For restart on a previous wavefunction, please use MOREAD

INFO   : the flag for use of the SHARK integral package has been found!

================================================================================
                                       INPUT FILE
================================================================================
NAME = BDE.inp
|  1> ! B3LYP EPR-II OPT FREQ
|  2> %pal nprocs 16 end
|  3> *XYZFile 0 2 model.xyz
|  4> 
|  5>                          ****END OF INPUT****
================================================================================

                       *****************************
                       * Geometry Optimization Run *
                       *****************************

Geometry optimization settings:
Update method            Update   .... BFGS
Choice of coordinates    CoordSys .... Z-matrix Internals
Initial Hessian          InHess   .... Almoef's Model

Convergence Tolerances:
Energy Change            TolE     ....  5.0000e-06 Eh
Max. Gradient            TolMAXG  ....  3.0000e-04 Eh/bohr
RMS Gradient             TolRMSG  ....  1.0000e-04 Eh/bohr
Max. Displacement        TolMAXD  ....  4.0000e-03 bohr
RMS Displacement         TolRMSD  ....  2.0000e-03 bohr
Strict Convergence                ....  False
------------------------------------------------------------------------------
                        ORCA OPTIMIZATION COORDINATE SETUP
------------------------------------------------------------------------------

The optimization will be done in new redundant internal coordinates
Making redundant internal coordinates   ...  (new redundants) done
Evaluating the initial hessian          ...  (Almloef) done
Evaluating the coordinates              ...  done
Calculating the B-matrix                .... done
Calculating the G-matrix                .... done
Diagonalizing the G-matrix              .... done
Small eigenvalue found = 2.448e-03
Small eigenvalue found = 6.771e-03
Small eigenvalue found = 9.711e-03
Small eigenvalue found = 2.583e-02
The first mode is                       ....   90
The number of degrees of freedom        ....  105

    -----------------------------------------------------------------
                    Redundant Internal Coordinates


    -----------------------------------------------------------------
         Definition                    Initial Value    Approx d2E/dq
    -----------------------------------------------------------------
      1. B(C   1,C   0)                  1.3604         0.696555   
      2. B(C   2,C   1)                  1.4545         0.493039   
      3. B(C   3,C   2)                  1.3770         0.655407   
      4. B(C   4,C   3)                  1.4256         0.548235   
      5. B(C   5,C   4)                  1.4366         0.526546   
      6. B(C   6,C   5)                  1.3786         0.651514   
      7. B(C   6,C   1)                  1.4490         0.503022   
      8. B(H   7,C   3)                  1.0906         0.359354   
      9. B(H   8,C   6)                  1.0892         0.361183   
     10. B(C   9,C   2)                  1.5146         0.395321   
     11. B(H  10,C   9)                  1.1074         0.337854   
     12. B(H  11,C   9)                  1.1074         0.337854   
     13. B(C  12,C   9)                  1.5307         0.372595   
     14. B(H  13,C  12)                  1.1054         0.340238   
     15. B(H  14,C  12)                  1.1054         0.340233   
     16. B(C  15,C  12)                  1.5336         0.368723   
     17. B(H  16,C  15)                  1.1057         0.339866   
     18. B(H  17,C  15)                  1.1057         0.339864   
     19. B(C  18,C  15)                  1.5307         0.372663   
     20. B(H  19,C  18)                  1.1037         0.342396   
     21. B(H  20,C  18)                  1.1037         0.342396   
     22. B(C  21,C   5)                  1.5168         0.392169   
     23. B(H  22,C  21)                  1.1056         0.340067   
     24. B(H  23,C  21)                  1.1056         0.340072   
     25. B(C  24,C  21)                  1.5305         0.372864   
     26. B(H  25,C  24)                  1.1056         0.340010   
     27. B(H  26,C  24)                  1.1056         0.340013   
     28. B(C  27,C  24)                  1.5338         0.368444   
     29. B(H  28,C  27)                  1.1059         0.339708   
     30. B(H  29,C  27)                  1.1059         0.339709   
     31. B(C  30,C  27)                  1.5307         0.372587   
     32. B(H  31,C  30)                  1.1037         0.342447   
     33. B(H  32,C  30)                  1.1037         0.342447   
     34. B(H  33,C  18)                  1.1020         0.344595   
     35. B(H  34,C  30)                  1.1021         0.344502   
     36. B(H  35,C   4)                  1.0906         0.359354   
     37. B(C  36,C   0)                  1.3604         0.696555   
     38. L(C   1,C   0,C  36,C   6, 2) 180.0000         0.452740   
     39. L(C   1,C   0,C  36,C   6, 1) 180.0000         0.452740   
     40. A(C   0,C   1,C   6)          117.6739         0.426905   
     41. A(C   0,C   1,C   2)          122.5727         0.425375   
     42. A(C   2,C   1,C   6)          119.7534         0.401483   
     43. A(C   3,C   2,C   9)          124.6763         0.404592   
     44. A(C   1,C   2,C   9)          118.0950         0.384899   
     45. A(C   1,C   2,C   3)          117.2287         0.420771   
     46. A(C   2,C   3,H   7)          119.5799         0.356122   
     47. A(C   4,C   3,H   7)          117.2807         0.345542   
     48. A(C   2,C   3,C   4)          123.1394         0.428836   
     49. A(C   5,C   4,H  35)          119.1063         0.343209   
     50. A(C   3,C   4,C   5)          119.7757         0.412408   
     51. A(C   3,C   4,H  35)          121.1180         0.345542   
     52. A(C   6,C   5,C  21)          122.3539         0.403596   
     53. A(C   4,C   5,C   6)          118.5631         0.425291   
     54. A(C   4,C   5,C  21)          119.0829         0.388792   
     55. A(C   1,C   6,H   8)          117.8706         0.340882   
     56. A(C   5,C   6,H   8)          120.5897         0.356069   
     57. A(C   1,C   6,C   5)          121.5397         0.421830   
     58. A(C   2,C   9,H  10)          108.0855         0.323936   
     59. A(H  11,C   9,C  12)          109.1863         0.320809   
     60. A(H  10,C   9,C  12)          109.1847         0.320809   
     61. A(C   2,C   9,C  12)          116.8004         0.366722   
     62. A(H  10,C   9,H  11)          104.8364         0.285096   
     63. A(C   2,C   9,H  11)          108.0837         0.323936   
     64. A(H  14,C  12,C  15)          109.1209         0.320629   
     65. A(H  13,C  12,C  15)          109.1169         0.320630   
     66. A(C   9,C  12,C  15)          112.6611         0.362379   
     67. A(H  13,C  12,H  14)          106.3261         0.285721   
     68. A(C   9,C  12,H  14)          109.7053         0.321177   
     69. A(C   9,C  12,H  13)          109.7086         0.321178   
     70. A(H  16,C  15,C  18)          109.5901         0.321130   
     71. A(H  16,C  15,H  17)          105.8755         0.285624   
     72. A(C  12,C  15,H  17)          109.2133         0.320572   
     73. A(C  12,C  15,H  16)          109.2138         0.320573   
     74. A(C  12,C  15,C  18)          113.1031         0.362390   
     75. A(H  17,C  15,C  18)          109.5888         0.321130   
     76. A(H  20,C  18,H  33)          107.6003         0.286572   
     77. A(H  19,C  18,H  33)          107.6004         0.286571   
     78. A(C  15,C  18,H  33)          111.4599         0.321858   
     79. A(H  19,C  18,H  20)          107.4099         0.286285   
     80. A(C  15,C  18,H  20)          111.2830         0.321520   
     81. A(C  15,C  18,H  19)          111.2841         0.321520   
     82. A(H  23,C  21,C  24)          109.3109         0.321191   
     83. A(H  22,C  21,C  24)          109.3120         0.321190   
     84. A(C   5,C  21,C  24)          117.0548         0.366265   
     85. A(H  22,C  21,H  23)          104.6105         0.285678   
     86. A(C   5,C  21,H  23)          107.9145         0.323859   
     87. A(C   5,C  21,H  22)          107.9161         0.323858   
     88. A(H  26,C  24,C  27)          109.0122         0.320556   
     89. A(H  25,C  24,C  27)          109.0140         0.320555   
     90. A(C  21,C  24,C  27)          112.5660         0.362376   
     91. A(H  25,C  24,H  26)          106.2830         0.285662   
     92. A(C  21,C  24,H  26)          109.8839         0.321181   
     93. A(C  21,C  24,H  25)          109.8797         0.321181   
     94. A(H  29,C  27,C  30)          109.5763         0.321095   
     95. A(H  28,C  27,C  30)          109.5754         0.321095   
     96. A(C  24,C  27,C  30)          113.1623         0.362330   
     97. A(H  28,C  27,H  29)          105.8848         0.285583   
     98. A(C  24,C  27,H  29)          109.1910         0.320509   
     99. A(C  24,C  27,H  28)          109.1915         0.320508   
    100. A(H  31,C  30,H  34)          107.6000         0.286566   
    101. A(C  27,C  30,H  34)          111.4859         0.321833   
    102. A(H  31,C  30,H  32)          107.3931         0.286299   
    103. A(C  27,C  30,H  32)          111.2790         0.321517   
    104. A(C  27,C  30,H  31)          111.2782         0.321517   
    105. A(H  32,C  30,H  34)          107.6003         0.286566   
    106. D(C   9,C   2,C   1,C   0)      0.0187         0.016553   
    107. D(C   3,C   2,C   1,C   0)   -179.9884         0.016553   
    108. D(C   3,C   2,C   1,C   6)      0.0065         0.016553   
    109. D(C   9,C   2,C   1,C   6)   -179.9863         0.016553   
    110. D(H   7,C   3,C   2,C   9)     -0.0112         0.029944   
    111. D(C   4,C   3,C   2,C   9)    179.9862         0.029944   
    112. D(C   4,C   3,C   2,C   1)     -0.0061         0.029944   
    113. D(H   7,C   3,C   2,C   1)    179.9965         0.029944   
    114. D(C   5,C   4,C   3,H   7)   -179.9964         0.020557   
    115. D(C   5,C   4,C   3,C   2)      0.0062         0.020557   
    116. D(H  35,C   4,C   3,C   2)   -179.9967         0.020557   
    117. D(H  35,C   4,C   3,H   7)      0.0007         0.020557   
    118. D(C  21,C   5,C   4,C   3)    179.9972         0.018918   
    119. D(C   6,C   5,C   4,H  35)    179.9964         0.018918   
    120. D(C   6,C   5,C   4,C   3)     -0.0064         0.018918   
    121. D(C  21,C   5,C   4,H  35)      0.0000         0.018918   
    122. D(H   8,C   6,C   5,C  21)      0.0004         0.029564   
    123. D(C   1,C   6,C   5,C   4)      0.0071         0.029564   
    124. D(C   1,C   6,C   5,C  21)   -179.9966         0.029564   
    125. D(C   5,C   6,C   1,C   2)     -0.0073         0.017237   
    126. D(H   8,C   6,C   5,C   4)   -179.9959         0.029564   
    127. D(C   5,C   6,C   1,C   0)    179.9879         0.017237   
    128. D(H   8,C   6,C   1,C   2)    179.9957         0.017237   
    129. D(H   8,C   6,C   1,C   0)     -0.0091         0.017237   
    130. D(C  12,C   9,C   2,C   3)      0.0659         0.011611   
    131. D(C  12,C   9,C   2,C   1)   -179.9418         0.011611   
    132. D(H  11,C   9,C   2,C   3)    123.5889         0.011611   
    133. D(H  11,C   9,C   2,C   1)    -56.4188         0.011611   
    134. D(H  10,C   9,C   2,C   3)   -123.4564         0.011611   
    135. D(H  10,C   9,C   2,C   1)     56.5358         0.011611   
    136. D(H  13,C  12,C   9,C   2)    -58.2247         0.011089   
    137. D(C  15,C  12,C   9,H  10)    -57.0399         0.011089   
    138. D(C  15,C  12,C   9,C   2)   -179.9967         0.011089   
    139. D(H  14,C  12,C   9,H  11)    -64.7270         0.011089   
    140. D(H  14,C  12,C   9,H  10)   -178.8147         0.011089   
    141. D(H  14,C  12,C   9,C   2)     58.2286         0.011089   
    142. D(H  13,C  12,C   9,H  11)    178.8196         0.011089   
    143. D(C  15,C  12,C   9,H  11)     57.0477         0.011089   
    144. D(H  13,C  12,C   9,H  10)     64.7320         0.011089   
    145. D(C  18,C  15,C  12,H  14)    -57.8880         0.010873   
    146. D(C  18,C  15,C  12,C   9)   -179.9931         0.010873   
    147. D(H  17,C  15,C  12,H  13)    -64.4211         0.010873   
    148. D(H  17,C  15,C  12,C   9)     57.6854         0.010873   
    149. D(H  17,C  15,C  12,H  14)    179.7905         0.010873   
    150. D(H  16,C  15,C  12,H  14)     64.4355         0.010873   
    151. D(C  18,C  15,C  12,H  13)     57.9005         0.010873   
    152. D(H  16,C  15,C  12,H  13)   -179.7761         0.010873   
    153. D(H  16,C  15,C  12,C   9)    -57.6696         0.010873   
    154. D(H  33,C  18,C  15,H  17)    -57.8677         0.011092   
    155. D(H  33,C  18,C  15,H  16)     57.9074         0.011092   
    156. D(H  33,C  18,C  15,C  12)   -179.9794         0.011092   
    157. D(H  20,C  18,C  15,H  17)     62.2519         0.011092   
    158. D(H  20,C  18,C  15,H  16)    178.0271         0.011092   
    159. D(H  20,C  18,C  15,C  12)    -59.8598         0.011092   
    160. D(H  19,C  18,C  15,H  17)   -177.9884         0.011092   
    161. D(H  19,C  18,C  15,H  16)    -62.2132         0.011092   
    162. D(H  19,C  18,C  15,C  12)     59.8999         0.011092   
    163. D(C  24,C  21,C   5,C   4)    179.9724         0.011435   
    164. D(H  23,C  21,C   5,C   6)   -123.7588         0.011435   
    165. D(H  23,C  21,C   5,C   4)     56.2374         0.011435   
    166. D(H  22,C  21,C   5,C   6)    123.7138         0.011435   
    167. D(C  24,C  21,C   5,C   6)     -0.0239         0.011435   
    168. D(H  22,C  21,C   5,C   4)    -56.2899         0.011435   
    169. D(C  27,C  24,C  21,H  23)    -56.9814         0.011104   
    170. D(C  27,C  24,C  21,C   5)    179.9975         0.011104   
    171. D(H  26,C  24,C  21,H  23)   -178.6794         0.011104   
    172. D(H  26,C  24,C  21,H  22)    -64.7246         0.011104   
    173. D(H  26,C  24,C  21,C   5)     58.2995         0.011104   
    174. D(H  25,C  24,C  21,H  23)     64.7160         0.011104   
    175. D(C  27,C  24,C  21,H  22)     56.9734         0.011104   
    176. D(H  25,C  24,C  21,H  22)    178.6708         0.011104   
    177. D(H  25,C  24,C  21,C   5)    -58.3051         0.011104   
    178. D(C  30,C  27,C  24,H  26)    -57.8178         0.010858   
    179. D(C  30,C  27,C  24,H  25)     57.8028         0.010858   
    180. D(C  30,C  27,C  24,C  21)    179.9905         0.010858   
    181. D(H  29,C  27,C  24,H  26)    179.8526         0.010858   
    182. D(H  29,C  27,C  24,H  25)    -64.5268         0.010858   
    183. D(H  29,C  27,C  24,C  21)     57.6609         0.010858   
    184. D(H  28,C  27,C  24,H  26)     64.5111         0.010858   
    185. D(H  28,C  27,C  24,H  25)   -179.8683         0.010858   
    186. D(H  28,C  27,C  24,C  21)    -57.6806         0.010858   
    187. D(H  34,C  30,C  27,H  29)    -57.9050         0.011088   
    188. D(H  34,C  30,C  27,H  28)     57.8659         0.011088   
    189. D(H  34,C  30,C  27,C  24)    179.9805         0.011088   
    190. D(H  32,C  30,C  27,H  29)     62.2297         0.011088   
    191. D(H  32,C  30,C  27,H  28)    178.0005         0.011088   
    192. D(H  32,C  30,C  27,C  24)    -59.8849         0.011088   
    193. D(H  31,C  30,C  27,H  29)   -178.0387         0.011088   
    194. D(H  31,C  30,C  27,H  28)    -62.2678         0.011088   
    195. D(H  31,C  30,C  27,C  24)     59.8467         0.011088   
    -----------------------------------------------------------------

Number of atoms                         .... 37
Number of degrees of freedom            .... 195

         *************************************************************
         *                GEOMETRY OPTIMIZATION CYCLE   1            *
         *************************************************************
---------------------------------
CARTESIAN COORDINATES (ANGSTROEM)
---------------------------------
  C      0.000000    0.000000    0.000000
  C      1.360405   -0.000000   -0.000000
  C      2.143447   -1.225691   -0.003231
  C      3.514442   -1.097446   -0.002646
  C      4.179214    0.163647    0.000800
  C      3.408849    1.376192    0.003995
  C      2.033384    1.283249    0.003493
  H      4.138777   -1.991612   -0.004936
  H      1.417162    2.181349    0.005784
  C      1.401484   -2.546101   -0.007148
  H      0.727296   -2.558977   -0.885525
  H      0.725261   -2.563003    0.869596
  C      2.254506   -3.817099   -0.009100
  H      2.918315   -3.819206   -0.893046
  H      2.916190   -3.823278    0.876425
  C      1.408713   -5.096325   -0.013124
  H      0.741148   -5.093960    0.868362
  H      0.743485   -5.089946   -0.896357
  C      2.251879   -6.373824   -0.014932
  H      2.901876   -6.426120    0.875559
  H      2.904718   -6.421700   -0.903590
  C      4.132317    2.709306    0.007705
  H      4.807569    2.727377    0.882929
  H      4.808482    2.731716   -0.866710
  C      3.266368    3.971293    0.010365
  H      2.603706    3.974419   -0.874666
  H      2.602633    3.970043    0.894593
  C      4.101200    5.257947    0.014082
  H      4.766973    5.256763    0.897083
  H      4.768257    5.261018   -0.867944
  C      3.248319    6.529046    0.016541
  H      2.595531    6.571648    0.905454
  H      2.597304    6.576297   -0.873438
  H      1.618002   -7.275240   -0.018185
  H      3.874958    7.435599    0.019538
  H      5.267945    0.226853    0.001109
  C     -1.360405    0.000000    0.000000

----------------------------
CARTESIAN COORDINATES (A.U.)
----------------------------
  NO LB      ZA    FRAG     MASS         X           Y           Z
   0 C     6.0000    0    12.011    0.000000    0.000000    0.000000
   1 C     6.0000    0    12.011    2.570793   -0.000000   -0.000000
   2 C     6.0000    0    12.011    4.050528   -2.316220   -0.006105
   3 C     6.0000    0    12.011    6.641333   -2.073873   -0.005000
   4 C     6.0000    0    12.011    7.897570    0.309247    0.001512
   5 C     6.0000    0    12.011    6.441791    2.600626    0.007549
   6 C     6.0000    0    12.011    3.842538    2.424989    0.006601
   7 H     1.0000    0     1.008    7.821155   -3.763601   -0.009327
   8 H     1.0000    0     1.008    2.678049    4.122152    0.010931
   9 C     6.0000    0    12.011    2.648421   -4.811434   -0.013508
  10 H     1.0000    0     1.008    1.374390   -4.835766   -1.673399
  11 H     1.0000    0     1.008    1.370544   -4.843373    1.643298
  12 C     6.0000    0    12.011    4.260400   -7.213272   -0.017196
  13 H     1.0000    0     1.008    5.514816   -7.217253   -1.687613
  14 H     1.0000    0     1.008    5.510800   -7.224949    1.656202
  15 C     6.0000    0    12.011    2.662082   -9.630658   -0.024800
  16 H     1.0000    0     1.008    1.400566   -9.626189    1.640965
  17 H     1.0000    0     1.008    1.404983   -9.618604   -1.693868
  18 C     6.0000    0    12.011    4.255434  -12.044782   -0.028217
  19 H     1.0000    0     1.008    5.483750  -12.143606    1.654567
  20 H     1.0000    0     1.008    5.489122  -12.135254   -1.707538
  21 C     6.0000    0    12.011    7.808948    5.119847    0.014560
  22 H     1.0000    0     1.008    9.084988    5.153995    1.668494
  23 H     1.0000    0     1.008    9.086713    5.162195   -1.637844
  24 C     6.0000    0    12.011    6.172542    7.504657    0.019587
  25 H     1.0000    0     1.008    4.920290    7.510563   -1.652879
  26 H     1.0000    0     1.008    4.918264    7.502294    1.690537
  27 C     6.0000    0    12.011    7.750144    9.936079    0.026612
  28 H     1.0000    0     1.008    9.008274    9.933842    1.695241
  29 H     1.0000    0     1.008    9.010699    9.941884   -1.640176
  30 C     6.0000    0    12.011    6.138434   12.338109    0.031257
  31 H     1.0000    0     1.008    4.904842   12.418616    1.711060
  32 H     1.0000    0     1.008    4.908194   12.427400   -1.650560
  33 H     1.0000    0     1.008    3.057581  -13.748211   -0.034366
  34 H     1.0000    0     1.008    7.322610   14.051245    0.036921
  35 H     1.0000    0     1.008    9.954974    0.428690    0.002096
  36 C     6.0000    0    12.011   -2.570793    0.000000    0.000000

--------------------------------
INTERNAL COORDINATES (ANGSTROEM)
--------------------------------
 C      0   0   0     0.000000000000     0.00000000     0.00000000
 C      1   0   0     1.360405190000     0.00000000     0.00000000
 C      2   1   0     1.454469923844   122.57268791     0.00000000
 C      3   2   1     1.376980206057   117.22867986   180.01155152
 C      4   3   2     1.425583685316   123.13940572     0.00000000
 C      5   4   3     1.436571902355   119.77572077     0.00000000
 C      6   5   4     1.378601846966   118.56311168     0.00000000
 H      4   3   2     1.090564622336   119.57987659   179.99649858
 H      7   6   5     1.089182455160   120.58966673   180.00407874
 C      3   2   1     1.514598140143   118.09498919     0.00000000
 H     10   3   2     1.107357914396   108.08554843    56.53583598
 H     10   3   2     1.107358649692   108.08373433   303.58115159
 C     10   3   2     1.530714499349   116.80037930   180.05817500
 H     13  10   3     1.105444579433   109.70863948   301.77526487
 H     13  10   3     1.105448470268   109.70533882    58.22859434
 C     13  10   3     1.533558079058   112.66110600   180.00330784
 H     16  13  10     1.105742167780   109.21375503   302.33041753
 H     16  13  10     1.105743862101   109.21334420    57.68537980
 C     16  13  10     1.530665066592   113.10306870   180.00694383
 H     19  16  13     1.103723191808   111.28414574    59.89992593
 H     19  16  13     1.103723016926   111.28296658   300.14024686
 C      6   5   4     1.516777668647   119.08294711   179.99717527
 H     22   6   5     1.105580703892   107.91606342   303.71010535
 H     22   6   5     1.105577039421   107.91447125    56.23744214
 C     22   6   5     1.530518235877   117.05478268   179.97241644
 H     25  22   6     1.105627075935   109.87974572   301.69490809
 H     25  22   6     1.105624496982   109.88387131    58.29948634
 C     25  22   6     1.533764589354   112.56596666   179.99750886
 H     28  25  22     1.105868815403   109.19151542   302.31939400
 H     28  25  22     1.105867987583   109.19103208    57.66089108
 C     28  25  22     1.530720360367   113.16229097   179.99053387
 H     31  28  25     1.103682694949   111.27816991    59.84672703
 H     31  28  25     1.103682973789   111.27899141   300.11506729
 H     19  16  13     1.101980319244   111.45985775   180.02058317
 H     31  28  25     1.102053731282   111.48590931   179.98045022
 H      5   4   3     1.090564624070   121.11801790   180.00328198
 C      1   2   3     1.360405190000   180.00000000     0.00000000

---------------------------
INTERNAL COORDINATES (A.U.)
---------------------------
 C      0   0   0     0.000000000000     0.00000000     0.00000000
 C      1   0   0     2.570793240265     0.00000000     0.00000000
 C      2   1   0     2.748549826091   122.57268791     0.00000000
 C      3   2   1     2.602115481277   117.22867986   180.01155152
 C      4   3   2     2.693962746233   123.13940572     0.00000000
 C      5   4   3     2.714727467137   119.77572077     0.00000000
 C      6   5   4     2.605179938483   118.56311168     0.00000000
 H      4   3   2     2.060868467558   119.57987659   179.99649858
 H      7   6   5     2.058256550125   120.58966673   180.00407874
 C      3   2   1     2.862175687817   118.09498919     0.00000000
 H     10   3   2     2.092603190439   108.08554843    56.53583598
 H     10   3   2     2.092604579947   108.08373433   303.58115159
 C     10   3   2     2.892631192992   116.80037930   180.05817500
 H     13  10   3     2.088987511356   109.70863948   301.77526487
 H     13  10   3     2.088994863969   109.70533882    58.22859434
 C     13  10   3     2.898004779881   112.66110600   180.00330784
 H     16  13  10     2.089549871832   109.21375503   302.33041753
 H     16  13  10     2.089553073636   109.21334420    57.68537980
 C     16  13  10     2.892537778620   113.10306870   180.00694383
 H     19  16  13     2.085734560175   111.28414574    59.89992593
 H     19  16  13     2.085734229695   111.28296658   300.14024686
 C      6   5   4     2.866294399790   119.08294711   179.99717527
 H     22   6   5     2.089244749304   107.91606342   303.71010535
 H     22   6   5     2.089237824457   107.91447125    56.23744214
 C     22   6   5     2.892260308780   117.05478268   179.97241644
 H     25  22   6     2.089332379766   109.87974572   301.69490809
 H     25  22   6     2.089327506251   109.88387131    58.29948634
 C     25  22   6     2.898395027786   112.56596666   179.99750886
 H     28  25  22     2.089789201156   109.19151542   302.31939400
 H     28  25  22     2.089787636802   109.19103208    57.66089108
 C     28  25  22     2.892642268711   113.16229097   179.99053387
 H     31  28  25     2.085658032202   111.27816991    59.84672703
 H     31  28  25     2.085658559134   111.27899141   300.11506729
 H     19  16  13     2.082441008343   111.45985775   180.02058317
 H     31  28  25     2.082579736989   111.48590931   179.98045022
 H      5   4   3     2.060868470835   121.11801790   180.00328198
 C      1   2   3     2.570793240265   180.00000000     0.00000000

---------------------
BASIS SET INFORMATION
---------------------
There are 2 groups of distinct atoms

 Group   1 Type C   : 10s5p1d contracted to 6s2p1d pattern {511111/41/1}
 Group   2 Type H   : 6s1p contracted to 4s1p pattern {3111/1}

Atom   0C    basis set group =>   1
Atom   1C    basis set group =>   1
Atom   2C    basis set group =>   1
Atom   3C    basis set group =>   1
Atom   4C    basis set group =>   1
Atom   5C    basis set group =>   1
Atom   6C    basis set group =>   1
Atom   7H    basis set group =>   2
Atom   8H    basis set group =>   2
Atom   9C    basis set group =>   1
Atom  10H    basis set group =>   2
Atom  11H    basis set group =>   2
Atom  12C    basis set group =>   1
Atom  13H    basis set group =>   2
Atom  14H    basis set group =>   2
Atom  15C    basis set group =>   1
Atom  16H    basis set group =>   2
Atom  17H    basis set group =>   2
Atom  18C    basis set group =>   1
Atom  19H    basis set group =>   2
Atom  20H    basis set group =>   2
Atom  21C    basis set group =>   1
Atom  22H    basis set group =>   2
Atom  23H    basis set group =>   2
Atom  24C    basis set group =>   1
Atom  25H    basis set group =>   2
Atom  26H    basis set group =>   2
Atom  27C    basis set group =>   1
Atom  28H    basis set group =>   2
Atom  29H    basis set group =>   2
Atom  30C    basis set group =>   1
Atom  31H    basis set group =>   2
Atom  32H    basis set group =>   2
Atom  33H    basis set group =>   2
Atom  34H    basis set group =>   2
Atom  35H    basis set group =>   2
Atom  36C    basis set group =>   1
---------------------------------
AUXILIARY/J BASIS SET INFORMATION
---------------------------------
There are 2 groups of distinct atoms

 Group   1 Type C   : 12s5p4d2f1g contracted to 6s4p3d1f1g pattern {711111/2111/211/2/1}
 Group   2 Type H   : 5s2p1d contracted to 3s1p1d pattern {311/2/1}

Atom   0C    basis set group =>   1
Atom   1C    basis set group =>   1
Atom   2C    basis set group =>   1
Atom   3C    basis set group =>   1
Atom   4C    basis set group =>   1
Atom   5C    basis set group =>   1
Atom   6C    basis set group =>   1
Atom   7H    basis set group =>   2
Atom   8H    basis set group =>   2
Atom   9C    basis set group =>   1
Atom  10H    basis set group =>   2
Atom  11H    basis set group =>   2
Atom  12C    basis set group =>   1
Atom  13H    basis set group =>   2
Atom  14H    basis set group =>   2
Atom  15C    basis set group =>   1
Atom  16H    basis set group =>   2
Atom  17H    basis set group =>   2
Atom  18C    basis set group =>   1
Atom  19H    basis set group =>   2
Atom  20H    basis set group =>   2
Atom  21C    basis set group =>   1
Atom  22H    basis set group =>   2
Atom  23H    basis set group =>   2
Atom  24C    basis set group =>   1
Atom  25H    basis set group =>   2
Atom  26H    basis set group =>   2
Atom  27C    basis set group =>   1
Atom  28H    basis set group =>   2
Atom  29H    basis set group =>   2
Atom  30C    basis set group =>   1
Atom  31H    basis set group =>   2
Atom  32H    basis set group =>   2
Atom  33H    basis set group =>   2
Atom  34H    basis set group =>   2
Atom  35H    basis set group =>   2
Atom  36C    basis set group =>   1


           ************************************************************
           *        Program running with 16 parallel MPI-processes    *
           *              working on a common directory               *
           ************************************************************
------------------------------------------------------------------------------
                           ORCA GTO INTEGRAL CALCULATION
                           -- RI-GTO INTEGRALS CHOSEN --
------------------------------------------------------------------------------
------------------------------------------------------------------------------
                   ___                                                        
                  /   \      - P O W E R E D   B Y -                         
                 /     \                                                     
                 |  |  |   _    _      __       _____    __    __             
                 |  |  |  | |  | |    /  \     |  _  \  |  |  /  |          
                  \  \/   | |  | |   /    \    | | | |  |  | /  /          
                 / \  \   | |__| |  /  /\  \   | |_| |  |  |/  /          
                |  |  |   |  __  | /  /__\  \  |    /   |      \           
                |  |  |   | |  | | |   __   |  |    \   |  |\   \          
                \     /   | |  | | |  |  |  |  | |\  \  |  | \   \       
                 \___/    |_|  |_| |__|  |__|  |_| \__\ |__|  \__/        
                                                                              
                      - O R C A' S   B I G   F R I E N D -                    
                                      &                                       
                       - I N T E G R A L  F E E D E R -                       
                                                                              
 v1 FN, 2020, v2 2021                                                         
------------------------------------------------------------------------------


Reading SHARK input file BDE.SHARKINP.tmp ... ok
----------------------
SHARK INTEGRAL PACKAGE
----------------------

Number of atoms                             ...     37
Number of basis functions                   ...    419
Number of shells                            ...    249
Maximum angular momentum                    ...      2
Integral batch strategy                     ... SHARK/LIBINT Hybrid
RI-J (if used) integral strategy            ... SPLIT-RIJ (Revised 2003 algorithm where possible)
Printlevel                                  ...      1
Contraction scheme used                     ... SEGMENTED contraction
Coulomb Range Separation                    ... NOT USED
Exchange Range Separation                   ... NOT USED
Finite Nucleus Model                        ... NOT USED
Auxiliary Coulomb fitting basis             ... AVAILABLE
   # of basis functions in Aux-J            ...   1015
   # of shells in Aux-J                     ...    345
   Maximum angular momentum in Aux-J        ...      4
Auxiliary J/K fitting basis                 ... NOT available
Auxiliary Correlation fitting basis         ... NOT available
Auxiliary 'external' fitting basis          ... NOT available
Integral threshold                          ...     2.500000e-11
Primitive cut-off                           ...     2.500000e-12
Primitive pair pre-selection threshold      ...     2.500000e-12

Calculating pre-screening integrals         ... done (  0.0 sec) Dimension = 249
Organizing shell pair data                  ... done (  0.1 sec)
Shell pair information
Total number of shell pairs                 ...     31125
Shell pairs after pre-screening             ...     18441
Total number of primitive shell pairs       ...     81725
Primitive shell pairs kept                  ...     35212
          la=0 lb=0:   8552 shell pairs
          la=1 lb=0:   6342 shell pairs
          la=1 lb=1:   1091 shell pairs
          la=2 lb=0:   1741 shell pairs
          la=2 lb=1:    617 shell pairs
          la=2 lb=2:     98 shell pairs

Calculating one electron integrals          ... done (  0.0 sec)
Calculating RI/J V-Matrix + Cholesky decomp.... done (  0.2 sec)
Calculating Nuclear repulsion               ... done (  0.0 sec) ENN=    968.266280536659 Eh

SHARK setup successfully completed in   0.7 seconds

Maximum memory used throughout the entire GTOINT-calculation: 26.3 MB


           ************************************************************
           *        Program running with 16 parallel MPI-processes    *
           *              working on a common directory               *
           ************************************************************
-------------------------------------------------------------------------------
                                 ORCA SCF
-------------------------------------------------------------------------------

------------
SCF SETTINGS
------------
Hamiltonian:
 Density Functional     Method          .... DFT(GTOs)
 Exchange Functional    Exchange        .... B88
   X-Alpha parameter    XAlpha          ....  0.666667
   Becke's b parameter  XBeta           ....  0.004200
 Correlation Functional Correlation     .... LYP
 LDA part of GGA corr.  LDAOpt          .... VWN-5
 Gradients option       PostSCFGGA      .... off
 Hybrid DFT is turned on
   Fraction HF Exchange ScalHFX         ....  0.200000
   Scaling of DF-GGA-X  ScalDFX         ....  0.720000
   Scaling of DF-GGA-C  ScalDFC         ....  0.810000
   Scaling of DF-LDA-C  ScalLDAC        ....  1.000000
   Perturbative correction              ....  0.000000
   Density functional embedding theory  .... OFF
   NL short-range parameter             ....  4.800000
 RI-approximation to the Coulomb term is turned on
   Number of AuxJ basis functions       .... 1015
   RIJ-COSX (HFX calculated with COS-X)).... on


General Settings:
 Integral files         IntName         .... BDE
 Hartree-Fock type      HFTyp           .... UHF
 Total Charge           Charge          ....    0
 Multiplicity           Mult            ....    2
 Number of Electrons    NEL             ....  117
 Basis Dimension        Dim             ....  419
 Nuclear Repulsion      ENuc            ....    968.2662805367 Eh

Convergence Acceleration:
 DIIS                   CNVDIIS         .... on
   Start iteration      DIISMaxIt       ....    12
   Startup error        DIISStart       ....  0.200000
   # of expansion vecs  DIISMaxEq       ....     5
   Bias factor          DIISBfac        ....   1.050
   Max. coefficient     DIISMaxC        ....  10.000
 Trust-Rad. Augm. Hess. CNVTRAH         .... auto
   Auto Start mean grad. ratio tolernc. ....  1.125000
   Auto Start start iteration           ....    20
   Auto Start num. interpolation iter.  ....    10
   Max. Number of Micro iterations      ....    16
   Max. Number of Macro iterations      .... Maxiter - #DIIS iter
   Number of Davidson start vectors     ....     2
   Converg. threshold I  (grad. norm)   ....   1.000e-05
   Converg. threshold II (energy diff.) ....   1.000e-08
   Grad. Scal. Fac. for Micro threshold ....   0.100
   Minimum threshold for Micro iter.    ....   0.010
   NR start threshold (gradient norm)   ....   0.001
   Initial trust radius                 ....   0.400
   Minimum AH scaling param. (alpha)    ....   1.000
   Maximum AH scaling param. (alpha)    .... 1000.000
   Orbital update algorithm             .... Taylor
   White noise on init. David. guess    .... on
   Maximum white noise                  ....   0.010
   Quad. conv. algorithm                .... NR
 SOSCF                  CNVSOSCF        .... off
 Level Shifting         CNVShift        .... on
   Level shift para.    LevelShift      ....    0.2500
   Turn off err/grad.   ShiftErr        ....    0.0010
 Zerner damping         CNVZerner       .... off
 Static damping         CNVDamp         .... on
   Fraction old density DampFac         ....    0.7000
   Max. Damping (<1)    DampMax         ....    0.9800
   Min. Damping (>=0)   DampMin         ....    0.0000
   Turn off err/grad.   DampErr         ....    0.1000
 Fernandez-Rico         CNVRico         .... off

SCF Procedure:
 Maximum # iterations   MaxIter         ....   125
 SCF integral mode      SCFMode         .... Direct
   Integral package                     .... SHARK and LIBINT hybrid scheme
 Reset frequency        DirectResetFreq ....    20
 Integral Threshold     Thresh          ....  2.500e-11 Eh
 Primitive CutOff       TCut            ....  2.500e-12 Eh

Convergence Tolerance:
 Convergence Check Mode ConvCheckMode   .... Total+1el-Energy
 Convergence forced     ConvForced      .... 0
 Energy Change          TolE            ....  1.000e-08 Eh
 1-El. energy change                    ....  1.000e-05 Eh
 DIIS Error             TolErr          ....  5.000e-07


Diagonalization of the overlap matrix:
Smallest eigenvalue                        ... 1.708e-04
Time for diagonalization                   ...    0.033 sec
Threshold for overlap eigenvalues          ... 1.000e-08
Number of eigenvalues below threshold      ... 0
Time for construction of square roots      ...    0.040 sec
Total time needed                          ...    0.073 sec

Time for model grid setup =    0.227 sec

------------------------------
INITIAL GUESS: MODEL POTENTIAL
------------------------------
Loading Hartree-Fock densities                     ... done
Calculating cut-offs                               ... done
Initializing the effective Hamiltonian             ... done
Setting up the integral package (SHARK)            ... done
Starting the Coulomb interaction                   ... done (   0.2 sec)
Reading the grid                                   ... done
Mapping shells                                     ... done
Starting the XC term evaluation                    ... done (   0.1 sec)
  promolecular density results
     # of electrons  =    116.998323453
     EX              =    -88.334387599
     EC              =     -3.809063545
     EX+EC           =    -92.143451143
Transforming the Hamiltonian                       ... done (   0.0 sec)
Diagonalizing the Hamiltonian                      ... done (   0.0 sec)
Back transforming the eigenvectors                 ... done (   0.0 sec)
Now organizing SCF variables                       ... done
                      ------------------
                      INITIAL GUESS DONE (   0.8 sec)
                      ------------------
-------------------
DFT GRID GENERATION
-------------------

General Integration Accuracy     IntAcc      ... 4.388
Radial Grid Type                 RadialGrid  ... OptM3 with GC (2021)
Angular Grid (max. ang.)         AngularGrid ... 4 (Lebedev-302)
Angular grid pruning method      GridPruning ... 4 (adaptive)
Weight generation scheme         WeightScheme... Becke
Basis function cutoff            BFCut       ... 1.0000e-11
Integration weight cutoff        WCut        ... 1.0000e-14
Angular grids for H and He will be reduced by one unit
Partially contracted basis set               ... off
Rotationally invariant grid construction     ... off

Total number of grid points                  ...   162616
Total number of batches                      ...     2560
Average number of points per batch           ...       63
Average number of grid points per atom       ...     4395
Time for grid setup =    0.868 sec

--------------------
COSX GRID GENERATION
--------------------

GRIDX 1
-------
General Integration Accuracy     IntAcc      ... 3.816
Radial Grid Type                 RadialGrid  ... OptM3 with GC (2021)
Angular Grid (max. ang.)         AngularGrid ... 1 (Lebedev-50)
Angular grid pruning method      GridPruning ... 4 (adaptive)
Weight generation scheme         WeightScheme... Becke
Basis function cutoff            BFCut       ... 1.0000e-11
Integration weight cutoff        WCut        ... 1.0000e-14
Angular grids for H and He will be reduced by one unit
Partially contracted basis set               ... on
Rotationally invariant grid construction     ... off

Total number of grid points                  ...    20760
Total number of batches                      ...      347
Average number of points per batch           ...       59
Average number of grid points per atom       ...      561
UseSFitting                                  ... on

GRIDX 2
-------
General Integration Accuracy     IntAcc      ... 4.020
Radial Grid Type                 RadialGrid  ... OptM3 with GC (2021)
Angular Grid (max. ang.)         AngularGrid ... 2 (Lebedev-110)
Angular grid pruning method      GridPruning ... 4 (adaptive)
Weight generation scheme         WeightScheme... Becke
Basis function cutoff            BFCut       ... 1.0000e-11
Integration weight cutoff        WCut        ... 1.0000e-14
Angular grids for H and He will be reduced by one unit
Partially contracted basis set               ... on
Rotationally invariant grid construction     ... off

Total number of grid points                  ...    43827
Total number of batches                      ...      704
Average number of points per batch           ...       62
Average number of grid points per atom       ...     1185
UseSFitting                                  ... on

GRIDX 3
-------
General Integration Accuracy     IntAcc      ... 4.338
Radial Grid Type                 RadialGrid  ... OptM3 with GC (2021)
Angular Grid (max. ang.)         AngularGrid ... 3 (Lebedev-194)
Angular grid pruning method      GridPruning ... 4 (adaptive)
Weight generation scheme         WeightScheme... Becke
Basis function cutoff            BFCut       ... 1.0000e-11
Integration weight cutoff        WCut        ... 1.0000e-14
Angular grids for H and He will be reduced by one unit
Partially contracted basis set               ... on
Rotationally invariant grid construction     ... off

Total number of grid points                  ...    95835
Total number of batches                      ...     1517
Average number of points per batch           ...       63
Average number of grid points per atom       ...     2590
UseSFitting                                  ... on

Time for X-Grid setup             =    1.566 sec

--------------
SCF ITERATIONS
--------------
ITER       Energy         Delta-E        Max-DP      RMS-DP      [F,P]     Damp
               ***  Starting incremental Fock matrix formation  ***
  0   -621.4727963791   0.000000000000 0.04161264  0.00079191  0.0797704 0.7000
  1   -621.6442593855  -0.171463006456 0.03242538  0.00061271  0.0426599 0.7000
                               ***Turning on DIIS***
  2   -621.7196178251  -0.075358439592 0.10379372  0.00126810  0.0165024 0.0000
  3   -621.8254789046  -0.105861079425 0.02379349  0.00036493  0.0234741 0.0000
  4   -621.8553438653  -0.029864960721 0.02810190  0.00021337  0.0050167 0.0000
  5   -621.8567704362  -0.001426570872 0.01634843  0.00010404  0.0023538 0.0000
  6   -621.8569914418  -0.000221005647 0.00678265  0.00004379  0.0018088 0.0000
  7   -621.8570724306  -0.000080988793 0.00357610  0.00002558  0.0013262 0.0000
  8   -621.8571187474  -0.000046316826 0.00409551  0.00003416  0.0007899 0.0000
               *** Restarting incremental Fock matrix formation ***
                                   *** Resetting DIIS ***
  9   -621.8574272206  -0.000308473211 0.00159733  0.00001590  0.0006565 0.0000
 10   -621.8574192723   0.000007948348 0.00067293  0.00000476  0.0016002 0.0000
 11   -621.8574315521  -0.000012279777 0.00055793  0.00000402  0.0005297 0.0000
 12   -621.8574337005  -0.000002148452 0.00049323  0.00000254  0.0001470 0.0000
 13   -621.8574342000  -0.000000499504 0.00019183  0.00000156  0.0000616 0.0000
 14   -621.8574343095  -0.000000109516 0.00010223  0.00000063  0.0000374 0.0000
 15   -621.8574343314  -0.000000021915 0.00006533  0.00000034  0.0000267 0.0000
 16   -621.8574343423  -0.000000010811 0.00002852  0.00000015  0.0000103 0.0000
 17   -621.8574343491  -0.000000006798 0.00001701  0.00000012  0.0000050 0.0000
                 **** Energy Check signals convergence ****

               *****************************************************
               *                     SUCCESS                       *
               *           SCF CONVERGED AFTER  18 CYCLES          *
               *****************************************************

Old exchange energy                            =    -18.022803007 Eh
New exchange energy                            =    -18.022746518 Eh
Exchange energy change after final integration =      0.000056488 Eh
Total energy after final integration           =   -621.857377858 Eh
Final COS-X integration done in                =     4.908 sec

----------------
TOTAL SCF ENERGY
----------------

Total Energy       :         -621.85737786 Eh          -16921.59953 eV

Components:
Nuclear Repulsion  :          968.26628054 Eh           26347.86499 eV
Electronic Energy  :        -1590.12365839 Eh          -43269.46452 eV
One Electron Energy:        -2757.46470647 Eh          -75034.42934 eV
Two Electron Energy:         1167.34104807 Eh           31764.96482 eV
Max COSX asymmetry :            0.00000266 Eh               0.00007 eV

Virial components:
Potential Energy   :        -1238.60276814 Eh          -33704.09480 eV
Kinetic Energy     :          616.74539028 Eh           16782.49528 eV
Virial Ratio       :            2.00828865


DFT components:
N(Alpha)           :       59.000121058151 electrons
N(Beta)            :       58.000124692360 electrons
N(Total)           :      117.000245750512 electrons
E(X)               :      -71.470350444567 Eh       
E(C)               :       -4.502100104936 Eh       
E(XC)              :      -75.972450549502 Eh       
DFET-embed. en.    :        0.000000000000 Eh       

---------------
SCF CONVERGENCE
---------------

  Last Energy change         ...    2.9124e-09  Tolerance :   1.0000e-08
  Last MAX-Density change    ...    0.0000e+00  Tolerance :   1.0000e-07
  Last RMS-Density change    ...    0.0000e+00  Tolerance :   5.0000e-09
  Last DIIS Error            ...    2.1231e-06  Tolerance :   5.0000e-07

             **** THE GBW FILE WAS UPDATED (BDE.gbw) ****
             **** DENSITY BDE.scfp WAS UPDATED ****
             **** ENERGY FILE WAS UPDATED (BDE.en.tmp) ****
----------------------
UHF SPIN CONTAMINATION
----------------------

Warning: in a DFT calculation there is little theoretical justification to 
         calculate <S**2> as in Hartree-Fock theory. We will do it anyways
         but you should keep in mind that the values have only limited relevance

Expectation value of <S**2>     :     0.771019
Ideal value S*(S+1) for S=0.5   :     0.750000
Deviation                       :     0.021019

             **** THE GBW FILE WAS UPDATED (BDE.gbw) ****
             **** DENSITY BDE.scfp WAS UPDATED ****
----------------
ORBITAL ENERGIES
----------------
                 SPIN UP ORBITALS
  NO   OCC          E(Eh)            E(eV) 
   0   1.0000     -10.241848      -278.6948 
   1   1.0000     -10.238345      -278.5995 
   2   1.0000     -10.236994      -278.5628 
   3   1.0000     -10.227910      -278.3156 
   4   1.0000     -10.222257      -278.1617 
   5   1.0000     -10.219214      -278.0790 
   6   1.0000     -10.210762      -277.8490 
   7   1.0000     -10.205614      -277.7089 
   8   1.0000     -10.204278      -277.6725 
   9   1.0000     -10.198659      -277.5196 
  10   1.0000     -10.194820      -277.4152 
  11   1.0000     -10.192002      -277.3385 
  12   1.0000     -10.191144      -277.3151 
  13   1.0000     -10.187440      -277.2143 
  14   1.0000     -10.179797      -277.0064 
  15   1.0000     -10.177596      -276.9465 
  16   1.0000      -0.887097       -24.1391 
  17   1.0000      -0.828415       -22.5423 
  18   1.0000      -0.803137       -21.8545 
  19   1.0000      -0.795484       -21.6462 
  20   1.0000      -0.777706       -21.1624 
  21   1.0000      -0.740445       -20.1485 
  22   1.0000      -0.717262       -19.5177 
  23   1.0000      -0.704596       -19.1730 
  24   1.0000      -0.661988       -18.0136 
  25   1.0000      -0.640893       -17.4396 
  26   1.0000      -0.630311       -17.1516 
  27   1.0000      -0.598903       -16.2970 
  28   1.0000      -0.586914       -15.9708 
  29   1.0000      -0.572666       -15.5830 
  30   1.0000      -0.525496       -14.2995 
  31   1.0000      -0.498849       -13.5744 
  32   1.0000      -0.485550       -13.2125 
  33   1.0000      -0.482548       -13.1308 
  34   1.0000      -0.478439       -13.0190 
  35   1.0000      -0.447485       -12.1767 
  36   1.0000      -0.434972       -11.8362 
  37   1.0000      -0.434266       -11.8170 
  38   1.0000      -0.428810       -11.6685 
  39   1.0000      -0.426814       -11.6142 
  40   1.0000      -0.418714       -11.3938 
  41   1.0000      -0.404462       -11.0060 
  42   1.0000      -0.389970       -10.6116 
  43   1.0000      -0.378925       -10.3111 
  44   1.0000      -0.375190       -10.2094 
  45   1.0000      -0.367454        -9.9989 
  46   1.0000      -0.366768        -9.9803 
  47   1.0000      -0.352353        -9.5880 
  48   1.0000      -0.341926        -9.3043 
  49   1.0000      -0.336514        -9.1570 
  50   1.0000      -0.333562        -9.0767 
  51   1.0000      -0.333155        -9.0656 
  52   1.0000      -0.329653        -8.9703 
  53   1.0000      -0.328837        -8.9481 
  54   1.0000      -0.317636        -8.6433 
  55   1.0000      -0.269504        -7.3336 
  56   1.0000      -0.268291        -7.3006 
  57   1.0000      -0.243825        -6.6348 
  58   1.0000      -0.232586        -6.3290 
  59   0.0000      -0.070373        -1.9150 
  60   0.0000      -0.022244        -0.6053 
  61   0.0000       0.007795         0.2121 
  62   0.0000       0.016551         0.4504 
  63   0.0000       0.020288         0.5521 
  64   0.0000       0.028036         0.7629 
  65   0.0000       0.030289         0.8242 
  66   0.0000       0.032741         0.8909 
  67   0.0000       0.042736         1.1629 
  68   0.0000       0.047679         1.2974 
  69   0.0000       0.050592         1.3767 
  70   0.0000       0.067333         1.8322 
  71   0.0000       0.068929         1.8756 
  72   0.0000       0.084788         2.3072 
  73   0.0000       0.093088         2.5331 
  74   0.0000       0.100390         2.7318 
  75   0.0000       0.117703         3.2028 
  76   0.0000       0.128689         3.5018 
  77   0.0000       0.136110         3.7038 
  78   0.0000       0.141726         3.8566 
  79   0.0000       0.151882         4.1329 
  80   0.0000       0.164803         4.4845 
  81   0.0000       0.168897         4.5959 
  82   0.0000       0.174598         4.7510 
  83   0.0000       0.176565         4.8046 
  84   0.0000       0.178334         4.8527 
  85   0.0000       0.182817         4.9747 
  86   0.0000       0.190479         5.1832 
  87   0.0000       0.192159         5.2289 
  88   0.0000       0.193633         5.2690 
  89   0.0000       0.200229         5.4485 
  90   0.0000       0.201489         5.4828 
  91   0.0000       0.205394         5.5890 
  92   0.0000       0.208572         5.6755 
  93   0.0000       0.222671         6.0592 
  94   0.0000       0.226764         6.1706 
  95   0.0000       0.230167         6.2632 
  96   0.0000       0.239548         6.5184 
  97   0.0000       0.239638         6.5209 
  98   0.0000       0.244323         6.6484 
  99   0.0000       0.244922         6.6647 
 100   0.0000       0.256880         6.9901 
 101   0.0000       0.263740         7.1767 
 102   0.0000       0.265485         7.2242 
 103   0.0000       0.267748         7.2858 
 104   0.0000       0.276692         7.5292 
 105   0.0000       0.276807         7.5323 
 106   0.0000       0.286545         7.7973 
 107   0.0000       0.289253         7.8710 
 108   0.0000       0.290853         7.9145 
 109   0.0000       0.292336         7.9549 
 110   0.0000       0.302538         8.2325 
 111   0.0000       0.305093         8.3020 
 112   0.0000       0.306470         8.3395 
 113   0.0000       0.313629         8.5343 
 114   0.0000       0.318877         8.6771 
 115   0.0000       0.319615         8.6972 
 116   0.0000       0.327955         8.9241 
 117   0.0000       0.338027         9.1982 
 118   0.0000       0.343599         9.3498 
 119   0.0000       0.348775         9.4906 
 120   0.0000       0.357747         9.7348 
 121   0.0000       0.358118         9.7449 
 122   0.0000       0.361490         9.8366 
 123   0.0000       0.364241         9.9115 
 124   0.0000       0.373194        10.1551 
 125   0.0000       0.384756        10.4697 
 126   0.0000       0.394504        10.7350 
 127   0.0000       0.402790        10.9605 
 128   0.0000       0.406288        11.0557 
 129   0.0000       0.409231        11.1357 
 130   0.0000       0.415352        11.3023 
 131   0.0000       0.416220        11.3259 
 132   0.0000       0.435955        11.8629 
 133   0.0000       0.438489        11.9319 
 134   0.0000       0.442897        12.0518 
 135   0.0000       0.450193        12.2504 
 136   0.0000       0.453806        12.3487 
 137   0.0000       0.463942        12.6245 
 138   0.0000       0.469892        12.7864 
 139   0.0000       0.476525        12.9669 
 140   0.0000       0.478590        13.0231 
 141   0.0000       0.482242        13.1225 
 142   0.0000       0.494494        13.4559 
 143   0.0000       0.504783        13.7358 
 144   0.0000       0.513606        13.9759 
 145   0.0000       0.520629        14.1670 
 146   0.0000       0.524086        14.2611 
 147   0.0000       0.540626        14.7112 
 148   0.0000       0.544552        14.8180 
 149   0.0000       0.556274        15.1370 
 150   0.0000       0.560218        15.2443 
 151   0.0000       0.566698        15.4206 
 152   0.0000       0.577666        15.7191 
 153   0.0000       0.597999        16.2724 
 154   0.0000       0.604721        16.4553 
 155   0.0000       0.615078        16.7371 
 156   0.0000       0.645804        17.5732 
 157   0.0000       0.651244        17.7213 
 158   0.0000       0.667508        18.1638 
 159   0.0000       0.698740        19.0137 
 160   0.0000       0.730400        19.8752 
 161   0.0000       0.757186        20.6041 
 162   0.0000       0.758129        20.6297 
 163   0.0000       0.761110        20.7108 
 164   0.0000       0.767663        20.8892 
 165   0.0000       0.787217        21.4213 
 166   0.0000       0.813783        22.1442 
 167   0.0000       0.816272        22.2119 
 168   0.0000       0.833225        22.6732 
 169   0.0000       0.837328        22.7848 
 170   0.0000       0.839492        22.8437 
 171   0.0000       0.843822        22.9616 
 172   0.0000       0.855995        23.2928 
 173   0.0000       0.868087        23.6219 
 174   0.0000       0.870899        23.6984 
 175   0.0000       0.883778        24.0488 
 176   0.0000       0.885011        24.0824 
 177   0.0000       0.888745        24.1840 
 178   0.0000       0.903713        24.5913 
 179   0.0000       0.906393        24.6642 
 180   0.0000       0.914002        24.8713 
 181   0.0000       0.918996        25.0072 
 182   0.0000       0.920061        25.0361 
 183   0.0000       0.933309        25.3966 
 184   0.0000       0.933473        25.4011 
 185   0.0000       0.940745        25.5990 
 186   0.0000       0.952445        25.9174 
 187   0.0000       0.957282        26.0490 
 188   0.0000       0.966154        26.2904 
 189   0.0000       0.978135        26.6164 
 190   0.0000       0.980697        26.6861 
 191   0.0000       0.984891        26.8002 
 192   0.0000       0.990153        26.9434 
 193   0.0000       0.993032        27.0218 
 194   0.0000       1.014719        27.6119 
 195   0.0000       1.018360        27.7110 
 196   0.0000       1.029568        28.0160 
 197   0.0000       1.037235        28.2246 
 198   0.0000       1.053154        28.6578 
 199   0.0000       1.056013        28.7356 
 200   0.0000       1.084878        29.5210 
 201   0.0000       1.088953        29.6319 
 202   0.0000       1.094606        29.7858 
 203   0.0000       1.095225        29.8026 
 204   0.0000       1.103290        30.0220 
 205   0.0000       1.121749        30.5243 
 206   0.0000       1.143066        31.1044 
 207   0.0000       1.153317        31.3834 
 208   0.0000       1.164469        31.6868 
 209   0.0000       1.166006        31.7286 
 210   0.0000       1.170824        31.8598 
 211   0.0000       1.188254        32.3340 
 212   0.0000       1.192173        32.4407 
 213   0.0000       1.196689        32.5636 
 214   0.0000       1.202615        32.7248 
 215   0.0000       1.214793        33.0562 
 216   0.0000       1.222411        33.2635 
 217   0.0000       1.236951        33.6592 
 218   0.0000       1.258892        34.2562 
 219   0.0000       1.266229        34.4558 
 220   0.0000       1.277850        34.7721 
 221   0.0000       1.292601        35.1735 
 222   0.0000       1.302422        35.4407 
 223   0.0000       1.307485        35.5785 
 224   0.0000       1.323695        36.0196 
 225   0.0000       1.326605        36.0988 
 226   0.0000       1.357193        36.9311 
 227   0.0000       1.358538        36.9677 
 228   0.0000       1.368681        37.2437 
 229   0.0000       1.368838        37.2480 
 230   0.0000       1.389664        37.8147 
 231   0.0000       1.410095        38.3706 
 232   0.0000       1.419114        38.6161 
 233   0.0000       1.422202        38.7001 
 234   0.0000       1.430500        38.9259 
 235   0.0000       1.444952        39.3191 
 236   0.0000       1.453628        39.5552 
 237   0.0000       1.470102        40.0035 
 238   0.0000       1.487422        40.4748 
 239   0.0000       1.498144        40.7666 
 240   0.0000       1.500217        40.8230 
 241   0.0000       1.516677        41.2709 
 242   0.0000       1.526022        41.5252 
 243   0.0000       1.528327        41.5879 
 244   0.0000       1.535467        41.7822 
 245   0.0000       1.547742        42.1162 
 246   0.0000       1.563821        42.5537 
 247   0.0000       1.567696        42.6592 
 248   0.0000       1.574564        42.8461 
 249   0.0000       1.577098        42.9150 
 250   0.0000       1.587886        43.2086 
 251   0.0000       1.591975        43.3198 
 252   0.0000       1.593889        43.3719 
 253   0.0000       1.596755        43.4499 
 254   0.0000       1.606622        43.7184 
 255   0.0000       1.611971        43.8639 
 256   0.0000       1.626701        44.2648 
 257   0.0000       1.629279        44.3349 
 258   0.0000       1.641091        44.6563 
 259   0.0000       1.650773        44.9198 
 260   0.0000       1.660635        45.1882 
 261   0.0000       1.668124        45.3920 
 262   0.0000       1.688386        45.9433 
 263   0.0000       1.691625        46.0315 
 264   0.0000       1.698061        46.2066 
 265   0.0000       1.707558        46.4650 
 266   0.0000       1.712281        46.5935 
 267   0.0000       1.722866        46.8816 
 268   0.0000       1.727454        47.0064 
 269   0.0000       1.730694        47.0946 
 270   0.0000       1.737745        47.2865 
 271   0.0000       1.748092        47.5680 
 272   0.0000       1.756727        47.8030 
 273   0.0000       1.768573        48.1253 
 274   0.0000       1.769308        48.1453 
 275   0.0000       1.786201        48.6050 
 276   0.0000       1.797846        48.9219 
 277   0.0000       1.814564        49.3768 
 278   0.0000       1.822428        49.5908 
 279   0.0000       1.826317        49.6966 
 280   0.0000       1.848608        50.3032 
 281   0.0000       1.864369        50.7321 
 282   0.0000       1.888597        51.3913 
 283   0.0000       1.889470        51.4151 
 284   0.0000       1.902378        51.7663 
 285   0.0000       1.921182        52.2780 
 286   0.0000       1.924015        52.3551 
 287   0.0000       1.929618        52.5076 
 288   0.0000       1.935145        52.6580 
 289   0.0000       1.951426        53.1010 
 290   0.0000       2.008641        54.6579 
 291   0.0000       2.017565        54.9007 
 292   0.0000       2.032705        55.3127 
 293   0.0000       2.038891        55.4811 
 294   0.0000       2.056599        55.9629 
 295   0.0000       2.069803        56.3222 
 296   0.0000       2.082949        56.6799 
 297   0.0000       2.110503        57.4297 
 298   0.0000       2.124230        57.8032 
 299   0.0000       2.132303        58.0229 
 300   0.0000       2.138851        58.2011 
 301   0.0000       2.179089        59.2960 
 302   0.0000       2.199642        59.8553 
 303   0.0000       2.220996        60.4364 
 304   0.0000       2.221708        60.4558 
 305   0.0000       2.236750        60.8651 
 306   0.0000       2.245008        61.0898 
 307   0.0000       2.247879        61.1679 
 308   0.0000       2.274625        61.8957 
 309   0.0000       2.275430        61.9176 
 310   0.0000       2.294296        62.4310 
 311   0.0000       2.303529        62.6822 
 312   0.0000       2.314120        62.9704 
 313   0.0000       2.315498        63.0079 
 314   0.0000       2.336095        63.5684 
 315   0.0000       2.336216        63.5717 
 316   0.0000       2.341761        63.7226 
 317   0.0000       2.393721        65.1365 
 318   0.0000       2.410729        65.5993 
 319   0.0000       2.418068        65.7990 
 320   0.0000       2.422252        65.9128 
 321   0.0000       2.426285        66.0226 
 322   0.0000       2.443643        66.4949 
 323   0.0000       2.443752        66.4979 
 324   0.0000       2.449643        66.6582 
 325   0.0000       2.463351        67.0312 
 326   0.0000       2.467333        67.1395 
 327   0.0000       2.474341        67.3302 
 328   0.0000       2.501642        68.0731 
 329   0.0000       2.505268        68.1718 
 330   0.0000       2.530201        68.8503 
 331   0.0000       2.540346        69.1263 
 332   0.0000       2.549078        69.3639 
 333   0.0000       2.563048        69.7441 
 334   0.0000       2.578974        70.1774 
 335   0.0000       2.600080        70.7518 
 336   0.0000       2.603242        70.8378 
 337   0.0000       2.609532        71.0090 
 338   0.0000       2.610433        71.0335 
 339   0.0000       2.615049        71.1591 
 340   0.0000       2.674572        72.7788 
 341   0.0000       2.727714        74.2249 
 342   0.0000       2.797356        76.1199 
 343   0.0000       2.829172        76.9857 
 344   0.0000       3.237459        88.0957 
 345   0.0000       4.972936       135.3205 
 346   0.0000       4.977015       135.4315 
 347   0.0000       4.990850       135.8079 
 348   0.0000       4.994557       135.9088 
 349   0.0000       5.002508       136.1252 
 350   0.0000       5.002792       136.1329 
 351   0.0000       5.009194       136.3071 
 352   0.0000       5.022694       136.6744 
 353   0.0000       5.026684       136.7830 
 354   0.0000       5.034053       136.9836 
 355   0.0000       5.039121       137.1214 
 356   0.0000       5.116608       139.2300 
 357   0.0000       5.206183       141.6675 
 358   0.0000       5.229393       142.2990 
 359   0.0000       5.243952       142.6952 
 360   0.0000       5.256577       143.0387 
 361   0.0000       5.274178       143.5177 
 362   0.0000       5.290835       143.9710 
 363   0.0000       5.295163       144.0887 
 364   0.0000       5.297514       144.1527 
 365   0.0000       5.317756       144.7035 
 366   0.0000       5.358101       145.8013 
 367   0.0000       5.380954       146.4232 
 368   0.0000       5.405331       147.0865 
 369   0.0000       5.432140       147.8160 
 370   0.0000       5.450830       148.3246 
 371   0.0000       5.496131       149.5573 
 372   0.0000       5.538022       150.6972 
 373   0.0000       5.581580       151.8825 
 374   0.0000       5.587034       152.0309 
 375   0.0000       5.631191       153.2325 
 376   0.0000       5.723456       155.7432 
 377   0.0000       5.729823       155.9164 
 378   0.0000       5.768761       156.9760 
 379   0.0000       5.838814       158.8822 
 380   0.0000       5.866312       159.6305 
 381   0.0000       6.104231       166.1046 
 382   0.0000      29.567647       804.5766 
 383   0.0000      29.778918       810.3256 
 384   0.0000      29.788520       810.5868 
 385   0.0000      29.828429       811.6728 
 386   0.0000      29.910160       813.8968 
 387   0.0000      29.928414       814.3936 
 388   0.0000      29.972800       815.6014 
 389   0.0000      29.996452       816.2450 
 390   0.0000      30.050088       817.7045 
 391   0.0000      30.062970       818.0550 
 392   0.0000      30.102806       819.1390 
 393   0.0000      30.136965       820.0685 
 394   0.0000      30.160106       820.6982 
 395   0.0000      30.246650       823.0532 
 396   0.0000      30.269483       823.6745 
 397   0.0000      30.421263       827.8047 
 398   0.0000      36.599369       995.9195 
 399   0.0000      36.603267       996.0255 
 400   0.0000      36.613098       996.2930 
 401   0.0000      36.618855       996.4497 
 402   0.0000      36.626343       996.6535 
 403   0.0000      36.630331       996.7620 
 404   0.0000      36.646067       997.1902 
 405   0.0000      36.651297       997.3325 
 406   0.0000      36.657863       997.5112 
 407   0.0000      36.662401       997.6346 
 408   0.0000      36.732745       999.5488 
 409   0.0000      36.816678      1001.8327 
 410   0.0000      36.840506      1002.4811 
 411   0.0000      36.848568      1002.7005 
 412   0.0000      36.864646      1003.1380 
 413   0.0000      36.871080      1003.3131 
 414   0.0000      36.920868      1004.6679 
 415   0.0000      36.925770      1004.8013 
 416   0.0000      36.940949      1005.2143 
 417   0.0000      36.975825      1006.1633 
 418   0.0000      36.994921      1006.6830 

                 SPIN DOWN ORBITALS
  NO   OCC          E(Eh)            E(eV) 
   0   1.0000     -10.242550      -278.7140 
   1   1.0000     -10.235762      -278.5292 
   2   1.0000     -10.233294      -278.4621 
   3   1.0000     -10.229142      -278.3491 
   4   1.0000     -10.220538      -278.1150 
   5   1.0000     -10.220209      -278.1060 
   6   1.0000     -10.205965      -277.7184 
   7   1.0000     -10.205533      -277.7067 
   8   1.0000     -10.200378      -277.5664 
   9   1.0000     -10.198827      -277.5242 
  10   1.0000     -10.194822      -277.4152 
  11   1.0000     -10.192003      -277.3385 
  12   1.0000     -10.191146      -277.3152 
  13   1.0000     -10.187441      -277.2144 
  14   1.0000     -10.179797      -277.0064 
  15   1.0000     -10.177598      -276.9465 
  16   1.0000      -0.883666       -24.0458 
  17   1.0000      -0.827187       -22.5089 
  18   1.0000      -0.802458       -21.8360 
  19   1.0000      -0.791228       -21.5304 
  20   1.0000      -0.776751       -21.1365 
  21   1.0000      -0.739669       -20.1274 
  22   1.0000      -0.711982       -19.3740 
  23   1.0000      -0.692540       -18.8450 
  24   1.0000      -0.661261       -17.9938 
  25   1.0000      -0.631949       -17.1962 
  26   1.0000      -0.629483       -17.1291 
  27   1.0000      -0.596792       -16.2395 
  28   1.0000      -0.586758       -15.9665 
  29   1.0000      -0.571886       -15.5618 
  30   1.0000      -0.523456       -14.2440 
  31   1.0000      -0.495911       -13.4944 
  32   1.0000      -0.484047       -13.1716 
  33   1.0000      -0.482485       -13.1291 
  34   1.0000      -0.477615       -12.9966 
  35   1.0000      -0.446670       -12.1545 
  36   1.0000      -0.434127       -11.8132 
  37   1.0000      -0.432401       -11.7662 
  38   1.0000      -0.428569       -11.6620 
  39   1.0000      -0.425498       -11.5784 
  40   1.0000      -0.418470       -11.3872 
  41   1.0000      -0.403612       -10.9828 
  42   1.0000      -0.383898       -10.4464 
  43   1.0000      -0.378157       -10.2902 
  44   1.0000      -0.375083       -10.2065 
  45   1.0000      -0.366398        -9.9702 
  46   1.0000      -0.365905        -9.9568 
  47   1.0000      -0.349255        -9.5037 
  48   1.0000      -0.341795        -9.3007 
  49   1.0000      -0.336432        -9.1548 
  50   1.0000      -0.333441        -9.0734 
  51   1.0000      -0.332700        -9.0532 
  52   1.0000      -0.329173        -8.9573 
  53   1.0000      -0.328433        -8.9371 
  54   1.0000      -0.295496        -8.0409 
  55   1.0000      -0.262759        -7.1500 
  56   1.0000      -0.258011        -7.0208 
  57   1.0000      -0.236853        -6.4451 
  58   0.0000      -0.152341        -4.1454 
  59   0.0000      -0.045212        -1.2303 
  60   0.0000      -0.015123        -0.4115 
  61   0.0000       0.008138         0.2215 
  62   0.0000       0.016587         0.4514 
  63   0.0000       0.020507         0.5580 
  64   0.0000       0.028383         0.7723 
  65   0.0000       0.030686         0.8350 
  66   0.0000       0.036887         1.0038 
  67   0.0000       0.043199         1.1755 
  68   0.0000       0.048089         1.3086 
  69   0.0000       0.068363         1.8603 
  70   0.0000       0.069271         1.8850 
  71   0.0000       0.071619         1.9488 
  72   0.0000       0.084998         2.3129 
  73   0.0000       0.093676         2.5491 
  74   0.0000       0.100828         2.7437 
  75   0.0000       0.118122         3.2143 
  76   0.0000       0.136665         3.7188 
  77   0.0000       0.141310         3.8452 
  78   0.0000       0.142507         3.8778 
  79   0.0000       0.152183         4.1411 
  80   0.0000       0.165173         4.4946 
  81   0.0000       0.169683         4.6173 
  82   0.0000       0.175197         4.7673 
  83   0.0000       0.178197         4.8490 
  84   0.0000       0.178850         4.8668 
  85   0.0000       0.182840         4.9753 
[...]
     91      -0.000029   0.000026   0.000049
     92       0.000000   0.000000   0.000000
     93       0.000083   0.000034   0.000028
     94      -0.000035   0.000019   0.000035
     95      -0.000130  -0.000021  -0.000108
     96       0.000081   0.000034   0.000028
     97      -0.000036   0.000019   0.000034
     98       0.000128   0.000021   0.000108
     99      -0.000500  -0.000413  -0.000035
    100      -0.000803  -0.000518  -0.000103
    101      -0.000002  -0.000002  -0.000000
    102       0.000291  -0.000254  -0.000326
    103       0.000533  -0.000437  -0.000419
    104       0.000002  -0.000001  -0.000001
    105       0.978492  -0.179051   0.017210
    106       0.035707  -0.009662   0.000119
    107       0.000196  -0.000045   0.000002
    108       0.000016  -0.000159   0.000076
    109      -0.000003  -0.000005   0.000077
    110      -0.000000  -0.000000   0.000000


-----------
IR SPECTRUM
-----------

 Mode   freq       eps      Int      T**2         TX        TY        TZ
       cm**-1   L/(mol*cm) km/mol    a.u.
----------------------------------------------------------------------------
  6:     12.47   0.000027    0.13  0.000664  (-0.000004  0.000027 -0.025774)
  7:     22.98   0.000279    1.41  0.003789  ( 0.000003 -0.000225  0.061555)
  8:     59.41   0.000031    0.16  0.000163  (-0.010172 -0.005493 -0.005451)
  9:     59.63   0.000059    0.30  0.000306  ( 0.003243  0.001809 -0.017100)
 10:     80.33   0.000641    3.24  0.002489  (-0.000021  0.000371 -0.049888)
 11:     83.90   0.001152    5.82  0.004284  (-0.001067  0.065444  0.000582)
 12:    101.85   0.003205   16.20  0.009820  (-0.000004 -0.000369  0.099094)
 13:    110.96   0.000095    0.48  0.000269  (-0.000026 -0.000071  0.016388)
 14:    111.95   0.000006    0.03  0.000017  ( 0.000012 -0.000071  0.004180)
 15:    126.37   0.000633    3.20  0.001564  (-0.002686  0.039459  0.000113)
 16:    137.69   0.000177    0.89  0.000400  (-0.000020  0.000069 -0.020005)
 17:    208.07   0.003141   15.87  0.004710  (-0.000008 -0.000186  0.068632)
 18:    225.14   0.000085    0.43  0.000118  ( 0.006270 -0.008859 -0.000019)
 19:    227.07   0.000027    0.14  0.000037  ( 0.005549 -0.002447 -0.000005)
 20:    239.31   0.000092    0.46  0.000120  (-0.000003 -0.000025  0.010933)
 21:    242.36   0.000106    0.54  0.000137  ( 0.000024  0.000037 -0.011708)
 22:    291.32   0.000004    0.02  0.000004  (-0.000407  0.001979 -0.000019)
 23:    309.51   0.000245    1.24  0.000247  ( 0.000002  0.000032 -0.015718)
 24:    331.43   0.000019    0.10  0.000018  (-0.003118 -0.002884 -0.000013)
 25:    429.98   0.000329    1.66  0.000239  ( 0.002443 -0.015260 -0.000102)
 26:    444.16   0.000018    0.09  0.000013  ( 0.000180 -0.003583  0.000350)
 27:    445.90   0.001980   10.01  0.001386  ( 0.000018  0.000109 -0.037224)
 28:    483.78   0.000382    1.93  0.000247  (-0.012518  0.009489  0.000022)
 29:    537.46   0.000253    1.28  0.000147  ( 0.000005 -0.000069  0.012121)
 30:    540.37   0.000384    1.94  0.000222  ( 0.000579  0.014880  0.000069)
 31:    592.19   0.000252    1.27  0.000133  ( 0.011342  0.002075  0.000011)
 32:    692.86   0.000140    0.71  0.000063  (-0.000001 -0.000046  0.007948)
 33:    721.11   0.000153    0.77  0.000066  ( 0.008143 -0.000083  0.000004)
 34:    731.45   0.000745    3.77  0.000318  (-0.000029 -0.000026  0.017829)
 35:    742.64   0.001470    7.43  0.000618  (-0.000015 -0.000057  0.024850)
 36:    776.50   0.000075    0.38  0.000030  (-0.003768 -0.003971 -0.000035)
 37:    778.27   0.000754    3.81  0.000302  (-0.000012 -0.000071  0.017385)
 38:    793.68   0.000009    0.05  0.000004  (-0.000006 -0.000008 -0.001913)
 39:    857.82   0.002754   13.92  0.001002  (-0.000003 -0.000102  0.031653)
 40:    904.31   0.000683    3.45  0.000236  (-0.009703 -0.011903 -0.000039)
 41:    907.81   0.000341    1.72  0.000117  (-0.000969 -0.010786 -0.000037)
 42:    911.42   0.000131    0.66  0.000045  ( 0.000000  0.000044 -0.006687)
 43:    942.35   0.000599    3.02  0.000198  (-0.000007 -0.000027  0.014078)
 44:    950.21   0.001238    6.25  0.000406  ( 0.003193  0.019907  0.000057)
 45:    958.34   0.001148    5.80  0.000374  (-0.000001 -0.000041  0.019335)
 46:    999.92   0.000151    0.76  0.000047  (-0.000013 -0.000031  0.006870)
 47:   1025.62   0.000348    1.76  0.000106  (-0.007715  0.006819  0.000014)
 48:   1027.11   0.000010    0.05  0.000003  ( 0.001632 -0.000614  0.000002)
 49:   1066.54   0.000111    0.56  0.000032  (-0.001673 -0.005441 -0.000014)
 50:   1069.21   0.000073    0.37  0.000021  (-0.003176  0.003342  0.000008)
 51:   1104.06   0.000280    1.41  0.000079  (-0.008787 -0.001387 -0.000006)
 52:   1116.87   0.000481    2.43  0.000134  ( 0.001345 -0.011513 -0.000032)
 53:   1121.89   0.000039    0.20  0.000011  ( 0.000023 -0.000005 -0.003299)
 54:   1127.54   0.000041    0.20  0.000011  ( 0.000015  0.000021 -0.003350)
 55:   1131.51   0.002173   10.98  0.000599  (-0.014031 -0.020062 -0.000063)
 56:   1170.18   0.001319    6.66  0.000352  ( 0.012621 -0.013869 -0.000045)
 57:   1198.18   0.005228   26.42  0.001362  (-0.036868 -0.001563 -0.000006)
 58:   1217.19   0.011151   56.35  0.002859  ( 0.053381 -0.003051  0.000003)
 59:   1238.36   0.000007    0.04  0.000002  ( 0.000016  0.000019  0.001337)
 60:   1239.71   0.000012    0.06  0.000003  ( 0.000006  0.000017  0.001758)
 61:   1274.55   0.000001    0.01  0.000000  ( 0.000467  0.000340  0.000001)
 62:   1278.99   0.000207    1.05  0.000051  (-0.000801  0.007064  0.000020)
 63:   1297.33   0.000596    3.01  0.000143  ( 0.011961 -0.000463  0.000008)
 64:   1311.60   0.000025    0.13  0.000006  (-0.000001  0.000028  0.002431)
 65:   1314.30   0.000062    0.32  0.000015  ( 0.000009  0.000003  0.003847)
 66:   1330.98   0.000060    0.30  0.000014  ( 0.000006  0.000042 -0.003760)
 67:   1331.54   0.000110    0.56  0.000026  ( 0.000024  0.000026 -0.005085)
 68:   1338.94   0.006363   32.16  0.001483  ( 0.009488  0.037324  0.000099)
 69:   1357.45   0.000047    0.24  0.000011  ( 0.003180  0.000890  0.000003)
 70:   1372.24   0.003033   15.33  0.000690  (-0.003415 -0.026040 -0.000073)
 71:   1390.09   0.000414    2.09  0.000093  ( 0.006986 -0.006643 -0.000012)
 72:   1400.57   0.002795   14.12  0.000623  ( 0.005148 -0.024418 -0.000062)
 73:   1411.64   0.002108   10.65  0.000466  ( 0.014160 -0.016293 -0.000025)
 74:   1411.77   0.000442    2.24  0.000098  (-0.001786 -0.009726 -0.000031)
 75:   1419.18   0.002608   13.18  0.000573  (-0.010006 -0.021755 -0.000067)
 76:   1460.32   0.001470    7.43  0.000314  (-0.014688 -0.009923 -0.000033)
 77:   1475.66   0.000999    5.05  0.000211  ( 0.010569  0.009978  0.000035)
 78:   1490.10   0.002544   12.85  0.000533  ( 0.004370 -0.022662 -0.000055)
 79:   1490.62   0.000188    0.95  0.000039  (-0.000991  0.006198  0.000013)
 80:   1492.98   0.005939   30.02  0.001241  ( 0.008756 -0.034129 -0.000095)
 81:   1501.78   0.000006    0.03  0.000001  (-0.001010  0.000501  0.000001)
 82:   1502.53   0.001122    5.67  0.000233  (-0.004921  0.014452  0.000043)
 83:   1505.75   0.001967    9.94  0.000408  (-0.000027 -0.000047  0.020190)
 84:   1505.91   0.001957    9.89  0.000406  ( 0.000019  0.000038 -0.020138)
 85:   1515.63   0.000705    3.56  0.000145  ( 0.011306  0.004172  0.000016)
 86:   1515.90   0.003930   19.86  0.000809  ( 0.027126  0.008552  0.000040)
 87:   1561.12   0.010323   52.17  0.002064  (-0.039712 -0.022056 -0.000064)
 88:   1624.24   0.003899   19.70  0.000749  ( 0.027366 -0.000374  0.000001)
 89:   1969.29   0.023521  118.86  0.003727  ( 0.061031  0.001558  0.000012)
 90:   3002.24   0.000502    2.54  0.000052  (-0.007204  0.000540 -0.000006)
 91:   3002.48   0.001397    7.06  0.000145  (-0.011359 -0.004016 -0.000022)
 92:   3006.18   0.000530    2.68  0.000055  (-0.006462  0.003645  0.000005)
 93:   3015.35   0.003832   19.36  0.000397  (-0.019231 -0.005169 -0.000036)
 94:   3015.43   0.010233   51.71  0.001059  ( 0.031857  0.006641  0.000054)
 95:   3020.17   0.006736   34.04  0.000696  (-0.018144  0.019152  0.000027)
 96:   3022.37   0.006118   30.92  0.000632  ( 0.016019 -0.019366 -0.000031)
 97:   3026.01   0.003776   19.08  0.000389  ( 0.018944 -0.005522  0.000009)
 98:   3028.60   0.000743    3.75  0.000077  (-0.000001 -0.000026  0.008747)
 99:   3032.66   0.000189    0.95  0.000019  ( 0.000043 -0.000028  0.004404)
100:   3037.69   0.000035    0.18  0.000004  ( 0.000005 -0.000001  0.001890)
101:   3048.54   0.000429    2.17  0.000044  ( 0.000012 -0.000016  0.006625)
102:   3062.97   0.007100   35.88  0.000723  ( 0.000033  0.000073 -0.026896)
103:   3064.24   0.005725   28.93  0.000583  (-0.000033 -0.000057  0.024147)
104:   3088.78   0.012631   63.83  0.001276  ( 0.000049  0.000096 -0.035722)
105:   3091.50   0.011569   58.47  0.001168  (-0.000047 -0.000101  0.034174)
106:   3094.86   0.007591   38.36  0.000765  ( 0.019859  0.019261  0.000088)
107:   3095.83   0.007720   39.01  0.000778  ( 0.020812  0.018575  0.000086)
108:   3157.37   0.002703   13.66  0.000267  (-0.015505 -0.005168 -0.000016)
109:   3202.51   0.002543   12.85  0.000248  ( 0.011459 -0.010793 -0.000029)
110:   3212.94   0.000286    1.45  0.000028  (-0.002381 -0.004706 -0.000014)

* The epsilon (eps) is given for a Dirac delta lineshape.
** The dipole moment derivative (T) already includes vibrational overlap.

The first frequency considered to be a vibration is 6
The total number of vibrations considered is 105


--------------------------
THERMOCHEMISTRY AT 298.15K
--------------------------

Temperature         ... 298.15 K
Pressure            ... 1.00 atm
Total Mass          ... 213.34 AMU

Throughout the following assumptions are being made:
  (1) The electronic state is orbitally nondegenerate
      but the spin degeneracy is treated
  (2) There are no thermally accessible electronically excited states
  (3) Hindered rotations indicated by low frequency modes are not
      treated as such but are treated as vibrations and this may
      cause some error
  (4) All equations used are the standard statistical mechanics
      equations for an ideal gas
  (5) All vibrations are strictly harmonic

freq.      12.47  E(vib)   ...       0.57 
freq.      22.98  E(vib)   ...       0.56 
freq.      59.41  E(vib)   ...       0.51 
freq.      59.63  E(vib)   ...       0.51 
freq.      80.33  E(vib)   ...       0.49 
freq.      83.90  E(vib)   ...       0.48 
freq.     101.85  E(vib)   ...       0.46 
freq.     110.96  E(vib)   ...       0.45 
freq.     111.95  E(vib)   ...       0.45 
freq.     126.37  E(vib)   ...       0.43 
freq.     137.69  E(vib)   ...       0.42 
freq.     208.07  E(vib)   ...       0.34 
freq.     225.14  E(vib)   ...       0.33 
freq.     227.07  E(vib)   ...       0.33 
freq.     239.31  E(vib)   ...       0.31 
freq.     242.36  E(vib)   ...       0.31 
freq.     291.32  E(vib)   ...       0.27 
freq.     309.51  E(vib)   ...       0.26 
freq.     331.43  E(vib)   ...       0.24 
freq.     429.98  E(vib)   ...       0.18 
freq.     444.16  E(vib)   ...       0.17 
freq.     445.90  E(vib)   ...       0.17 
freq.     483.78  E(vib)   ...       0.15 
freq.     537.46  E(vib)   ...       0.12 
freq.     540.37  E(vib)   ...       0.12 
freq.     592.19  E(vib)   ...       0.10 
freq.     692.86  E(vib)   ...       0.07 
freq.     721.11  E(vib)   ...       0.07 
freq.     731.45  E(vib)   ...       0.06 
freq.     742.64  E(vib)   ...       0.06 
freq.     776.50  E(vib)   ...       0.05 
freq.     778.27  E(vib)   ...       0.05 
freq.     793.68  E(vib)   ...       0.05 
freq.     857.82  E(vib)   ...       0.04 
freq.     904.31  E(vib)   ...       0.03 
freq.     907.81  E(vib)   ...       0.03 
freq.     911.42  E(vib)   ...       0.03 
freq.     942.35  E(vib)   ...       0.03 
freq.     950.21  E(vib)   ...       0.03 
freq.     958.34  E(vib)   ...       0.03 
freq.     999.92  E(vib)   ...       0.02 
freq.    1025.62  E(vib)   ...       0.02 
freq.    1027.11  E(vib)   ...       0.02 
freq.    1066.54  E(vib)   ...       0.02 
freq.    1069.21  E(vib)   ...       0.02 
freq.    1104.06  E(vib)   ...       0.02 
freq.    1116.87  E(vib)   ...       0.01 
freq.    1121.89  E(vib)   ...       0.01 
freq.    1127.54  E(vib)   ...       0.01 
freq.    1131.51  E(vib)   ...       0.01 
freq.    1170.18  E(vib)   ...       0.01 
freq.    1198.18  E(vib)   ...       0.01 
freq.    1217.19  E(vib)   ...       0.01 
freq.    1238.36  E(vib)   ...       0.01 
freq.    1239.71  E(vib)   ...       0.01 
freq.    1274.55  E(vib)   ...       0.01 
freq.    1278.99  E(vib)   ...       0.01 
freq.    1297.33  E(vib)   ...       0.01 
freq.    1311.60  E(vib)   ...       0.01 
freq.    1314.30  E(vib)   ...       0.01 
freq.    1330.98  E(vib)   ...       0.01 
freq.    1331.54  E(vib)   ...       0.01 
freq.    1338.94  E(vib)   ...       0.01 
freq.    1357.45  E(vib)   ...       0.01 
freq.    1372.24  E(vib)   ...       0.01 
freq.    1390.09  E(vib)   ...       0.00 
freq.    1400.57  E(vib)   ...       0.00 
freq.    1411.64  E(vib)   ...       0.00 
freq.    1411.77  E(vib)   ...       0.00 
freq.    1419.18  E(vib)   ...       0.00 
freq.    1460.32  E(vib)   ...       0.00 
freq.    1475.66  E(vib)   ...       0.00 
freq.    1490.10  E(vib)   ...       0.00 
freq.    1490.62  E(vib)   ...       0.00 
freq.    1492.98  E(vib)   ...       0.00 
freq.    1501.78  E(vib)   ...       0.00 
freq.    1502.53  E(vib)   ...       0.00 
freq.    1505.75  E(vib)   ...       0.00 
freq.    1505.91  E(vib)   ...       0.00 
freq.    1515.63  E(vib)   ...       0.00 
freq.    1515.90  E(vib)   ...       0.00 
freq.    1561.12  E(vib)   ...       0.00 
freq.    1624.24  E(vib)   ...       0.00 
freq.    1969.29  E(vib)   ...       0.00 
freq.    3002.24  E(vib)   ...       0.00 
freq.    3002.48  E(vib)   ...       0.00 
freq.    3006.18  E(vib)   ...       0.00 
freq.    3015.35  E(vib)   ...       0.00 
freq.    3015.43  E(vib)   ...       0.00 
freq.    3020.17  E(vib)   ...       0.00 
freq.    3022.37  E(vib)   ...       0.00 
freq.    3026.01  E(vib)   ...       0.00 
freq.    3028.60  E(vib)   ...       0.00 
freq.    3032.66  E(vib)   ...       0.00 
freq.    3037.69  E(vib)   ...       0.00 
freq.    3048.54  E(vib)   ...       0.00 
freq.    3062.97  E(vib)   ...       0.00 
freq.    3064.24  E(vib)   ...       0.00 
freq.    3088.78  E(vib)   ...       0.00 
freq.    3091.50  E(vib)   ...       0.00 
freq.    3094.86  E(vib)   ...       0.00 
freq.    3095.83  E(vib)   ...       0.00 
freq.    3157.37  E(vib)   ...       0.00 
freq.    3202.51  E(vib)   ...       0.00 
freq.    3212.94  E(vib)   ...       0.00 

------------
INNER ENERGY
------------

The inner energy is: U= E(el) + E(ZPE) + E(vib) + E(rot) + E(trans)
    E(el)   - is the total energy from the electronic structure calculation
              = E(kin-el) + E(nuc-el) + E(el-el) + E(nuc-nuc)
    E(ZPE)  - the the zero temperature vibrational energy from the frequency calculation
    E(vib)  - the the finite temperature correction to E(ZPE) due to population
              of excited vibrational states
    E(rot)  - is the rotational thermal energy
    E(trans)- is the translational thermal energy

Summary of contributions to the inner energy U:
Electronic energy                ...   -621.86692302 Eh
Zero point energy                ...      0.32158596 Eh     201.80 kcal/mol
Thermal vibrational correction   ...      0.01548844 Eh       9.72 kcal/mol
Thermal rotational correction    ...      0.00141627 Eh       0.89 kcal/mol
Thermal translational correction ...      0.00141627 Eh       0.89 kcal/mol
-----------------------------------------------------------------------
Total thermal energy                   -621.52701607 Eh


Summary of corrections to the electronic energy:
(perhaps to be used in another calculation)
Total thermal correction                  0.01832098 Eh      11.50 kcal/mol
Non-thermal (ZPE) correction              0.32158596 Eh     201.80 kcal/mol
-----------------------------------------------------------------------
Total correction                          0.33990695 Eh     213.29 kcal/mol


--------
ENTHALPY
--------

The enthalpy is H = U + kB*T
                kB is Boltzmann's constant
Total free energy                 ...   -621.52701607 Eh 
Thermal Enthalpy correction       ...      0.00094421 Eh       0.59 kcal/mol
-----------------------------------------------------------------------
Total Enthalpy                    ...   -621.52607186 Eh


Note: Only C1 symmetry has been detected, increase convergence thresholds 
      if your molecule has a higher symmetry. Symmetry factor of 1.0 is   
      used for the rotational entropy correction. 
 

Note: Rotational entropy computed according to Herzberg 
Infrared and Raman Spectra, Chapter V,1, Van Nostrand Reinhold, 1945 
Point Group:  C1, Symmetry Number:   1  
Rotational constants in cm-1:     0.041061     0.005947     0.005234 

Vibrational entropy computed according to the QRRHO of S. Grimme
Chem.Eur.J. 2012 18 9955


-------
ENTROPY
-------

The entropy contributions are T*S = T*(S(el)+S(vib)+S(rot)+S(trans))
     S(el)   - electronic entropy
     S(vib)  - vibrational entropy
     S(rot)  - rotational entropy
     S(trans)- translational entropy
The entropies will be listed as multiplied by the temperature to get
units of energy

Electronic entropy                ...      0.00065446 Eh      0.41 kcal/mol
Vibrational entropy               ...      0.02860122 Eh     17.95 kcal/mol
Rotational entropy                ...      0.01591713 Eh      9.99 kcal/mol
Translational entropy             ...      0.01994440 Eh     12.52 kcal/mol
-----------------------------------------------------------------------
Final entropy term                ...      0.06511721 Eh     40.86 kcal/mol

In case the symmetry of your molecule has not been determined correctly
or in case you have a reason to use a different symmetry number we print 
out the resulting rotational entropy values for sn=1,12 :
 --------------------------------------------------------
|  sn= 1 | S(rot)=       0.01591713 Eh      9.99 kcal/mol|
|  sn= 2 | S(rot)=       0.01526268 Eh      9.58 kcal/mol|
|  sn= 3 | S(rot)=       0.01487984 Eh      9.34 kcal/mol|
|  sn= 4 | S(rot)=       0.01460822 Eh      9.17 kcal/mol|
|  sn= 5 | S(rot)=       0.01439753 Eh      9.03 kcal/mol|
|  sn= 6 | S(rot)=       0.01422539 Eh      8.93 kcal/mol|
|  sn= 7 | S(rot)=       0.01407984 Eh      8.84 kcal/mol|
|  sn= 8 | S(rot)=       0.01395376 Eh      8.76 kcal/mol|
|  sn= 9 | S(rot)=       0.01384256 Eh      8.69 kcal/mol|
|  sn=10 | S(rot)=       0.01374308 Eh      8.62 kcal/mol|
|  sn=11 | S(rot)=       0.01365309 Eh      8.57 kcal/mol|
|  sn=12 | S(rot)=       0.01357093 Eh      8.52 kcal/mol|
 --------------------------------------------------------


-------------------
GIBBS FREE ENERGY
-------------------

The Gibbs free energy is G = H - T*S

Total enthalpy                    ...   -621.52607186 Eh 
Total entropy correction          ...     -0.06511721 Eh    -40.86 kcal/mol
-----------------------------------------------------------------------
Final Gibbs free energy         ...   -621.59118907 Eh

For completeness - the Gibbs free energy minus the electronic energy
G-E(el)                           ...      0.27573394 Eh    173.03 kcal/mol


Timings for individual modules:

Sum of individual times         ...     1107.867 sec (=  18.464 min)
GTO integral calculation        ...       16.629 sec (=   0.277 min)   1.5 %
SCF iterations                  ...      422.707 sec (=   7.045 min)  38.2 %
SCF Gradient evaluation         ...       78.743 sec (=   1.312 min)   7.1 %
Geometry relaxation             ...        1.550 sec (=   0.026 min)   0.1 %
Analytical frequency calculation...      588.239 sec (=   9.804 min)  53.1 %
                             ****ORCA TERMINATED NORMALLY****
TOTAL RUN TIME: 0 days 0 hours 18 minutes 55 seconds 410 msec
