
                                 *****************
                                 * O   R   C   A *
                                 *****************

           --- An Ab Initio, DFT and Semiempirical electronic structure package ---

                  #######################################################
                  #                        -***-                        #
                  #          Department of theory and spectroscopy      #
                  #               Directorship: Frank Neese             #
                  #        Max Planck Institute fuer Kohlenforschung    #
                  #                Kaiser Wilhelm Platz 1               #
                  #                 D-45470 Muelheim/Ruhr               #
                  #                      Germany                        #
                  #                                                     #
                  #                  All rights reserved                #
                  #                        -***-                        #
                  #######################################################


                         Program Version 4.2.1 -  RELEASE  -


 With contributions from (in alphabetic order):
   Daniel Aravena         : Magnetic Suceptibility
   Michael Atanasov       : Ab Initio Ligand Field Theory (pilot matlab implementation)
   Alexander A. Auer      : GIAO ZORA, VPT2
   Ute Becker             : Parallelization
   Giovanni Bistoni       : ED, misc. LED, open-shell LED, HFLD
   Martin Brehm           : Molecular dynamics
   Dmytro Bykov           : SCF Hessian
   Vijay G. Chilkuri      : MRCI spin determinant printing, contributions to CSF-ICE
   Dipayan Datta          : RHF DLPNO-CCSD density
   Achintya Kumar Dutta   : EOM-CC, STEOM-CC
   Dmitry Ganyushin       : Spin-Orbit,Spin-Spin,Magnetic field MRCI
   Miquel Garcia          : C-PCM Hessian, Gaussian charge scheme
   Yang Guo               : DLPNO-NEVPT2, CIM, IAO-localization
   Andreas Hansen         : Spin unrestricted coupled pair/coupled cluster methods
   Benjamin Helmich-Paris : CASSCF linear response (MC-RPA)
   Lee Huntington         : MR-EOM, pCC
   Robert Izsak           : Overlap fitted RIJCOSX, COSX-SCS-MP3, EOM
   Christian Kollmar      : KDIIS, OOCD, Brueckner-CCSD(T), CCSD density
   Simone Kossmann        : Meta GGA functionals, TD-DFT gradient, OOMP2, MP2 Hessian
   Martin Krupicka        : AUTO-CI
   Lucas Lang             : DCDCAS
   Dagmar Lenk            : GEPOL surface, SMD
   Dimitrios Liakos       : Extrapolation schemes; Compound Job, initial MDCI parallelization
   Dimitrios Manganas     : Further ROCIS development; embedding schemes
   Dimitrios Pantazis     : SARC Basis sets
   Taras Petrenko         : DFT Hessian,TD-DFT gradient, ASA, ECA, R-Raman, ABS, FL, XAS/XES, NRVS
   Peter Pinski           : DLPNO-MP2, DLPNO-MP2 Gradient
   Christoph Reimann      : Effective Core Potentials
   Marius Retegan         : Local ZFS, SOC
   Christoph Riplinger    : Optimizer, TS searches, QM/MM, DLPNO-CCSD(T), (RO)-DLPNO pert. Triples
   Tobias Risthaus        : Range-separated hybrids, TD-DFT gradient, RPA, STAB
   Michael Roemelt        : Original ROCIS implementation
   Masaaki Saitow         : Open-shell DLPNO-CCSD energy and density
   Barbara Sandhoefer     : DKH picture change effects
   Avijit Sen             : IP-ROCIS
   Kantharuban Sivalingam : CASSCF convergence, NEVPT2, FIC-MRCI
   Bernardo de Souza      : ESD, SOC TD-DFT
   Georgi Stoychev        : AutoAux, RI-MP2 NMR
   Willem Van den Heuvel  : Paramagnetic NMR
   Boris Wezisla          : Elementary symmetry handling
   Frank Wennmohs         : Technical directorship


 We gratefully acknowledge several colleagues who have allowed us to
 interface, adapt or use parts of their codes:
   Stefan Grimme, W. Hujo, H. Kruse,             : VdW corrections, initial TS optimization,
                  C. Bannwarth                     DFT functionals, gCP, sTDA/sTD-DF
   Ed Valeev, F. Pavosevic, A. Kumar             : LibInt (2-el integral package), F12 methods
   Garnet Chan, S. Sharma, J. Yang, R. Olivares  : DMRG
   Ulf Ekstrom                                   : XCFun DFT Library
   Mihaly Kallay                                 : mrcc  (arbitrary order and MRCC methods)
   Andreas Klamt, Michael Diedenhofen            : otool_cosmo (COSMO solvation model)
   Jiri Pittner, Ondrej Demel                    : Mk-CCSD
   Frank Weinhold                                : gennbo (NPA and NBO analysis)
   Christopher J. Cramer and Donald G. Truhlar   : smd solvation model
   Lars Goerigk                                  : TD-DFT with DH, B97 family of functionals
   V. Asgeirsson, H. Jonsson                     : NEB implementation
   FAccTs GmbH                                   : IRC, NEB, NEB-TS, Multilevel, MM, QM/MM, CI optimization
   S Lehtola, MJT Oliveira, MAL Marques          : LibXC Library


 Your calculation uses the libint2 library for the computation of 2-el integrals
 For citations please refer to: http://libint.valeyev.net

 Your ORCA version has been built with support for libXC version: 4.2.3
 For citations please refer to: https://tddft.org/programs/libxc/

 This ORCA versions uses:
   CBLAS   interface :  Fast vector & matrix operations
   LAPACKE interface :  Fast linear algebra routines
   SCALAPACK package :  Parallel linear algebra routines




***************************************
The coordinates will be read from file: larger.xyz
***************************************


----- Orbital basis set information -----
Your calculation utilizes the basis: cc-pVDZ 
       H, B-Ne : Obtained from the ccRepo (grant-hill.group.shef.ac.uk/ccrepo) Feb. 2017
                 T. H. Dunning, Jr., J. Chem. Phys. 90, 1007 (1989)
            He : Obtained from the ccRepo (grant-hill.group.shef.ac.uk/ccrepo) Feb. 2017
                 D. E. Woon, T. H. Dunning, Jr., J. Chem. Phys. 100, 2975 (1994)
  Li-Be, Na-Mg : Obtained from the ccRepo (grant-hill.group.shef.ac.uk/ccrepo) Feb. 2017
                 B. P. Prascher, D. E. Woon, K. A. Peterson, T. H. Dunning, Jr., A. K. Wilson, Theor. Chem. Acc. 128, 69 (2011)
         Al-Ar : Obtained from the ccRepo (grant-hill.group.shef.ac.uk/ccrepo) Feb. 2017
                 D. E. Woon, T. H. Dunning, Jr., J. Chem. Phys. 98, 1358 (1993)
            Ca : Obtained from the Peterson Research Group Website (tyr0.chem.wsu.edu/~kipeters) Feb. 2017
                 J. Koput, K. A. Peterson, J. Phys. Chem. 106, 9595 (2002)
         Sc-Zn : Obtained from the ccRepo (grant-hill.group.shef.ac.uk/ccrepo) Feb. 2017
                 N. B. Balabanov, K. A. Peterson, J. Chem. Phys. 123, 064107 (2005)
                 N. B. Balabanov, K. A. Peterson, J. Chem. Phys. 125, 074110 (2006)
         Ga-Kr : Obtained from the ccRepo (grant-hill.group.shef.ac.uk/ccrepo) Feb. 2017
                 A. K. Wilson, D. E. Woon, K. A. Peterson, T. H. Dunning, Jr., J. Chem. Phys. 110, 7667 (1999)

================================================================================
                                        WARNINGS
                       Please study these warnings very carefully!
================================================================================


WARNING: your system is open-shell and RHF/RKS was chosen
  ===> : WILL SWITCH to UHF/UKS


WARNING: Geometry Optimization
  ===> : Switching off AutoStart
         For restart on a previous wavefunction, please use MOREAD

INFO   : the flag for use of LIBINT has been found!

================================================================================
                                       INPUT FILE
================================================================================
NAME = opt.inp
|  1> ! B3LYP cc-pVDZ OPT
|  2> %pal nprocs 16 end
|  3> *XYZFile 0 2 larger.xyz
|  4> 
|  5>                          ****END OF INPUT****
================================================================================

                       *****************************
                       * Geometry Optimization Run *
                       *****************************

Geometry optimization settings:
Update method            Update   .... BFGS
Choice of coordinates    CoordSys .... Z-matrix Internals
Initial Hessian          InHess   .... Almoef's Model

Convergence Tolerances:
Energy Change            TolE     ....  5.0000e-06 Eh
Max. Gradient            TolMAXG  ....  3.0000e-04 Eh/bohr
RMS Gradient             TolRMSG  ....  1.0000e-04 Eh/bohr
Max. Displacement        TolMAXD  ....  4.0000e-03 bohr
RMS Displacement         TolRMSD  ....  2.0000e-03 bohr
Strict Convergence                ....  False
------------------------------------------------------------------------------
                        ORCA OPTIMIZATION COORDINATE SETUP
------------------------------------------------------------------------------

The optimization will be done in new redundant internal coordinates
Making redundant internal coordinates   ...  (new redundants) done
Evaluating the initial hessian          ...  (Almloef) done
Evaluating the coordinates              ...  done
Calculating the B-matrix                .... done
Calculating the G-matrix                .... done
Diagonalizing the G-matrix              .... done
Small eigenvalue found = 3.832e-04
Small eigenvalue found = 6.048e-04
Small eigenvalue found = 1.752e-03
Small eigenvalue found = 2.395e-03
Small eigenvalue found = 6.045e-03
Small eigenvalue found = 9.958e-03
Small eigenvalue found = 1.274e-02
Small eigenvalue found = 1.454e-02
Small eigenvalue found = 1.684e-02
Small eigenvalue found = 2.133e-02
Small eigenvalue found = 2.581e-02
Small eigenvalue found = 2.593e-02
Small eigenvalue found = 2.850e-02
The first mode is                       ....  138
The number of degrees of freedom        ....  183

    -----------------------------------------------------------------
                    Redundant Internal Coordinates


    -----------------------------------------------------------------
         Definition                    Initial Value    Approx d2E/dq
    -----------------------------------------------------------------
      1. B(C   1,C   0)                  1.2174         1.177939   
      2. B(C   3,C   1)                  1.4275         0.544460   
      3. B(C   4,C   3)                  1.4429         0.514393   
      4. B(C   5,C   4)                  1.4228         0.553832   
      5. B(C   6,C   5)                  1.3979         0.606932   
      6. B(C   6,C   2)                  1.4289         0.541579   
      7. B(C   7,C   6)                  1.4312         0.537055   
      8. B(C   8,C   7)                  1.3965         0.610044   
      9. B(C   8,C   3)                  1.4056         0.589989   
     10. B(H   9,C   5)                  1.0901         0.359950   
     11. B(H  10,C   8)                  1.0898         0.360326   
     12. B(C  11,C   4)                  1.4131         0.573882   
     13. B(H  12,C  11)                  1.0936         0.355393   
     14. B(C  13,C  11)                  1.4992         0.418328   
     15. B(H  14,C  13)                  1.1100         0.334649   
     16. B(H  15,C  13)                  1.1099         0.334664   
     17. B(C  16,C  13)                  1.5339         0.368300   
     18. B(H  17,C  16)                  1.1056         0.339990   
     19. B(H  18,C  16)                  1.1056         0.339985   
     20. B(C  19,C  16)                  1.5295         0.374270   
     21. B(H  20,C  19)                  1.1040         0.342091   
     22. B(H  21,C  19)                  1.1040         0.342093   
     23. B(C  22,C   7)                  1.5146         0.395272   
     24. B(H  23,C  22)                  1.1066         0.338779   
     25. B(H  24,C  22)                  1.1066         0.338779   
     26. B(C  25,C  22)                  1.5308         0.372491   
     27. B(H  26,C  25)                  1.1060         0.339529   
     28. B(H  27,C  25)                  1.1060         0.339527   
     29. B(C  28,C  25)                  1.5331         0.369388   
     30. B(H  29,C  28)                  1.1063         0.339130   
     31. B(H  30,C  28)                  1.1063         0.339131   
     32. B(C  31,C  28)                  1.5303         0.373188   
     33. B(H  32,C  31)                  1.1039         0.342111   
     34. B(H  33,C  31)                  1.1040         0.342110   
     35. B(C  34,C   2)                  1.2220         1.157990   
     36. B(H  35,C  19)                  1.1018         0.344831   
     37. B(H  36,C  31)                  1.1020         0.344612   
     38. B(C  37,C  34)                  1.4282         0.542894   
     39. B(C  38,C  37)                  1.4120         0.576355   
     40. B(C  39,C  38)                  1.3946         0.614434   
     41. B(C  40,C  39)                  1.3995         0.603357   
     42. B(C  41,C  40)                  1.3996         0.603191   
     43. B(C  42,C  41)                  1.3943         0.614946   
     44. B(C  42,C  37)                  1.4121         0.576010   
     45. B(H  44,C  41)                  1.0924         0.356880   
     46. B(H  45,C  38)                  1.0914         0.358281   
     47. B(H  46,C  42)                  1.0917         0.357852   
     48. B(H  47,C  39)                  1.0927         0.356557   
     49. B(C  48,C   0)                  1.4282         0.542894   
     50. B(C  49,C  48)                  1.4120         0.576355   
     51. B(C  50,C  49)                  1.3946         0.614434   
     52. B(C  51,C  50)                  1.3995         0.603357   
     53. B(C  52,C  51)                  1.3996         0.603191   
     54. B(C  53,C  52)                  1.3943         0.614946   
     55. B(C  53,C  48)                  1.4121         0.576010   
     56. B(H  55,C  52)                  1.0924         0.356880   
     57. B(H  56,C  49)                  1.0914         0.358281   
     58. B(H  57,C  53)                  1.0917         0.357852   
     59. B(H  58,C  50)                  1.0927         0.356557   
     60. B(C  59,C  51)                  1.4289         0.541579   
     61. B(C  60,C  59)                  1.2220         1.157990   
     62. B(C  60,H  54)                  1.0927         0.356499   
     63. B(C  61,C  40)                  1.4289         0.541579   
     64. B(C  62,C  61)                  1.2220         1.157990   
     65. B(C  62,H  43)                  1.0927         0.356499   
     66. L(C   1,C   0,C  48,C  53, 2) 179.8689         0.476200   
     67. L(C   1,C   0,C  48,C  53, 1) 179.9911         0.476200   
     68. L(C   0,C   1,C   3,C   8, 2) 179.8146         0.476452   
     69. L(C   0,C   1,C   3,C   8, 1) 178.9806         0.476452   
     70. L(C   6,C   2,C  34,C   5, 2) 179.8842         0.474494   
     71. L(C   6,C   2,C  34,C   5, 1) 179.7252         0.474494   
     72. A(C   4,C   3,C   8)          120.0560         0.416092   
     73. A(C   1,C   3,C   4)          121.1029         0.410200   
     74. A(C   1,C   3,C   8)          118.8411         0.420325   
     75. A(C   5,C   4,C  11)          121.8223         0.419530   
     76. A(C   3,C   4,C   5)          116.4756         0.411443   
     77. A(C   3,C   4,C  11)          121.7021         0.414049   
     78. A(C   6,C   5,H   9)          118.1022         0.351615   
     79. A(C   4,C   5,C   6)          122.7236         0.423745   
     80. A(C   4,C   5,H   9)          119.1742         0.346229   
     81. A(C   5,C   6,C   7)          120.2569         0.421423   
     82. A(C   2,C   6,C   7)          120.4624         0.412961   
     83. A(C   2,C   6,C   5)          119.2808         0.422055   
     84. A(C   6,C   7,C   8)          117.5581         0.421808   
     85. A(C   6,C   7,C  22)          119.6100         0.390673   
     86. A(C   8,C   7,C  22)          122.8319         0.399501   
     87. A(C   3,C   8,H  10)          117.4261         0.349999   
     88. A(C   3,C   8,C   7)          122.9299         0.428965   
     89. A(C   7,C   8,H  10)          119.6440         0.351981   
     90. A(C   4,C  11,C  13)          124.8918         0.399191   
     91. A(H  12,C  11,C  13)          117.8951         0.329705   
     92. A(C   4,C  11,H  12)          117.2131         0.347561   
     93. A(C  11,C  13,H  15)          110.0045         0.326453   
     94. A(H  14,C  13,H  15)          104.6160         0.284254   
     95. A(H  15,C  13,C  16)          109.1739         0.319706   
     96. A(H  14,C  13,C  16)          109.1731         0.319703   
     97. A(C  11,C  13,H  14)          110.0030         0.326451   
     98. A(C  11,C  13,C  16)          113.4887         0.369564   
     99. A(H  17,C  16,H  18)          106.0306         0.285656   
    100. A(C  13,C  16,H  18)          108.9784         0.320531   
    101. A(C  13,C  16,H  17)          108.9771         0.320532   
    102. A(C  13,C  16,C  19)          113.1336         0.362585   
    103. A(H  18,C  16,C  19)          109.7349         0.321375   
    104. A(H  17,C  16,C  19)          109.7351         0.321376   
    105. A(H  20,C  19,H  35)          107.6207         0.286562   
    106. A(C  16,C  19,H  35)          111.4286         0.322121   
    107. A(H  20,C  19,H  21)          107.3407         0.286206   
    108. A(C  16,C  19,H  21)          111.3121         0.321700   
    109. A(C  16,C  19,H  20)          111.3123         0.321700   
    110. A(H  21,C  19,H  35)          107.6214         0.286563   
    111. A(H  24,C  22,C  25)          109.1974         0.320938   
    112. A(H  23,C  22,C  25)          109.1957         0.320938   
    113. A(C   7,C  22,C  25)          116.9193         0.366697   
    114. A(H  23,C  22,H  24)          104.4124         0.285339   
    115. A(C   7,C  22,H  24)          108.1946         0.324075   
    116. A(C   7,C  22,H  23)          108.1942         0.324075   
    117. A(H  27,C  25,C  28)          109.0337         0.320615   
    118. A(H  26,C  25,C  28)          109.0331         0.320615   
    119. A(C  22,C  25,C  28)          112.6395         0.362473   
    120. A(H  26,C  25,H  27)          106.2234         0.285536   
    121. A(C  22,C  25,H  27)          109.8506         0.321054   
    122. A(C  22,C  25,H  26)          109.8513         0.321054   
    123. A(H  30,C  28,C  31)          109.5505         0.321090   
    124. A(H  29,C  28,C  31)          109.5509         0.321090   
    125. A(C  25,C  28,C  31)          113.1564         0.362588   
    126. A(H  29,C  28,H  30)          105.8903         0.285431   
    127. A(C  25,C  28,H  30)          109.2167         0.320553   
    128. A(C  25,C  28,H  29)          109.2175         0.320553   
    129. A(H  32,C  31,H  33)          107.3517         0.286211   
    130. A(C  28,C  31,H  33)          111.2995         0.321550   
    131. A(C  28,C  31,H  32)          111.2994         0.321551   
    132. A(H  33,C  31,H  36)          107.5886         0.286536   
    133. A(H  32,C  31,H  36)          107.5890         0.286537   
    134. A(C  28,C  31,H  36)          111.5042         0.321934   
    135. L(C   2,C  34,C  37,C  42, 2) 179.8689         0.474706   
    136. L(C   2,C  34,C  37,C  42, 1) 179.9911         0.474706   
    137. A(C  38,C  37,C  42)          118.7739         0.422805   
    138. A(C  34,C  37,C  42)          120.5972         0.418317   
    139. A(C  34,C  37,C  38)          120.6290         0.418361   
    140. A(C  39,C  38,H  45)          120.5078         0.352069   
    141. A(C  37,C  38,H  45)          119.0941         0.348287   
    142. A(C  37,C  38,C  39)          120.3981         0.427720   
    143. A(C  40,C  39,H  47)          120.0180         0.350702   
    144. A(C  38,C  39,H  47)          119.6244         0.351782   
    145. A(C  38,C  39,C  40)          120.3576         0.431248   
    146. A(C  41,C  40,C  61)          120.1412         0.421589   
    147. A(C  39,C  40,C  61)          120.1491         0.421609   
    148. A(C  39,C  40,C  41)          119.7097         0.429821   
    149. A(C  42,C  41,H  44)          119.5888         0.351886   
    150. A(C  40,C  41,H  44)          120.0690         0.350740   
    151. A(C  40,C  41,C  42)          120.3422         0.431291   
    152. A(C  41,C  42,H  46)          120.4651         0.352047   
    153. A(C  37,C  42,H  46)          119.1165         0.348182   
    154. A(C  37,C  42,C  41)          120.4185         0.427738   
    155. A(C  49,C  48,C  53)          118.7739         0.422805   
    156. A(C   0,C  48,C  53)          120.5972         0.418317   
    157. A(C   0,C  48,C  49)          120.6290         0.418361   
    158. A(C  50,C  49,H  56)          120.5078         0.352069   
    159. A(C  48,C  49,H  56)          119.0941         0.348287   
    160. A(C  48,C  49,C  50)          120.3981         0.427720   
    161. A(C  51,C  50,H  58)          120.0180         0.350702   
    162. A(C  49,C  50,H  58)          119.6244         0.351782   
    163. A(C  49,C  50,C  51)          120.3576         0.431248   
    164. A(C  52,C  51,C  59)          122.1325         0.421589   
    165. A(C  50,C  51,C  59)          118.1577         0.421609   
    166. A(C  50,C  51,C  52)          119.7097         0.429821   
    167. A(C  53,C  52,H  55)          119.5888         0.351886   
    168. A(C  51,C  52,H  55)          120.0690         0.350740   
    169. A(C  51,C  52,C  53)          120.3422         0.431291   
    170. A(C  52,C  53,H  57)          120.4651         0.352047   
    171. A(C  48,C  53,H  57)          119.1165         0.348182   
    172. A(C  48,C  53,C  52)          120.4185         0.427738   
    173. L(C  51,C  59,C  60,C  50, 2) 180.0000         0.474494   
    174. L(C  51,C  59,C  60,C  50, 1) 180.0000         0.474494   
    175. L(H  54,C  60,C  59, 2)       180.0392         0.392301   
    176. L(H  54,C  60,C  59, 1)       181.9856         0.392301   
    177. L(C  40,C  61,C  62,C  41, 2) 180.0000         0.474494   
    178. L(C  40,C  61,C  62,C  41, 1) 180.0000         0.474494   
    179. L(H  43,C  62,C  61, 2)       179.9984         0.392301   
    180. L(H  43,C  62,C  61, 1)       180.0058         0.392301   
    181. D(C  11,C   4,C   3,C   8)   -179.9898         0.018038   
    182. D(C   5,C   4,C   3,C   1)   -179.9865         0.018038   
    183. D(C   5,C   4,C   3,C   8)      0.0104         0.018038   
    184. D(C  11,C   4,C   3,C   1)      0.0133         0.018038   
    185. D(C   6,C   5,C   4,C   3)     -0.0066         0.020993   
    186. D(H   9,C   5,C   4,C   3)    179.9968         0.020993   
    187. D(C   6,C   5,C   4,C  11)    179.9936         0.020993   
    188. D(H   9,C   5,C   4,C  11)     -0.0029         0.020993   
    189. D(C   7,C   6,C   5,C   4)      0.0030         0.025426   
    190. D(C   7,C   6,C   5,H   9)    179.9996         0.025426   
    191. D(C   2,C   6,C   5,C   4)   -179.9957         0.025426   
    192. D(C   2,C   6,C   5,H   9)      0.0008         0.025426   
    193. D(C  22,C   7,C   6,C   2)     -0.0023         0.019702   
    194. D(C   8,C   7,C   6,C   2)    179.9958         0.019702   
    195. D(C  22,C   7,C   6,C   5)    179.9990         0.019702   
    196. D(C   8,C   7,C   6,C   5)     -0.0029         0.019702   
    197. D(H  10,C   8,C   7,C   6)   -179.9976         0.025703   
    198. D(H  10,C   8,C   7,C  22)      0.0004         0.025703   
    199. D(C   3,C   8,C   7,C  22)   -179.9948         0.025703   
    200. D(H  10,C   8,C   3,C   4)    179.9935         0.023954   
    201. D(C   7,C   8,C   3,C   4)     -0.0112         0.023954   
    202. D(C   7,C   8,C   3,C   1)    179.9858         0.023954   
    203. D(C   3,C   8,C   7,C   6)      0.0071         0.025703   
    204. D(H  10,C   8,C   3,C   1)     -0.0096         0.023954   
    205. D(C  13,C  11,C   4,C   5)      0.0016         0.022605   
    206. D(H  12,C  11,C   4,C   5)   -179.9885         0.022605   
    207. D(C  13,C  11,C   4,C   3)   -179.9981         0.022605   
    208. D(H  12,C  11,C   4,C   3)      0.0117         0.022605   
    209. D(H  15,C  13,C  11,C   4)     57.3100         0.012943   
    210. D(H  14,C  13,C  11,C   4)    -57.4179         0.012943   
    211. D(H  14,C  13,C  11,H  12)    122.5721         0.012943   
    212. D(C  16,C  13,C  11,C   4)    179.9471         0.012943   
    213. D(H  15,C  13,C  11,H  12)   -122.7000         0.012943   
    214. D(C  16,C  13,C  11,H  12)     -0.0629         0.012943   
    215. D(C  19,C  16,C  13,C  11)    179.9965         0.010850   
    216. D(C  19,C  16,C  13,H  14)     56.9044         0.010850   
    217. D(H  18,C  16,C  13,H  15)   -179.2684         0.010850   
    218. D(H  18,C  16,C  13,H  14)    -65.4551         0.010850   
    219. D(H  18,C  16,C  13,C  11)     57.6370         0.010850   
    220. D(H  17,C  16,C  13,H  15)     65.4498         0.010850   
    221. D(H  17,C  16,C  13,H  14)    179.2631         0.010850   
    222. D(C  19,C  16,C  13,H  15)    -56.9089         0.010850   
    223. D(H  17,C  16,C  13,C  11)    -57.6448         0.010850   
    224. D(H  35,C  19,C  16,H  18)    -58.0619         0.011183   
    225. D(H  35,C  19,C  16,H  17)     58.0665         0.011183   
    226. D(H  35,C  19,C  16,C  13)   -179.9985         0.011183   
    227. D(H  21,C  19,C  16,H  18)     62.0832         0.011183   
    228. D(H  21,C  19,C  16,H  17)    178.2116         0.011183   
    229. D(H  21,C  19,C  16,C  13)    -59.8534         0.011183   
    230. D(H  20,C  19,C  16,H  18)   -178.2063         0.011183   
    231. D(H  20,C  19,C  16,H  17)    -62.0778         0.011183   
    232. D(H  20,C  19,C  16,C  13)     59.8572         0.011183   
    233. D(C  25,C  22,C   7,C   8)     -0.0037         0.011608   
    234. D(C  25,C  22,C   7,C   6)    179.9942         0.011608   
    235. D(H  24,C  22,C   7,C   8)   -123.7200         0.011608   
    236. D(H  24,C  22,C   7,C   6)     56.2779         0.011608   
    237. D(H  23,C  22,C   7,C   8)    123.7098         0.011608   
    238. D(H  23,C  22,C   7,C   6)    -56.2923         0.011608   
    239. D(H  27,C  25,C  22,H  23)    -64.9467         0.011083   
    240. D(H  27,C  25,C  22,C   7)     58.2540         0.011083   
    241. D(H  26,C  25,C  22,H  24)     64.9605         0.011083   
    242. D(H  26,C  25,C  22,H  23)    178.5571         0.011083   
    243. D(H  26,C  25,C  22,C   7)    -58.2422         0.011083   
    244. D(C  28,C  25,C  22,H  24)    -56.7913         0.011083   
    245. D(C  28,C  25,C  22,H  23)     56.8053         0.011083   
    246. D(C  28,C  25,C  22,C   7)   -179.9940         0.011083   
    247. D(H  27,C  25,C  22,H  24)   -178.5433         0.011083   
    248. D(C  31,C  28,C  25,H  27)    -57.7723         0.010910   
    249. D(C  31,C  28,C  25,C  22)   -179.9860         0.010910   
    250. D(H  30,C  28,C  25,H  27)    179.9165         0.010910   
    251. D(H  30,C  28,C  25,H  26)    -64.5115         0.010910   
    252. D(H  30,C  28,C  25,C  22)     57.7028         0.010910   
    253. D(H  29,C  28,C  25,H  27)     64.5400         0.010910   
    254. D(C  31,C  28,C  25,H  26)     57.7997         0.010910   
    255. D(H  29,C  28,C  25,H  26)   -179.8880         0.010910   
    256. D(H  29,C  28,C  25,C  22)    -57.6738         0.010910   
    257. D(H  36,C  31,C  28,H  30)    -57.8697         0.011122   
    258. D(H  36,C  31,C  28,H  29)     57.8793         0.011122   
    259. D(H  36,C  31,C  28,C  25)   -179.9945         0.011122   
    260. D(H  33,C  31,C  28,H  30)     62.2765         0.011122   
    261. D(H  33,C  31,C  28,H  29)    178.0255         0.011122   
    262. D(H  33,C  31,C  28,C  25)    -59.8484         0.011122   
    263. D(H  32,C  31,C  28,H  30)   -178.0162         0.011122   
    264. D(H  32,C  31,C  28,H  29)    -62.2672         0.011122   
    265. D(H  32,C  31,C  28,C  25)     59.8589         0.011122   
    266. D(C  42,C  37,C   6,C   7)      0.0469         0.001500   
    267. D(C  42,C  37,C   6,C   5)   -179.9719         0.001500   
    268. D(C  38,C  37,C   6,C   7)   -179.9764         0.001500   
    269. D(C  38,C  37,C   6,C   5)      0.0048         0.001500   
    270. D(H  45,C  38,C  37,C  42)   -179.9959         0.022809   
    271. D(H  45,C  38,C  37,C  34)      0.0019         0.022809   
    272. D(C  39,C  38,C  37,C  42)      0.0062         0.022809   
    273. D(C  39,C  38,C  37,C  34)   -179.9960         0.022809   
    274. D(H  47,C  39,C  38,H  45)     -0.0004         0.026096   
    275. D(H  47,C  39,C  38,C  37)    179.9975         0.026096   
    276. D(C  40,C  39,C  38,H  45)    179.9992         0.026096   
    277. D(C  40,C  39,C  38,C  37)     -0.0029         0.026096   
    278. D(C  61,C  40,C  39,H  47)      0.0011         0.025111   
    279. D(C  61,C  40,C  39,C  38)   -179.9985         0.025111   
    280. D(C  41,C  40,C  39,H  47)    179.9987         0.025111   
    281. D(C  41,C  40,C  39,C  38)     -0.0009         0.025111   
    282. D(H  44,C  41,C  40,C  61)     -0.0018         0.025097   
    283. D(H  44,C  41,C  40,C  39)   -179.9995         0.025097   
    284. D(C  42,C  41,C  40,C  61)    179.9990         0.025097   
    285. D(C  42,C  41,C  40,C  39)      0.0013         0.025097   
    286. D(H  46,C  42,C  41,H  44)      0.0005         0.026142   
    287. D(H  46,C  42,C  41,C  40)    179.9997         0.026142   
    288. D(C  37,C  42,C  41,H  44)   -179.9972         0.026142   
    289. D(C  37,C  42,C  41,C  40)      0.0020         0.026142   
    290. D(H  46,C  42,C  37,C  38)    179.9965         0.022781   
    291. D(H  46,C  42,C  37,C  34)     -0.0013         0.022781   
    292. D(C  41,C  42,C  37,C  38)     -0.0057         0.022781   
    293. D(C  41,C  42,C  37,C  34)    179.9965         0.022781   
    294. D(C  53,C  48,C   3,C   8)     -0.0041         0.001500   
    295. D(C  53,C  48,C   3,C   4)    179.9467         0.001500   
    296. D(C  49,C  48,C   3,C   8)    179.9882         0.001500   
    297. D(C  49,C  48,C   3,C   4)     -0.0610         0.001500   
    298. D(H  56,C  49,C  48,C  53)   -179.9959         0.022809   
    299. D(H  56,C  49,C  48,C   0)      0.0019         0.022809   
    300. D(C  50,C  49,C  48,C  53)      0.0062         0.022809   
    301. D(C  50,C  49,C  48,C   0)   -179.9960         0.022809   
    302. D(H  58,C  50,C  49,H  56)     -0.0004         0.026096   
    303. D(H  58,C  50,C  49,C  48)    179.9975         0.026096   
    304. D(C  51,C  50,C  49,H  56)    179.9992         0.026096   
    305. D(C  51,C  50,C  49,C  48)     -0.0029         0.026096   
    306. D(C  52,C  51,C  50,H  58)    179.9987         0.025111   
    307. D(C  52,C  51,C  50,C  49)     -0.0009         0.025111   
    308. D(C  59,C  51,C  50,H  58)     -0.0504         0.025111   
    309. D(C  59,C  51,C  50,C  49)    179.9500         0.025111   
    310. D(H  55,C  52,C  51,C  59)      0.0517         0.025097   
    311. D(H  55,C  52,C  51,C  50)   -179.9995         0.025097   
    312. D(C  53,C  52,C  51,C  59)   -179.9475         0.025097   
    313. D(C  53,C  52,C  51,C  50)      0.0013         0.025097   
    314. D(H  57,C  53,C  52,H  55)      0.0005         0.026142   
    315. D(H  57,C  53,C  52,C  51)    179.9997         0.026142   
    316. D(C  48,C  53,C  52,H  55)   -179.9972         0.026142   
    317. D(C  48,C  53,C  52,C  51)      0.0020         0.026142   
    318. D(H  57,C  53,C  48,C  49)    179.9965         0.022781   
    319. D(H  57,C  53,C  48,C   0)     -0.0013         0.022781   
    320. D(C  52,C  53,C  48,C  49)     -0.0057         0.022781   
    321. D(C  52,C  53,C  48,C   0)    179.9965         0.022781   
    -----------------------------------------------------------------

Number of atoms                         .... 63
Number of degrees of freedom            .... 321

         *************************************************************
         *                GEOMETRY OPTIMIZATION CYCLE   1            *
         *************************************************************
---------------------------------
CARTESIAN COORDINATES (ANGSTROEM)
---------------------------------
  C     12.362850   -0.005862   -0.004911
  C     11.146172   -0.047508   -0.002624
  C      5.466628    0.001226   -0.001475
  C      9.718900   -0.070949   -0.002273
  C      8.993906   -1.318512   -0.005644
  C      7.574031   -1.227032   -0.005265
  C      6.895524   -0.004849   -0.001703
  C      7.626337    1.225684    0.001704
  C      9.020735    1.148999    0.001371
  H      6.982539   -2.142716   -0.007787
  H      9.610974    2.065153    0.003943
  C      9.660292   -2.564658   -0.009141
  H     10.753732   -2.547047   -0.008995
  C      8.980314   -3.900778   -0.012800
  H      8.307597   -3.986848    0.865858
  H      8.306008   -3.981255   -0.890754
  C      9.956779   -5.083679   -0.017441
  H     10.616397   -5.001932   -0.900994
  H     10.618071   -5.007511    0.865365
  C      9.254626   -6.442473   -0.021066
  H      8.610781   -6.559039   -0.910231
  H      8.612394   -6.564614    0.868516
  C      6.876267    2.541545    0.005519
  H      6.198201    2.555290   -0.868913
  H      6.198206    2.550230    0.880020
  C      7.718864    3.819566    0.009186
  H      8.382743    3.829196    0.893739
  H      8.382543    3.834389   -0.875448
  C      6.862386    5.091073    0.013024
  H      6.195520    5.083606   -0.869702
  H      6.196095    5.078646    0.896127
  C      7.693142    6.376217    0.016369
  H      8.344289    6.435101   -0.873151
  H      8.344988    6.430022    0.905700
  C      4.244587    0.000557   -0.000053
  H      9.981002   -7.270916   -0.024328
  H      7.051411    7.272043    0.019183
  C      2.816338    0.000000    0.000000
  C      2.097447   -1.215254   -0.002864
  C      0.702904   -1.210178   -0.002883
  C      0.000000    0.000000    0.000000
  C      0.702775    1.210340    0.002933
  C      2.097092    1.215232    0.002966
  H     -3.743687   -0.000111   -0.000030
  H      0.160027    2.158419    0.005201
  H      2.648065   -2.157550   -0.005095
  H      2.647295    2.158148    0.005247
  H      0.159321   -2.158064   -0.005159
  C     13.790255    0.043213   -0.005983
  C     14.550940   -1.146325   -0.009366
  C     15.944465   -1.092792   -0.010316
  C     16.604892    0.141082   -0.007988
  C     15.860484    1.326269   -0.004708
  C     14.466839    1.282706   -0.003726
  H     20.347923    0.178944   -0.008736
  H     16.369959    2.292637   -0.002888
  H     14.033398   -2.107186   -0.011190
  H     13.884203    2.205933   -0.001165
  H     16.520657   -2.021215   -0.012901
  C     18.033801    0.141082   -0.007988
  C     19.255843    0.141082   -0.007988
  C     -1.428909    0.000000    0.000000
  C     -2.650951    0.000000    0.000000

----------------------------
CARTESIAN COORDINATES (A.U.)
----------------------------
  NO LB      ZA    FRAG     MASS         X           Y           Z
   0 C     6.0000    0    12.011   23.362400   -0.011078   -0.009281
   1 C     6.0000    0    12.011   21.063213   -0.089778   -0.004959
   2 C     6.0000    0    12.011   10.330430    0.002316   -0.002788
   3 C     6.0000    0    12.011   18.366060   -0.134075   -0.004295
   4 C     6.0000    0    12.011   16.996019   -2.491627   -0.010666
   5 C     6.0000    0    12.011   14.312845   -2.318754   -0.009950
   6 C     6.0000    0    12.011   13.030653   -0.009163   -0.003217
   7 C     6.0000    0    12.011   14.411689    2.316208    0.003220
   8 C     6.0000    0    12.011   17.046718    2.171293    0.002590
   9 H     1.0000    0     1.008   13.195086   -4.049146   -0.014715
  10 H     1.0000    0     1.008   18.162109    3.902573    0.007450
  11 C     6.0000    0    12.011   18.255306   -4.846501   -0.017274
  12 H     1.0000    0     1.008   20.321609   -4.813220   -0.016997
  13 C     6.0000    0    12.011   16.970335   -7.371403   -0.024189
  14 H     1.0000    0     1.008   15.699084   -7.534051    1.636234
  15 H     1.0000    0     1.008   15.696081   -7.523481   -1.683281
  16 C     6.0000    0    12.011   18.815586   -9.606762   -0.032958
  17 H     1.0000    0     1.008   20.062082   -9.452282   -1.702633
  18 H     1.0000    0     1.008   20.065247   -9.462824    1.635302
  19 C     6.0000    0    12.011   17.488710  -12.174509   -0.039808
  20 H     1.0000    0     1.008   16.272018  -12.394788   -1.720087
  21 H     1.0000    0     1.008   16.275066  -12.405323    1.641258
  22 C     6.0000    0    12.011   12.994262    4.802825    0.010430
  23 H     1.0000    0     1.008   11.712902    4.828798   -1.642007
  24 H     1.0000    0     1.008   11.712912    4.819237    1.662997
  25 C     6.0000    0    12.011   14.586539    7.217934    0.017358
  26 H     1.0000    0     1.008   15.841089    7.236132    1.688922
  27 H     1.0000    0     1.008   15.840711    7.245945   -1.654358
  28 C     6.0000    0    12.011   12.968031    9.620733    0.024611
  29 H     1.0000    0     1.008   11.707836    9.606624   -1.643499
  30 H     1.0000    0     1.008   11.708924    9.597250    1.693435
  31 C     6.0000    0    12.011   14.537932   12.049304    0.030933
  32 H     1.0000    0     1.008   15.768420   12.160579   -1.650017
  33 H     1.0000    0     1.008   15.769741   12.150981    1.711525
  34 C     6.0000    0    12.011    8.021107    0.001053   -0.000100
  35 H     1.0000    0     1.008   18.861360  -13.740039   -0.045974
  36 H     1.0000    0     1.008   13.325236   13.742169    0.036250
  37 C     6.0000    0    12.011    5.322108    0.000000    0.000000
  38 C     6.0000    0    12.011    3.963601   -2.296496   -0.005413
  39 C     6.0000    0    12.011    1.328296   -2.286906   -0.005449
  40 C     6.0000    0    12.011    0.000000    0.000000    0.000000
  41 C     6.0000    0    12.011    1.328052    2.287210    0.005543
  42 C     6.0000    0    12.011    3.962929    2.296456    0.005605
  43 H     1.0000    0     1.008   -7.074544   -0.000209   -0.000057
  44 H     1.0000    0     1.008    0.302407    4.078821    0.009829
  45 H     1.0000    0     1.008    5.004118   -4.077178   -0.009629
  46 H     1.0000    0     1.008    5.002662    4.078309    0.009916
  47 H     1.0000    0     1.008    0.301073   -4.078149   -0.009749
  48 C     6.0000    0    12.011   26.059805    0.081661   -0.011306
  49 C     6.0000    0    12.011   27.497292   -2.166240   -0.017699
  50 C     6.0000    0    12.011   30.130671   -2.065077   -0.019494
  51 C     6.0000    0    12.011   31.378698    0.266606   -0.015095
  52 C     6.0000    0    12.011   29.971971    2.506285   -0.008897
  53 C     6.0000    0    12.011   27.338364    2.423962   -0.007041
  54 H     1.0000    0     1.008   38.452001    0.338155   -0.016508
  55 H     1.0000    0     1.008   30.934740    4.332456   -0.005457
  56 H     1.0000    0     1.008   26.519280   -3.982004   -0.021147
  57 H     1.0000    0     1.008   26.237342    4.168609   -0.002201
  58 H     1.0000    0     1.008   31.219517   -3.819543   -0.024379
  59 C     6.0000    0    12.011   34.078945    0.266606   -0.015095
  60 C     6.0000    0    12.011   36.388269    0.266606   -0.015095
  61 C     6.0000    0    12.011   -2.700247    0.000000    0.000000
  62 C     6.0000    0    12.011   -5.009572    0.000000    0.000000

--------------------------------
INTERNAL COORDINATES (ANGSTROEM)
--------------------------------
 C      0   0   0     0.000000000000     0.00000000     0.00000000
 C      1   0   0     1.217392471408     0.00000000     0.00000000
 C      2   1   0     5.679752966947   177.54607744     0.00000000
 C      2   1   3     1.427464503671   178.97621836     2.99964198
 C      4   2   1     1.442928080057   121.10286576   174.59303260
 C      5   4   2     1.422818815891   116.47555843   180.01351855
 C      6   5   4     1.397896702242   122.72360137     0.00000000
 C      7   6   5     1.431192198074   120.25686947     0.00000000
 C      8   7   6     1.396504369255   117.55808575     0.00000000
 H      6   5   4     1.090113558149   119.17417603   179.99683374
 H      9   8   7     1.089829170148   119.64399640   180.00238616
 C      5   4   2     1.413138536152   121.70211224     0.00000000
 H     12   5   4     1.093581923836   117.21314821     0.00000000
 C     12   5   4     1.499200213518   124.89176175   180.00185951
 H     14  12   5     1.109953048704   110.00297285   302.58205233
 H     14  12   5     1.109940546795   110.00449928    57.30995147
 C     14  12   5     1.533871091948   113.48874393   179.94709890
 H     17  14  12     1.105642330482   108.97709735   302.35515848
 H     17  14  12     1.105646455081   108.97838839    57.63698773
 C     17  14  12     1.529493702891   113.13361851   179.99645650
 H     20  17  14     1.103965451431   111.31232711    59.85716309
 H     20  17  14     1.103964314036   111.31214976   300.14659030
 C      8   7   6     1.514632026932   119.61003550   179.99900727
 H     23   8   7     1.106614024293   108.19417333   303.70774144
 H     23   8   7     1.106613647537   108.19460152    56.27794341
 C     23   8   7     1.530790480411   116.91930310   179.99422235
 H     26  23   8     1.106012205343   109.85126368   301.75776388
 H     26  23   8     1.106014029812   109.85058052    58.25398925
 C     26  23   8     1.533068071095   112.63950770   180.00598015
 H     29  26  23     1.106332308664   109.21751808   302.32623306
 H     29  26  23     1.106331722163   109.21671270    57.70277646
 C     29  26  23     1.530281897144   113.15643708   180.01397672
 H     32  29  26     1.103949499454   111.29937659    59.85893761
 H     32  29  26     1.103950467082   111.29950513   300.15162663
 C      3   2   1     1.222042070929   179.47413845   183.77202161
 H     20  17  14     1.101793812517   111.42857491   180.00149995
 H     32  29  26     1.101966718062   111.50416384   180.00547977
 C     35   3   7     1.428248899709   179.93479586   250.24636653
 C     38  35   3     1.411968105069   120.62899514    97.78558278
 C     39  38  35     1.394552495546   120.39812502   180.00399049
 C     40  39  38     1.399504885388   120.35761814     0.00000000
 C     41  40  39     1.399579439176   119.70970063     0.00000000
 C     42  41  40     1.394325693557   120.34224054     0.00000000
 H     41  40  39     3.743687181760   120.14740386   180.00094295
 H     42  41  40     1.092444698529   120.06899509   180.00053625
 H     39  38  35     1.091378459077   119.09412124     0.00000000
 H     43  42  41     1.091704796310   120.46505941   179.99973786
 H     40  39  38     1.092691214982   119.62435654   179.99746321
 C      1   2   4     1.428248901188   179.93479629    87.59005789
 C     49   1   2     1.411968100782   120.62899559    97.78503874
 C     50  49   1     1.394552491853   120.39812550   180.00399076
 C     51  50  49     1.399504885996   120.35761768     0.00000000
 C     52  51  50     1.399579432925   119.70970070     0.00000000
 C     53  52  51     1.394325698480   120.34224071     0.00000000
 H     52  51  50     3.743222364632   118.73726499   179.96427239
 H     53  52  51     1.092444700787   120.06899540   180.00053619
 H     50  49   1     1.091378463785   119.09412084     0.00000000
 H     54  53  52     1.091704793972   120.46505932   179.99973789
 H     51  50  49     1.092691216144   119.62435725   179.99746329
 C     52  51  50     1.428909000000   118.15774016   179.94996570
 C     55  52  51     1.092736124600     1.40636143   358.75311600
 C     41  40  39     1.428909000000   120.14910010   180.00147278
 C     44  41  40     1.092736116031     0.00426250   164.88515563

---------------------------
INTERNAL COORDINATES (A.U.)
---------------------------
 C      0   0   0     0.000000000000     0.00000000     0.00000000
 C      1   0   0     2.300538368459     0.00000000     0.00000000
 C      2   1   0    10.733177615857   177.54607744     0.00000000
 C      2   1   3     2.697516977832   178.97621836     2.99964198
 C      4   2   1     2.726738902253   121.10286576   174.59303260
 C      5   4   2     2.688737900224   116.47555843   180.01351855
 C      6   5   4     2.641641930749   122.72360137     0.00000000
 C      7   6   5     2.704561299365   120.25686947     0.00000000
 C      8   7   6     2.639010802716   117.55808575     0.00000000
 H      6   5   4     2.060016079777   119.17417603   179.99683374
 H      9   8   7     2.059478664339   119.64399640   180.00238616
 C      5   4   2     2.670444822617   121.70211224     0.00000000
 H     12   5   4     2.066570341058   117.21314821     0.00000000
 C     12   5   4     2.833077823465   124.89176175   180.00185951
 H     14  12   5     2.097507283561   110.00297285   302.58205233
 H     14  12   5     2.097483658377   110.00449928    57.30995147
 C     14  12   5     2.898596288521   113.48874393   179.94709890
 H     17  14  12     2.089361206682   108.97709735   302.35515848
 H     17  14  12     2.089369001044   108.97838839    57.63698773
 C     17  14  12     2.890324222021   113.13361851   179.99645650
 H     20  17  14     2.086192364515   111.31232711    59.85716309
 H     20  17  14     2.086190215150   111.31214976   300.14659030
 C      8   7   6     2.862239724568   119.61003550   179.99900727
 H     23   8   7     2.091197441871   108.19417333   303.70774144
 H     23   8   7     2.091196729905   108.19460152    56.27794341
 C     23   8   7     2.892774776391   116.91930310   179.99422235
 H     26  23   8     2.090060168872   109.85126368   301.75776388
 H     26  23   8     2.090063616620   109.85058052    58.25398925
 C     26  23   8     2.897078799029   112.63950770   180.00598015
 H     29  26  23     2.090665076484   109.21751808   302.32623306
 H     29  26  23     2.090663968157   109.21671270    57.70277646
 C     29  26  23     2.891813693299   113.15643708   180.01397672
 H     32  29  26     2.086162219647   111.29937659    59.85893761
 H     32  29  26     2.086164048200   111.29950513   300.15162663
 C      3   2   1     2.309324838186   179.47413845   183.77202161
 H     20  17  14     2.082088561707   111.42857491   180.00149995
 H     32  29  26     2.082415305834   111.50416384   180.00547977
 C     35   3   7     2.698999271524   179.93479586   250.24636653
 C     38  35   3     2.668233028413   120.62899514    97.78558278
 C     39  38  35     2.635322295958   120.39812502   180.00399049
 C     40  39  38     2.644680956468   120.35761814     0.00000000
 C     41  40  39     2.644821842710   119.70970063     0.00000000
 C     42  41  40     2.634893702312   120.34224054     0.00000000
 H     41  40  39     7.074543504598   120.14740386   180.00094295
 H     42  41  40     2.064421296673   120.06899509   180.00053625
 H     39  38  35     2.062406396117   119.09412124     0.00000000
 H     43  42  41     2.063023084114   120.46505941   179.99973786
 H     40  39  38     2.064887145259   119.62435654   179.99746321
 C      1   2   4     2.698999274319   179.93479629    87.59005789
 C     49   1   2     2.668233020311   120.62899559    97.78503874
 C     50  49   1     2.635322288979   120.39812550   180.00399076
 C     51  50  49     2.644680957617   120.35761768     0.00000000
 C     52  51  50     2.644821830898   119.70970070     0.00000000
 C     53  52  51     2.634893711615   120.34224071     0.00000000
 H     52  51  50     7.073665127523   118.73726499   179.96427239
 H     53  52  51     2.064421300940   120.06899540   180.00053619
 H     50  49   1     2.062406405012   119.09412084     0.00000000
 H     54  53  52     2.063023079696   120.46505932   179.99973789
 H     51  50  49     2.064887147454   119.62435725   179.99746329
 C     52  51  50     2.700246680295   118.15774016   179.94996570
 C     55  52  51     2.064972012136     1.40636143   358.75311600
 C     41  40  39     2.700246680295   120.14910010   180.00147278
 C     44  41  40     2.064971995943     0.00426250   164.88515563

---------------------
BASIS SET INFORMATION
---------------------
There are 2 groups of distinct atoms

 Group   1 Type C   : 17s4p1d contracted to 3s2p1d pattern {881/31/1}
 Group   2 Type H   : 4s1p contracted to 2s1p pattern {31/1}

Atom   0C    basis set group =>   1
Atom   1C    basis set group =>   1
Atom   2C    basis set group =>   1
Atom   3C    basis set group =>   1
Atom   4C    basis set group =>   1
Atom   5C    basis set group =>   1
Atom   6C    basis set group =>   1
Atom   7C    basis set group =>   1
Atom   8C    basis set group =>   1
Atom   9H    basis set group =>   2
Atom  10H    basis set group =>   2
Atom  11C    basis set group =>   1
Atom  12H    basis set group =>   2
Atom  13C    basis set group =>   1
Atom  14H    basis set group =>   2
Atom  15H    basis set group =>   2
Atom  16C    basis set group =>   1
Atom  17H    basis set group =>   2
Atom  18H    basis set group =>   2
Atom  19C    basis set group =>   1
Atom  20H    basis set group =>   2
Atom  21H    basis set group =>   2
Atom  22C    basis set group =>   1
Atom  23H    basis set group =>   2
Atom  24H    basis set group =>   2
Atom  25C    basis set group =>   1
Atom  26H    basis set group =>   2
Atom  27H    basis set group =>   2
Atom  28C    basis set group =>   1
Atom  29H    basis set group =>   2
Atom  30H    basis set group =>   2
Atom  31C    basis set group =>   1
Atom  32H    basis set group =>   2
Atom  33H    basis set group =>   2
Atom  34C    basis set group =>   1
Atom  35H    basis set group =>   2
Atom  36H    basis set group =>   2
Atom  37C    basis set group =>   1
Atom  38C    basis set group =>   1
Atom  39C    basis set group =>   1
Atom  40C    basis set group =>   1
Atom  41C    basis set group =>   1
Atom  42C    basis set group =>   1
Atom  43H    basis set group =>   2
Atom  44H    basis set group =>   2
Atom  45H    basis set group =>   2
Atom  46H    basis set group =>   2
Atom  47H    basis set group =>   2
Atom  48C    basis set group =>   1
Atom  49C    basis set group =>   1
Atom  50C    basis set group =>   1
Atom  51C    basis set group =>   1
Atom  52C    basis set group =>   1
Atom  53C    basis set group =>   1
Atom  54H    basis set group =>   2
Atom  55H    basis set group =>   2
Atom  56H    basis set group =>   2
Atom  57H    basis set group =>   2
Atom  58H    basis set group =>   2
Atom  59C    basis set group =>   1
Atom  60C    basis set group =>   1
Atom  61C    basis set group =>   1
Atom  62C    basis set group =>   1


           ************************************************************
           *        Program running with 16 parallel MPI-processes    *
           *              working on a common directory               *
           ************************************************************
------------------------------------------------------------------------------
                           ORCA GTO INTEGRAL CALCULATION
------------------------------------------------------------------------------

                         BASIS SET STATISTICS AND STARTUP INFO

 # of primitive gaussian shells          ...  893
 # of primitive gaussian functions       ... 1359
 # of contracted shells                  ...  291
 # of contracted basis functions         ...  621
 Highest angular momentum                ...    2
 Maximum contraction depth               ...    8
 Integral package used                   ... LIBINT
 Integral threshhold            Thresh   ...  2.500e-11
 Primitive cut-off              TCut     ...  2.500e-12


------------------------------ INTEGRAL EVALUATION ----------------------------


 * One electron integrals 
 Pre-screening matrix                    ... done
 Shell pair data                         ... done (   0.012 sec)



           ************************************************************
           *        Program running with 16 parallel MPI-processes    *
           *              working on a common directory               *
           ************************************************************
-------------------------------------------------------------------------------
                                 ORCA SCF
-------------------------------------------------------------------------------

------------
SCF SETTINGS
------------
Hamiltonian:
 Density Functional     Method          .... DFT(GTOs)
 Exchange Functional    Exchange        .... B88
   X-Alpha parameter    XAlpha          ....  0.666667
   Becke's b parameter  XBeta           ....  0.004200
 Correlation Functional Correlation     .... LYP
 LDA part of GGA corr.  LDAOpt          .... VWN-5
 Gradients option       PostSCFGGA      .... off
 Hybrid DFT is turned on
   Fraction HF Exchange ScalHFX         ....  0.200000
   Scaling of DF-GGA-X  ScalDFX         ....  0.720000
   Scaling of DF-GGA-C  ScalDFC         ....  0.810000
   Scaling of DF-LDA-C  ScalLDAC        ....  1.000000
   Perturbative correction              ....  0.000000
   Density functional embedding theory  .... OFF
   NL short-range parameter             ....  4.800000


General Settings:
 Integral files         IntName         .... opt
 Hartree-Fock type      HFTyp           .... UHF
 Total Charge           Charge          ....    0
 Multiplicity           Mult            ....    2
 Number of Electrons    NEL             ....  233
 Basis Dimension        Dim             ....  621
 Nuclear Repulsion      ENuc            ....   2737.4202912746 Eh

Convergence Acceleration:
 DIIS                   CNVDIIS         .... on
   Start iteration      DIISMaxIt       ....    12
   Startup error        DIISStart       ....  0.200000
   # of expansion vecs  DIISMaxEq       ....     5
   Bias factor          DIISBfac        ....   1.050
   Max. coefficient     DIISMaxC        ....  10.000
 Newton-Raphson         CNVNR           .... off
 SOSCF                  CNVSOSCF        .... off
 Level Shifting         CNVShift        .... on
   Level shift para.    LevelShift      ....    0.2500
   Turn off err/grad.   ShiftErr        ....    0.0010
 Zerner damping         CNVZerner       .... off
 Static damping         CNVDamp         .... on
   Fraction old density DampFac         ....    0.7000
   Max. Damping (<1)    DampMax         ....    0.9800
   Min. Damping (>=0)   DampMin         ....    0.0000
   Turn off err/grad.   DampErr         ....    0.1000
 Fernandez-Rico         CNVRico         .... off

SCF Procedure:
 Maximum # iterations   MaxIter         ....   125
 SCF integral mode      SCFMode         .... Direct
   Integral package                     .... LIBINT
 Reset frequency        DirectResetFreq ....    20
 Integral Threshold     Thresh          ....  2.500e-11 Eh
 Primitive CutOff       TCut            ....  2.500e-12 Eh

Convergence Tolerance:
 Convergence Check Mode ConvCheckMode   .... Total+1el-Energy
 Convergence forced     ConvForced      .... 0
 Energy Change          TolE            ....  1.000e-08 Eh
 1-El. energy change                    ....  1.000e-05 Eh
 DIIS Error             TolErr          ....  5.000e-07


Diagonalization of the overlap matrix:
Smallest eigenvalue                        ... 4.440e-05
Time for diagonalization                   ...    0.258 sec
Threshold for overlap eigenvalues          ... 1.000e-08
Number of eigenvalues below threshold      ... 0
Time for construction of square roots      ...    0.079 sec
Total time needed                          ...    0.339 sec

-------------------
DFT GRID GENERATION
-------------------

General Integration Accuracy     IntAcc      ...  4.340
Radial Grid Type                 RadialGrid  ... Gauss-Chebyshev
Angular Grid (max. acc.)         AngularGrid ... Lebedev-110
Angular grid pruning method      GridPruning ... 3 (G Style)
Weight generation scheme         WeightScheme... Becke
Basis function cutoff            BFCut       ...    1.0000e-11
Integration weight cutoff        WCut        ...    1.0000e-14
Grids for H and He will be reduced by one unit

# of grid points (after initial pruning)     ...  79330 (   0.0 sec)
# of grid points (after weights+screening)   ...  70742 (   0.2 sec)
nearest neighbour list constructed           ...    0.0 sec
Grid point re-assignment to atoms done       ...    0.0 sec
Grid point division into batches done        ...    0.1 sec
Reduced shell lists constructed in    0.2 sec

Total number of grid points                  ...    70742
Total number of batches                      ...     1132
Average number of points per batch           ...       62
Average number of grid points per atom       ...     1123
Average number of shells per batch           ...   119.78 (41.16%)
Average number of basis functions per batch  ...   243.03 (39.13%)
Average number of large shells per batch     ...    70.36 (58.74%)
Average number of large basis fcns per batch ...   149.11 (61.36%)
Maximum spatial batch extension              ...   3.44,  6.99, 21.47 au
Average spatial batch extension              ...   0.11,  0.15,  0.25 au

Time for grid setup =    0.570 sec

------------------------------
INITIAL GUESS: MODEL POTENTIAL
------------------------------
Loading Hartree-Fock densities                     ... done
Calculating cut-offs                               ... done
Setting up the integral package                    ... done
Initializing the effective Hamiltonian             ... done
Starting the Coulomb interaction                   ... done (   0.4 sec)
Reading the grid                                   ... done
Mapping shells                                     ... done
Starting the XC term evaluation                    ... done (   0.2 sec)
  promolecular density results
     # of electrons  =    233.017362455
     EX              =   -183.186551168
     EC              =     -7.721958816
     EX+EC           =   -190.908509984
Transforming the Hamiltonian                       ... done (   0.0 sec)
Diagonalizing the Hamiltonian                      ... done (   0.1 sec)
Back transforming the eigenvectors                 ... done (   0.0 sec)
Now organizing SCF variables                       ... done
                      ------------------
                      INITIAL GUESS DONE (   1.6 sec)
                      ------------------
--------------
SCF ITERATIONS
--------------
ITER       Energy         Delta-E        Max-DP      RMS-DP      [F,P]     Damp
               ***  Starting incremental Fock matrix formation  ***
  0  -1311.3591267655   0.000000000000 0.07084523  0.00083351  0.1734157 0.7000
  1  -1311.6570736768  -0.297946911256 0.06333026  0.00066753  0.0912739 0.7000
                               ***Turning on DIIS***
  2  -1311.7963677410  -0.139294064163 0.13313803  0.00132628  0.0348547 0.0000
  3  -1311.9963155148  -0.199947773806 0.02950601  0.00033852  0.0496956 0.0000
  4  -1312.0437937082  -0.047478193397 0.01763324  0.00014901  0.0106821 0.0000
  5  -1312.0467124549  -0.002918746782 0.00434485  0.00003380  0.0028116 0.0000
  6  -1312.0471060525  -0.000393597552 0.00294649  0.00001582  0.0017914 0.0000
  7  -1312.0472552186  -0.000149166098 0.00219211  0.00001093  0.0010572 0.0000
  8  -1312.0473406316  -0.000085413030 0.00382270  0.00002219  0.0007950 0.0000
  9  -1312.0474504188  -0.000109787190 0.00120171  0.00000752  0.0003199 0.0000
 10  -1312.0474690369  -0.000018618099 0.00109006  0.00000561  0.0003192 0.0000
 11  -1312.0474772588  -0.000008221874 0.00034321  0.00000189  0.0002804 0.0000
 12  -1312.0474790946  -0.000001835780 0.00024720  0.00000143  0.0001519 0.0000
 13  -1312.0474802014  -0.000001106824 0.00017736  0.00000096  0.0000612 0.0000
 14  -1312.0474807967  -0.000000595356 0.00017490  0.00000102  0.0000334 0.0000
 15  -1312.0474812900  -0.000000493256 0.00011302  0.00000072  0.0000219 0.0000
 16  -1312.0474815610  -0.000000271004 0.00013333  0.00000090  0.0000167 0.0000
 17  -1312.0474818043  -0.000000243346 0.00004780  0.00000036  0.0000104 0.0000
 18  -1312.0474818664  -0.000000062023 0.00005474  0.00000044  0.0000082 0.0000
 19  -1312.0474819237  -0.000000057380 0.00004323  0.00000036  0.0000067 0.0000
               *** Restarting incremental Fock matrix formation ***
                                   *** Resetting DIIS ***
 20  -1312.0474819676  -0.000000043897 0.00001736  0.00000017  0.0000050 0.0000
 21  -1312.0474819899  -0.000000022232 0.00000513  0.00000004  0.0000129 0.0000
 22  -1312.0474819937  -0.000000003843 0.00000898  0.00000008  0.0000016 0.0000
 23  -1312.0474820059  -0.000000012160 0.00001075  0.00000010  0.0000012 0.0000
                            ***DIIS convergence achieved***

               *****************************************************
               *                     SUCCESS                       *
               *           SCF CONVERGED AFTER  24 CYCLES          *
               *****************************************************

Setting up the final grid:

General Integration Accuracy     IntAcc      ...  4.670
Radial Grid Type                 RadialGrid  ... Gauss-Chebyshev
Angular Grid (max. acc.)         AngularGrid ... Lebedev-302
Angular grid pruning method      GridPruning ... 3 (G Style)
Weight generation scheme         WeightScheme... Becke
Basis function cutoff            BFCut       ...    1.0000e-11
Integration weight cutoff        WCut        ...    1.0000e-14
Grids for H and He will be reduced by one unit

# of grid points (after initial pruning)     ... 309634 (   0.0 sec)
# of grid points (after weights+screening)   ... 270938 (   0.7 sec)
nearest neighbour list constructed           ...    0.0 sec
Grid point re-assignment to atoms done       ...    0.1 sec
Grid point division into batches done        ...    1.0 sec
Reduced shell lists constructed in    1.6 sec

Total number of grid points                  ...   270938
Total number of batches                      ...     4261
Average number of points per batch           ...       63
Average number of grid points per atom       ...     4301
Average number of shells per batch           ...   110.52 (37.98%)
Average number of basis functions per batch  ...   223.88 (36.05%)
Average number of large shells per batch     ...    64.27 (58.15%)
Average number of large basis fcns per batch ...   135.57 (60.55%)
Maximum spatial batch extension              ...   6.25,  8.57, 26.89 au
Average spatial batch extension              ...   0.09,  0.10,  0.13 au

Final grid set up in    2.4 sec
Final integration                            ... done (   0.9 sec)
Change in XC energy                          ...     0.000588928
Integrated number of electrons               ...   232.999914213
Previous integrated no of electrons          ...   233.012637102

----------------
TOTAL SCF ENERGY
----------------

Total Energy       :        -1312.04689309 Eh          -35702.61105 eV

Components:
Nuclear Repulsion  :         2737.42029127 Eh           74488.99307 eV
Electronic Energy  :        -4049.46718437 Eh         -110191.60412 eV
One Electron Energy:        -7211.11045915 Eh         -196224.29144 eV
Two Electron Energy:         3161.64327478 Eh           86032.68732 eV

Virial components:
Potential Energy   :        -2615.22961657 Eh          -71164.01578 eV
Kinetic Energy     :         1303.18272348 Eh           35461.40473 eV
Virial Ratio       :            2.00680194


DFT components:
N(Alpha)           :      116.999965483310 electrons
N(Beta)            :      115.999948730185 electrons
N(Total)           :      232.999914213495 electrons
E(X)               :     -147.892292512506 Eh       
E(C)               :       -9.123517483189 Eh       
E(XC)              :     -157.015809995695 Eh       
DFET-embed. en.    :        0.000000000000 Eh       

---------------
SCF CONVERGENCE
---------------

  Last Energy change         ...   -1.4587e-08  Tolerance :   1.0000e-08
  Last MAX-Density change    ...    9.1342e-06  Tolerance :   1.0000e-07
  Last RMS-Density change    ...    8.8569e-08  Tolerance :   5.0000e-09
  Last DIIS Error            ...    6.8411e-07  Tolerance :   5.0000e-07

             **** THE GBW FILE WAS UPDATED (opt.gbw) ****
             **** DENSITY FILE WAS UPDATED (opt.scfp) ****
             **** ENERGY FILE WAS UPDATED (opt.en.tmp) ****
----------------------
UHF SPIN CONTAMINATION
----------------------

Warning: in a DFT calculation there is little theoretical justification to 
         calculate <S**2> as in Hartree-Fock theory. We will do it anyways
         but you should keep in mind that the values have only limited relevance

Expectation value of <S**2>     :     0.787867
Ideal value S*(S+1) for S=0.5   :     0.750000
Deviation                       :     0.037867

             **** THE GBW FILE WAS UPDATED (opt.gbw) ****
             **** DENSITY FILE WAS UPDATED (opt.scfp) ****
----------------
ORBITAL ENERGIES
----------------
                 SPIN UP ORBITALS
  NO   OCC          E(Eh)            E(eV) 
   0   1.0000     -10.223532      -278.1964 
   1   1.0000     -10.221746      -278.1479 
   2   1.0000     -10.220769      -278.1213 
   3   1.0000     -10.219380      -278.0835 
   4   1.0000     -10.217458      -278.0312 
   5   1.0000     -10.215308      -277.9727 
   6   1.0000     -10.205680      -277.7107 
   7   1.0000     -10.204163      -277.6694 
   8   1.0000     -10.204036      -277.6659 
   9   1.0000     -10.203588      -277.6538 
  10   1.0000     -10.203514      -277.6517 
  11   1.0000     -10.202998      -277.6377 
  12   1.0000     -10.202531      -277.6250 
  13   1.0000     -10.202503      -277.6242 
  14   1.0000     -10.201529      -277.5977 
  15   1.0000     -10.201389      -277.5939 
  16   1.0000     -10.197902      -277.4990 
  17   1.0000     -10.196156      -277.4515 
  18   1.0000     -10.196053      -277.4487 
  19   1.0000     -10.194751      -277.4133 
  20   1.0000     -10.194688      -277.4116 
  21   1.0000     -10.192898      -277.3629 
  22   1.0000     -10.192891      -277.3627 
  23   1.0000     -10.192539      -277.3531 
  24   1.0000     -10.192345      -277.3478 
  25   1.0000     -10.191622      -277.3281 
  26   1.0000     -10.191027      -277.3119 
  27   1.0000     -10.190249      -277.2908 
  28   1.0000     -10.190198      -277.2894 
  29   1.0000     -10.186694      -277.1940 
  30   1.0000     -10.184614      -277.1374 
  31   1.0000     -10.184336      -277.1299 
  32   1.0000     -10.179272      -276.9921 
  33   1.0000     -10.177779      -276.9514 
  34   1.0000      -0.878344       -23.9009 
  35   1.0000      -0.876795       -23.8588 
  36   1.0000      -0.875353       -23.8196 
  37   1.0000      -0.823990       -22.4219 
  38   1.0000      -0.809497       -22.0275 
  39   1.0000      -0.807036       -21.9606 
  40   1.0000      -0.799072       -21.7438 
  41   1.0000      -0.793121       -21.5819 
  42   1.0000      -0.770837       -20.9755 
  43   1.0000      -0.759629       -20.6706 
  44   1.0000      -0.758598       -20.6425 
  45   1.0000      -0.757701       -20.6181 
  46   1.0000      -0.744797       -20.2670 
  47   1.0000      -0.736566       -20.0430 
  48   1.0000      -0.725383       -19.7387 
  49   1.0000      -0.712966       -19.4008 
  50   1.0000      -0.700464       -19.0606 
  51   1.0000      -0.660040       -17.9606 
  52   1.0000      -0.657340       -17.8871 
  53   1.0000      -0.641270       -17.4498 
  54   1.0000      -0.622770       -16.9464 
  55   1.0000      -0.620968       -16.8974 
  56   1.0000      -0.619720       -16.8634 
  57   1.0000      -0.618461       -16.8292 
  58   1.0000      -0.594807       -16.1855 
  59   1.0000      -0.582871       -15.8607 
  60   1.0000      -0.564822       -15.3696 
  61   1.0000      -0.553026       -15.0486 
  62   1.0000      -0.551783       -15.0148 
  63   1.0000      -0.540691       -14.7130 
  64   1.0000      -0.532290       -14.4843 
  65   1.0000      -0.509666       -13.8687 
  66   1.0000      -0.504908       -13.7392 
  67   1.0000      -0.494282       -13.4501 
  68   1.0000      -0.490441       -13.3456 
  69   1.0000      -0.482130       -13.1194 
  70   1.0000      -0.474048       -12.8995 
  71   1.0000      -0.473552       -12.8860 
  72   1.0000      -0.472429       -12.8555 
  73   1.0000      -0.464963       -12.6523 
  74   1.0000      -0.446602       -12.1526 
  75   1.0000      -0.445189       -12.1142 
  76   1.0000      -0.436227       -11.8703 
  77   1.0000      -0.432474       -11.7682 
  78   1.0000      -0.431569       -11.7436 
  79   1.0000      -0.430273       -11.7083 
  80   1.0000      -0.428934       -11.6719 
  81   1.0000      -0.424775       -11.5587 
  82   1.0000      -0.414543       -11.2803 
  83   1.0000      -0.401704       -10.9309 
  84   1.0000      -0.401497       -10.9253 
  85   1.0000      -0.395575       -10.7641 
  86   1.0000      -0.394593       -10.7374 
  87   1.0000      -0.383999       -10.4491 
  88   1.0000      -0.382869       -10.4184 
  89   1.0000      -0.382176       -10.3995 
  90   1.0000      -0.381612       -10.3842 
  91   1.0000      -0.368239       -10.0203 
  92   1.0000      -0.362890        -9.8747 
  93   1.0000      -0.361672        -9.8416 
  94   1.0000      -0.359699        -9.7879 
  95   1.0000      -0.358263        -9.7488 
  96   1.0000      -0.345150        -9.3920 
  97   1.0000      -0.343221        -9.3395 
  98   1.0000      -0.336119        -9.1463 
  99   1.0000      -0.335430        -9.1275 
 100   1.0000      -0.331326        -9.0158 
 101   1.0000      -0.330496        -8.9933 
 102   1.0000      -0.327075        -8.9002 
 103   1.0000      -0.325860        -8.8671 
 104   1.0000      -0.311462        -8.4753 
 105   1.0000      -0.284930        -7.7533 
 106   1.0000      -0.278688        -7.5835 
 107   1.0000      -0.277482        -7.5507 
 108   1.0000      -0.274667        -7.4741 
 109   1.0000      -0.273146        -7.4327 
 110   1.0000      -0.272458        -7.4140 
 111   1.0000      -0.266277        -7.2458 
 112   1.0000      -0.265476        -7.2240 
 113   1.0000      -0.259593        -7.0639 
 114   1.0000      -0.230579        -6.2744 
 115   1.0000      -0.210240        -5.7209 
 116   1.0000      -0.174184        -4.7398 
 117   0.0000      -0.074897        -2.0381 
 118   0.0000      -0.048008        -1.3064 
 119   0.0000      -0.017786        -0.4840 
 120   0.0000      -0.016828        -0.4579 
 121   0.0000      -0.013683        -0.3723 
 122   0.0000       0.011311         0.3078 
 123   0.0000       0.035412         0.9636 
 124   0.0000       0.039949         1.0871 
 125   0.0000       0.046314         1.2603 
 126   0.0000       0.049522         1.3476 
 127   0.0000       0.050915         1.3855 
 128   0.0000       0.053317         1.4508 
 129   0.0000       0.055341         1.5059 
 130   0.0000       0.060404         1.6437 
 131   0.0000       0.062947         1.7129 
 132   0.0000       0.071046         1.9333 
 133   0.0000       0.076904         2.0927 
 134   0.0000       0.079021         2.1503 
 135   0.0000       0.084462         2.2983 
 136   0.0000       0.086086         2.3425 
 137   0.0000       0.088506         2.4084 
 138   0.0000       0.089777         2.4430 
 139   0.0000       0.091184         2.4812 
 140   0.0000       0.099993         2.7209 
 141   0.0000       0.100121         2.7244 
 142   0.0000       0.104404         2.8410 
 143   0.0000       0.109736         2.9861 
 144   0.0000       0.117436         3.1956 
 145   0.0000       0.119925         3.2633 
 146   0.0000       0.127276         3.4633 
 147   0.0000       0.132928         3.6171 
 148   0.0000       0.139547         3.7973 
 149   0.0000       0.142210         3.8697 
 150   0.0000       0.142910         3.8888 
 151   0.0000       0.149534         4.0690 
 152   0.0000       0.154129         4.1941 
 153   0.0000       0.157084         4.2745 
 154   0.0000       0.157553         4.2872 
 155   0.0000       0.159421         4.3381 
 156   0.0000       0.165052         4.4913 
 157   0.0000       0.169537         4.6133 
 158   0.0000       0.171909         4.6779 
 159   0.0000       0.172104         4.6832 
 160   0.0000       0.179725         4.8906 
 161   0.0000       0.197438         5.3726 
 162   0.0000       0.198806         5.4098 
 163   0.0000       0.199290         5.4230 
 164   0.0000       0.205593         5.5945 
 165   0.0000       0.213909         5.8208 
 166   0.0000       0.214854         5.8465 
 167   0.0000       0.215202         5.8560 
 168   0.0000       0.221221         6.0197 
 169   0.0000       0.240669         6.5489 
 170   0.0000       0.242031         6.5860 
 171   0.0000       0.253755         6.9050 
 172   0.0000       0.255925         6.9641 
 173   0.0000       0.268959         7.3188 
 174   0.0000       0.271620         7.3911 
 175   0.0000       0.277924         7.5627 
 176   0.0000       0.278171         7.5694 
 177   0.0000       0.280803         7.6410 
 178   0.0000       0.287131         7.8132 
 179   0.0000       0.293114         7.9760 
 180   0.0000       0.306003         8.3268 
 181   0.0000       0.308902         8.4056 
 182   0.0000       0.328446         8.9375 
 183   0.0000       0.329069         8.9544 
 184   0.0000       0.342870         9.3300 
 185   0.0000       0.343835         9.3562 
 186   0.0000       0.349424         9.5083 
 187   0.0000       0.351027         9.5519 
 188   0.0000       0.368189        10.0189 
 189   0.0000       0.372008        10.1229 
 190   0.0000       0.375982        10.2310 
 191   0.0000       0.394358        10.7310 
 192   0.0000       0.402897        10.9634 
 193   0.0000       0.408418        11.1136 
 194   0.0000       0.408884        11.1263 
 195   0.0000       0.410170        11.1613 
 196   0.0000       0.414840        11.2884 
 197   0.0000       0.416051        11.3213 
 198   0.0000       0.429206        11.6793 
 199   0.0000       0.432348        11.7648 
 200   0.0000       0.435345        11.8463 
 201   0.0000       0.436856        11.8874 
 202   0.0000       0.439627        11.9628 
 203   0.0000       0.441642        12.0177 
 204   0.0000       0.444983        12.1086 
 205   0.0000       0.446016        12.1367 
 206   0.0000       0.449988        12.2448 
 207   0.0000       0.454323        12.3628 
 208   0.0000       0.456666        12.4265 
 209   0.0000       0.458085        12.4651 
 210   0.0000       0.460528        12.5316 
 211   0.0000       0.462844        12.5946 
 212   0.0000       0.467246        12.7144 
 213   0.0000       0.476416        12.9639 
 214   0.0000       0.476532        12.9671 
 215   0.0000       0.482091        13.1184 
 216   0.0000       0.489169        13.3110 
 217   0.0000       0.493086        13.4176 
 218   0.0000       0.497611        13.5407 
 219   0.0000       0.499451        13.5907 
 220   0.0000       0.501203        13.6384 
 221   0.0000       0.502445        13.6722 
 222   0.0000       0.504181        13.7195 
 223   0.0000       0.506918        13.7939 
 224   0.0000       0.507841        13.8191 
 225   0.0000       0.509428        13.8622 
 226   0.0000       0.511220        13.9110 
 227   0.0000       0.511559        13.9202 
 228   0.0000       0.513705        13.9786 
 229   0.0000       0.514597        14.0029 
 230   0.0000       0.520838        14.1727 
 231   0.0000       0.526006        14.3133 
 232   0.0000       0.530641        14.4395 
 233   0.0000       0.535166        14.5626 
 234   0.0000       0.541358        14.7311 
 235   0.0000       0.546819        14.8797 
 236   0.0000       0.549592        14.9551 
 237   0.0000       0.553686        15.0665 
 238   0.0000       0.560506        15.2521 
 239   0.0000       0.577275        15.7084 
 240   0.0000       0.577338        15.7102 
 241   0.0000       0.579482        15.7685 
 242   0.0000       0.580442        15.7946 
 243   0.0000       0.593146        16.1403 
 244   0.0000       0.593366        16.1463 
 245   0.0000       0.598253        16.2793 
 246   0.0000       0.604624        16.4527 
 247   0.0000       0.612324        16.6622 
 248   0.0000       0.615551        16.7500 
 249   0.0000       0.616217        16.7681 
 250   0.0000       0.616682        16.7808 
 251   0.0000       0.618974        16.8431 
 252   0.0000       0.623109        16.9557 
 253   0.0000       0.627616        17.0783 
 254   0.0000       0.631205        17.1760 
 255   0.0000       0.634377        17.2623 
 256   0.0000       0.638481        17.3740 
 257   0.0000       0.640719        17.4348 
 258   0.0000       0.644186        17.5292 
 259   0.0000       0.647473        17.6186 
 260   0.0000       0.650448        17.6996 
 261   0.0000       0.653484        17.7822 
 262   0.0000       0.655281        17.8311 
 263   0.0000       0.656992        17.8776 
 264   0.0000       0.657577        17.8936 
 265   0.0000       0.660120        17.9628 
 266   0.0000       0.663670        18.0594 
 267   0.0000       0.665051        18.0969 
 268   0.0000       0.665319        18.1043 
 269   0.0000       0.669683        18.2230 
 270   0.0000       0.670283        18.2393 
 271   0.0000       0.672434        18.2979 
 272   0.0000       0.679880        18.5005 
 273   0.0000       0.684918        18.6376 
 274   0.0000       0.685903        18.6644 
 275   0.0000       0.688812        18.7435 
 276   0.0000       0.690583        18.7917 
 277   0.0000       0.693663        18.8755 
 278   0.0000       0.694467        18.8974 
 279   0.0000       0.696613        18.9558 
 280   0.0000       0.698670        19.0118 
 281   0.0000       0.703469        19.1424 
 282   0.0000       0.704733        19.1768 
 283   0.0000       0.708382        19.2761 
 284   0.0000       0.709951        19.3187 
 285   0.0000       0.715816        19.4783 
 286   0.0000       0.715838        19.4789 
 287   0.0000       0.720416        19.6035 
 288   0.0000       0.724114        19.7041 
 289   0.0000       0.729035        19.8380 
 290   0.0000       0.737344        20.0641 
 291   0.0000       0.739218        20.1151 
 292   0.0000       0.744740        20.2654 
 293   0.0000       0.760086        20.6830 
 294   0.0000       0.762303        20.7433 
 295   0.0000       0.774268        21.0689 
 296   0.0000       0.775216        21.0947 
 297   0.0000       0.784560        21.3490 
 298   0.0000       0.790947        21.5228 
 299   0.0000       0.796873        21.6840 
 300   0.0000       0.807188        21.9647 
 301   0.0000       0.809853        22.0372 
 302   0.0000       0.815422        22.1888 
 303   0.0000       0.819207        22.2918 
 304   0.0000       0.828691        22.5498 
 305   0.0000       0.831815        22.6348 
 306   0.0000       0.840400        22.8684 
 307   0.0000       0.840647        22.8752 
 308   0.0000       0.867673        23.6106 
 309   0.0000       0.868073        23.6215 
 310   0.0000       0.878448        23.9038 
 311   0.0000       0.881095        23.9758 
 312   0.0000       0.883172        24.0323 
 313   0.0000       0.886450        24.1215 
 314   0.0000       0.891952        24.2713 
 315   0.0000       0.899348        24.4725 
 316   0.0000       0.908063        24.7097 
 317   0.0000       0.910716        24.7818 
 318   0.0000       0.911754        24.8101 
 319   0.0000       0.921719        25.0812 
 320   0.0000       0.929516        25.2934 
 321   0.0000       0.932293        25.3690 
 322   0.0000       0.934564        25.4308 
 323   0.0000       0.946203        25.7475 
 324   0.0000       0.957356        26.0510 
 325   0.0000       0.963241        26.2111 
 326   0.0000       0.969466        26.3805 
 327   0.0000       0.970475        26.4080 
 328   0.0000       0.976219        26.5643 
[...]
      px      :    -0.000140
      py      :     0.000025
 24 H s       :     0.007941  s :     0.007941
      pz      :    -0.000076  p :    -0.000190
      px      :    -0.000139
      py      :     0.000025
 25 C s       :     0.000037  s :     0.000037
      pz      :     0.000019  p :     0.000190
      px      :     0.000100
      py      :     0.000071
      dz2     :    -0.000014  d :    -0.000071
      dxz     :     0.000117
      dyz     :    -0.000026
      dx2y2   :    -0.000105
      dxy     :    -0.000042
 26 H s       :     0.000031  s :     0.000031
      pz      :     0.000007  p :     0.000019
      px      :     0.000010
      py      :     0.000002
 27 H s       :     0.000032  s :     0.000032
      pz      :     0.000007  p :     0.000019
      px      :     0.000010
      py      :     0.000002
 28 C s       :    -0.000047  s :    -0.000047
      pz      :     0.000175  p :     0.000067
      px      :    -0.000022
      py      :    -0.000085
      dz2     :    -0.000002  d :     0.000000
      dxz     :    -0.000003
      dyz     :     0.000012
      dx2y2   :    -0.000000
      dxy     :    -0.000007
 29 H s       :     0.000071  s :     0.000071
      pz      :     0.000001  p :     0.000019
      px      :     0.000006
      py      :     0.000012
 30 H s       :     0.000071  s :     0.000071
      pz      :     0.000001  p :     0.000019
      px      :     0.000006
      py      :     0.000012
 31 C s       :    -0.000009  s :    -0.000009
      pz      :    -0.000001  p :    -0.000045
      px      :    -0.000014
      py      :    -0.000031
      dz2     :    -0.000000  d :     0.000017
      dxz     :     0.000012
      dyz     :     0.000007
      dx2y2   :    -0.000003
      dxy     :     0.000001
 32 H s       :     0.000017  s :     0.000017
      pz      :    -0.000000  p :    -0.000001
      px      :    -0.000000
      py      :    -0.000001
 33 H s       :     0.000017  s :     0.000017
      pz      :    -0.000000  p :    -0.000001
      px      :    -0.000000
      py      :    -0.000001
 34 C s       :    -0.001162  s :    -0.001162
      pz      :    -0.029653  p :    -0.034991
      px      :    -0.000539
      py      :    -0.004799
      dz2     :     0.000124  d :     0.001982
      dxz     :     0.001460
      dyz     :    -0.000001
      dx2y2   :     0.000150
      dxy     :     0.000250
 35 H s       :    -0.000130  s :    -0.000130
      pz      :     0.000032  p :     0.000021
      px      :     0.000003
      py      :    -0.000014
 36 H s       :    -0.000004  s :    -0.000004
      pz      :    -0.000000  p :    -0.000003
      px      :    -0.000001
      py      :    -0.000002
 37 C s       :     0.000464  s :     0.000464
      pz      :     0.006610  p :     0.007696
      px      :     0.000765
      py      :     0.000321
      dz2     :    -0.000043  d :    -0.002352
      dxz     :    -0.001726
      dyz     :    -0.000184
      dx2y2   :    -0.000117
      dxy     :    -0.000283
 38 C s       :    -0.000355  s :    -0.000355
      pz      :    -0.008410  p :    -0.008970
      px      :    -0.000280
      py      :    -0.000280
      dz2     :     0.000035  d :     0.000544
      dxz     :     0.000261
      dyz     :     0.000144
      dx2y2   :     0.000053
      dxy     :     0.000051
 39 C s       :     0.000217  s :     0.000217
      pz      :     0.004317  p :     0.004751
      px      :     0.000238
      py      :     0.000196
      dz2     :    -0.000021  d :    -0.000856
      dxz     :    -0.000574
      dyz     :    -0.000185
      dx2y2   :    -0.000036
      dxy     :    -0.000040
 40 C s       :    -0.000320  s :    -0.000320
      pz      :    -0.008527  p :    -0.009010
      px      :    -0.000224
      py      :    -0.000259
      dz2     :     0.000043  d :     0.000489
      dxz     :     0.000155
      dyz     :     0.000197
      dx2y2   :     0.000036
      dxy     :     0.000058
 41 C s       :     0.000217  s :     0.000217
      pz      :     0.004311  p :     0.004745
      px      :     0.000238
      py      :     0.000196
      dz2     :    -0.000021  d :    -0.000855
      dxz     :    -0.000575
      dyz     :    -0.000184
      dx2y2   :    -0.000036
      dxy     :    -0.000040
 42 C s       :    -0.000355  s :    -0.000355
      pz      :    -0.008401  p :    -0.008956
      px      :    -0.000280
      py      :    -0.000276
      dz2     :     0.000035  d :     0.000544
      dxz     :     0.000261
      dyz     :     0.000144
      dx2y2   :     0.000054
      dxy     :     0.000051
 43 H s       :     0.000188  s :     0.000188
      pz      :    -0.000153  p :    -0.000199
      px      :    -0.000029
      py      :    -0.000016
 44 H s       :    -0.000137  s :    -0.000137
      pz      :     0.000124  p :     0.000151
      px      :     0.000011
      py      :     0.000017
 45 H s       :     0.000263  s :     0.000263
      pz      :    -0.000228  p :    -0.000274
      px      :    -0.000013
      py      :    -0.000033
 46 H s       :     0.000256  s :     0.000256
      pz      :    -0.000228  p :    -0.000273
      px      :    -0.000013
      py      :    -0.000033
 47 H s       :    -0.000138  s :    -0.000138
      pz      :     0.000124  p :     0.000151
      px      :     0.000011
      py      :     0.000017
 48 C s       :    -0.001010  s :    -0.001010
      pz      :    -0.014233  p :    -0.016614
      px      :    -0.001643
      py      :    -0.000738
      dz2     :     0.000091  d :     0.005208
      dxz     :     0.003943
      dyz     :     0.000437
      dx2y2   :     0.000259
      dxy     :     0.000476
 49 C s       :     0.000805  s :     0.000805
      pz      :     0.019984  p :     0.021212
      px      :     0.000625
      py      :     0.000603
      dz2     :    -0.000085  d :    -0.001217
      dxz     :    -0.000610
      dyz     :    -0.000285
      dx2y2   :    -0.000127
      dxy     :    -0.000111
 50 C s       :    -0.000522  s :    -0.000522
      pz      :    -0.010158  p :    -0.011210
      px      :    -0.000567
      py      :    -0.000485
      dz2     :     0.000048  d :     0.002090
      dxz     :     0.001341
      dyz     :     0.000521
      dx2y2   :     0.000089
      dxy     :     0.000091
 51 C s       :     0.000787  s :     0.000787
      pz      :     0.021084  p :     0.022266
      px      :     0.000549
      py      :     0.000633
      dz2     :    -0.000106  d :    -0.001164
      dxz     :    -0.000362
      dyz     :    -0.000466
      dx2y2   :    -0.000086
      dxy     :    -0.000143
 52 C s       :    -0.000522  s :    -0.000522
      pz      :    -0.010144  p :    -0.011197
      px      :    -0.000590
      py      :    -0.000462
      dz2     :     0.000048  d :     0.002093
      dxz     :     0.001456
      dyz     :     0.000407
      dx2y2   :     0.000086
      dxy     :     0.000095
 53 C s       :     0.000802  s :     0.000802
      pz      :     0.020045  p :     0.021282
      px      :     0.000599
      py      :     0.000638
      dz2     :    -0.000085  d :    -0.001217
      dxz     :    -0.000556
      dyz     :    -0.000338
      dx2y2   :    -0.000117
      dxy     :    -0.000121
 54 H s       :    -0.000469  s :    -0.000469
      pz      :     0.000386  p :     0.000499
      px      :     0.000073
      py      :     0.000039
 55 H s       :     0.000319  s :     0.000319
      pz      :    -0.000291  p :    -0.000358
      px      :    -0.000025
      py      :    -0.000041
 56 H s       :    -0.000628  s :    -0.000628
      pz      :     0.000547  p :     0.000653
      px      :     0.000028
      py      :     0.000078
 57 H s       :    -0.000634  s :    -0.000634
      pz      :     0.000549  p :     0.000656
      px      :     0.000034
      py      :     0.000072
 58 H s       :     0.000319  s :     0.000319
      pz      :    -0.000292  p :    -0.000358
      px      :    -0.000027
      py      :    -0.000040
 59 C s       :    -0.000472  s :    -0.000472
      pz      :    -0.004744  p :    -0.006458
      px      :    -0.000360
      py      :    -0.001354
      dz2     :     0.000025  d :     0.002539
      dxz     :     0.002332
      dyz     :     0.000001
      dx2y2   :     0.000081
      dxy     :     0.000099
 60 C s       :     0.000456  s :     0.000456
      pz      :     0.013024  p :     0.014706
      px      :     0.000195
      py      :     0.001487
      dz2     :    -0.000055  d :    -0.000431
      dxz     :    -0.000249
      dyz     :    -0.000000
      dx2y2   :    -0.000053
      dxy     :    -0.000074
 61 C s       :     0.000191  s :     0.000191
      pz      :     0.001944  p :     0.002635
      px      :     0.000145
      py      :     0.000547
      dz2     :    -0.000010  d :    -0.001015
      dxz     :    -0.000933
      dyz     :     0.000001
      dx2y2   :    -0.000033
      dxy     :    -0.000040
 62 C s       :    -0.000183  s :    -0.000183
      pz      :    -0.005211  p :    -0.005890
      px      :    -0.000077
      py      :    -0.000601
      dz2     :     0.000022  d :     0.000176
      dxz     :     0.000103
      dyz     :     0.000000
      dx2y2   :     0.000021
      dxy     :     0.000030


                      *****************************
                      * MAYER POPULATION ANALYSIS *
                      *****************************

  NA   - Mulliken gross atomic population
  ZA   - Total nuclear charge
  QA   - Mulliken gross atomic charge
  VA   - Mayer's total valence
  BVA  - Mayer's bonded valence
  FA   - Mayer's free valence

  ATOM       NA         ZA         QA         VA         BVA        FA
  0 C      5.8174     6.0000     0.1826     2.5655     2.5595     0.0060
  1 C      5.7490     6.0000     0.2510     2.4677     2.4654     0.0023
  2 C      5.7629     6.0000     0.2371     2.5206     2.5200     0.0006
  3 C      6.1883     6.0000    -0.1883     3.7483     3.7145     0.0338
  4 C      5.9320     6.0000     0.0680     4.1483     4.1333     0.0150
  5 C      6.0230     6.0000    -0.0230     3.8692     3.8347     0.0344
  6 C      6.1543     6.0000    -0.1543     3.8192     3.8122     0.0070
  7 C      6.0899     6.0000    -0.0899     4.1597     4.1233     0.0364
  8 C      5.9859     6.0000     0.0141     3.9033     3.8954     0.0079
  9 H      1.0506     1.0000    -0.0506     1.0038     1.0037     0.0001
 10 H      1.0517     1.0000    -0.0517     1.0041     1.0040     0.0000
 11 C      6.1005     6.0000    -0.1005     3.9314     3.5692     0.3622
 12 H      1.0233     1.0000    -0.0233     1.0085     1.0073     0.0012
 13 C      5.9676     6.0000     0.0324     4.0096     4.0082     0.0014
 14 H      0.9700     1.0000     0.0300     0.9632     0.9622     0.0011
 15 H      0.9700     1.0000     0.0300     0.9632     0.9622     0.0011
 16 C      6.0410     6.0000    -0.0410     4.1318     4.1318     0.0000
 17 H      0.9872     1.0000     0.0128     0.9643     0.9643     0.0000
 18 H      0.9871     1.0000     0.0129     0.9644     0.9644     0.0000
 19 C      5.9944     6.0000     0.0056     4.0148     4.0148     0.0000
 20 H      0.9823     1.0000     0.0177     0.9777     0.9777     0.0000
 21 H      0.9823     1.0000     0.0177     0.9777     0.9777     0.0000
 22 C      5.9630     6.0000     0.0370     4.0309     4.0307     0.0002
 23 H      0.9663     1.0000     0.0337     0.9692     0.9691     0.0001
 24 H      0.9664     1.0000     0.0336     0.9692     0.9691     0.0001
 25 C      6.0373     6.0000    -0.0373     4.1121     4.1121     0.0000
 26 H      0.9825     1.0000     0.0175     0.9635     0.9635     0.0000
 27 H      0.9826     1.0000     0.0174     0.9636     0.9636     0.0000
 28 C      6.0242     6.0000    -0.0242     4.1140     4.1140     0.0000
 29 H      0.9940     1.0000     0.0060     0.9679     0.9679     0.0000
 30 H      0.9942     1.0000     0.0058     0.9679     0.9679     0.0000
 31 C      5.9963     6.0000     0.0037     4.0166     4.0166     0.0000
 32 H      0.9827     1.0000     0.0173     0.9777     0.9777     0.0000
 33 H      0.9827     1.0000     0.0173     0.9777     0.9777     0.0000
 34 C      5.8255     6.0000     0.1745     2.5944     2.5931     0.0013
 35 H      0.9846     1.0000     0.0154     0.9743     0.9743     0.0000
 36 H      0.9875     1.0000     0.0125     0.9745     0.9745     0.0000
 37 C      6.2465     6.0000    -0.2465     3.8829     3.8828     0.0001
 38 C      5.9629     6.0000     0.0371     3.9768     3.9767     0.0001
 39 C      5.9509     6.0000     0.0491     3.9647     3.9646     0.0000
 40 C      6.1073     6.0000    -0.1073     3.8878     3.8877     0.0001
 41 C      5.9514     6.0000     0.0486     3.9656     3.9656     0.0000
 42 C      5.9650     6.0000     0.0350     3.9749     3.9748     0.0001
 43 H      1.0200     1.0000    -0.0200     1.0296     1.0296     0.0000
 44 H      1.0325     1.0000    -0.0325     0.9830     0.9830     0.0000
 45 H      1.0354     1.0000    -0.0354     0.9847     0.9847     0.0000
 46 H      1.0345     1.0000    -0.0345     0.9841     0.9841     0.0000
 47 H      1.0323     1.0000    -0.0323     0.9829     0.9829     0.0000
 48 C      6.2505     6.0000    -0.2505     3.8845     3.8841     0.0004
 49 C      5.9703     6.0000     0.0297     3.9772     3.9766     0.0005
 50 C      5.9496     6.0000     0.0504     3.9634     3.9632     0.0002
 51 C      6.1071     6.0000    -0.1071     3.8863     3.8857     0.0006
 52 C      5.9527     6.0000     0.0473     3.9663     3.9661     0.0002
 53 C      5.9612     6.0000     0.0388     3.9733     3.9727     0.0005
 54 H      1.0208     1.0000    -0.0208     1.0296     1.0296     0.0000
 55 H      1.0327     1.0000    -0.0327     0.9828     0.9828     0.0000
 56 H      1.0341     1.0000    -0.0341     0.9823     0.9823     0.0000
 57 H      1.0363     1.0000    -0.0363     0.9849     0.9849     0.0000
 58 H      1.0338     1.0000    -0.0338     0.9830     0.9830     0.0000
 59 C      5.3747     6.0000     0.6253     2.9689     2.9689     0.0000
 60 C      6.5420     6.0000    -0.5420     3.4323     3.4321     0.0002
 61 C      5.3752     6.0000     0.6248     2.9715     2.9715     0.0000
 62 C      6.5401     6.0000    -0.5401     3.4331     3.4331     0.0000

  Mayer bond orders larger than 0.100000
B(  0-C ,  1-C ) :   1.6891 B(  0-C ,  3-C ) :  -0.1096 B(  0-C , 48-C ) :   0.9161 
B(  1-C ,  3-C ) :   0.8864 B(  1-C , 48-C ) :  -0.1800 B(  2-C ,  6-C ) :   0.8848 
B(  2-C , 34-C ) :   1.7299 B(  2-C , 37-C ) :  -0.1729 B(  3-C ,  4-C ) :   1.2792 
B(  3-C ,  8-C ) :   1.3898 B(  3-C , 48-C ) :   0.1064 B(  4-C ,  5-C ) :   1.2944 
B(  4-C , 11-C ) :   1.3820 B(  5-C ,  6-C ) :   1.4415 B(  5-C ,  9-H ) :   0.9201 
B(  6-C ,  7-C ) :   1.3438 B(  6-C , 34-C ) :  -0.1092 B(  7-C ,  8-C ) :   1.4341 
B(  7-C , 22-C ) :   1.0969 B(  8-C , 10-H ) :   0.9220 B( 11-C , 12-H ) :   0.8999 
B( 11-C , 13-C ) :   1.0835 B( 13-C , 14-H ) :   0.9119 B( 13-C , 15-H ) :   0.9119 
B( 13-C , 16-C ) :   1.0711 B( 16-C , 17-H ) :   0.9442 B( 16-C , 18-H ) :   0.9442 
B( 16-C , 19-C ) :   1.1057 B( 19-C , 20-H ) :   0.9654 B( 19-C , 21-H ) :   0.9654 
B( 19-C , 35-H ) :   0.9612 B( 22-C , 23-H ) :   0.8960 B( 22-C , 24-H ) :   0.8959 
B( 22-C , 25-C ) :   1.1030 B( 25-C , 26-H ) :   0.9295 B( 25-C , 27-H ) :   0.9295 
B( 25-C , 28-C ) :   1.0737 B( 28-C , 29-H ) :   0.9416 B( 28-C , 30-H ) :   0.9416 
B( 28-C , 31-C ) :   1.1041 B( 31-C , 32-H ) :   0.9665 B( 31-C , 33-H ) :   0.9665 
B( 31-C , 36-H ) :   0.9626 B( 34-C , 37-C ) :   0.9119 B( 37-C , 38-C ) :   1.4239 
B( 37-C , 42-C ) :   1.4186 B( 38-C , 39-C ) :   1.4735 B( 38-C , 45-H ) :   0.9383 
B( 39-C , 40-C ) :   1.4084 B( 39-C , 47-H ) :   0.9380 B( 40-C , 41-C ) :   1.4083 
B( 40-C , 61-C ) :   0.9104 B( 41-C , 42-C ) :   1.4741 B( 41-C , 44-H ) :   0.9380 
B( 42-C , 46-H ) :   0.9387 B( 43-H , 62-C ) :   1.0977 B( 48-C , 49-C ) :   1.4174 
B( 48-C , 53-C ) :   1.4180 B( 49-C , 50-C ) :   1.4757 B( 49-C , 56-H ) :   0.9388 
B( 50-C , 51-C ) :   1.4048 B( 50-C , 58-H ) :   0.9382 B( 51-C , 52-C ) :   1.4074 
B( 51-C , 59-C ) :   0.9111 B( 52-C , 53-C ) :   1.4763 B( 52-C , 55-H ) :   0.9379 
B( 53-C , 57-H ) :   0.9384 B( 54-H , 60-C ) :   1.0983 B( 59-C , 60-C ) :   2.2033 
B( 61-C , 62-C ) :   2.2060 

-------
TIMINGS
-------

Total SCF time: 0 days 0 hours 1 min 28 sec 

Total time                  ....      88.311 sec
Sum of individual times     ....      86.440 sec  ( 97.9%)

Fock matrix formation       ....      78.484 sec  ( 88.9%)
  XC integration            ....       2.939 sec  (  3.7% of F)
    Basis function eval.    ....       0.548 sec  ( 18.7% of XC)
    Density eval.           ....       0.498 sec  ( 17.0% of XC)
    XC-Functional eval.     ....       0.088 sec  (  3.0% of XC)
    XC-Potential eval.      ....       0.531 sec  ( 18.1% of XC)
Diagonalization             ....       2.516 sec  (  2.8%)
Density matrix formation    ....       0.136 sec  (  0.2%)
Population analysis         ....       0.441 sec  (  0.5%)
Initial guess               ....       0.327 sec  (  0.4%)
Orbital Transformation      ....       0.000 sec  (  0.0%)
Orbital Orthonormalization  ....       0.253 sec  (  0.3%)
DIIS solution               ....       1.593 sec  (  1.8%)
Grid generation             ....       2.943 sec  (  3.3%)

-------------------------   --------------------
FINAL SINGLE POINT ENERGY     -1312.048755972538
-------------------------   --------------------

                                *** OPTIMIZATION RUN DONE ***

                            ***************************************
                            *     ORCA property calculations      *
                            ***************************************

                                    ---------------------
                                    Active property flags
                                    ---------------------
   (+) Dipole Moment


------------------------------------------------------------------------------
                       ORCA ELECTRIC PROPERTIES CALCULATION
------------------------------------------------------------------------------

Dipole Moment Calculation                       ... on
Quadrupole Moment Calculation                   ... off
Polarizability Calculation                      ... off
GBWName                                         ... opt.gbw
Electron density file                           ... opt.scfp
The origin for moment calculation is the CENTER OF MASS  = (15.722620,  0.033053 -0.005240)

-------------
DIPOLE MOMENT
-------------
                                X             Y             Z
Electronic contribution:      0.39333      -1.98430      -0.01118
Nuclear contribution   :     -0.55926       1.94057       0.01127
                        -----------------------------------------
Total Dipole Moment    :     -0.16593      -0.04373       0.00009
                        -----------------------------------------
Magnitude (a.u.)       :      0.17159
Magnitude (Debye)      :      0.43616



--------------------
Rotational spectrum 
--------------------
 
Rotational constants in cm-1:     0.005924     0.001229     0.001019 
Rotational constants in MHz :   177.589203    36.830758    30.545228 

 Dipole components along the rotational axes: 
x,y,z [a.u.] :     0.164069    -0.050256     0.000120 
x,y,z [Debye]:     0.417031    -0.127740     0.000305 

 

Timings for individual modules:

Sum of individual times         ...     1983.183 sec (=  33.053 min)
GTO integral calculation        ...       30.179 sec (=   0.503 min)   1.5 %
SCF iterations                  ...     1469.556 sec (=  24.493 min)  74.1 %
SCF Gradient evaluation         ...      470.784 sec (=   7.846 min)  23.7 %
Geometry relaxation             ...       12.664 sec (=   0.211 min)   0.6 %
                             ****ORCA TERMINATED NORMALLY****
TOTAL RUN TIME: 0 days 0 hours 33 minutes 16 seconds 374 msec
