
                                 *****************
                                 * O   R   C   A *
                                 *****************

                                            #,                                       
                                            ###                                      
                                            ####                                     
                                            #####                                    
                                            ######                                   
                                           ########,                                 
                                     ,,################,,,,,                         
                               ,,#################################,,                 
                          ,,##########################################,,             
                       ,#########################################, ''#####,          
                    ,#############################################,,   '####,        
                  ,##################################################,,,,####,       
                ,###########''''           ''''###############################       
              ,#####''   ,,,,##########,,,,          '''####'''          '####       
            ,##' ,,,,###########################,,,                        '##       
           ' ,,###''''                  '''############,,,                           
         ,,##''                                '''############,,,,        ,,,,,,###''
      ,#''                                            '''#######################'''  
     '                                                          ''''####''''         
             ,#######,   #######,   ,#######,      ##                                
            ,#'     '#,  ##    ##  ,#'     '#,    #''#        ######   ,####,        
            ##       ##  ##   ,#'  ##            #'  '#       #        #'  '#        
            ##       ##  #######   ##           ,######,      #####,   #    #        
            '#,     ,#'  ##    ##  '#,     ,#' ,#      #,         ##   #,  ,#        
             '#######'   ##     ##  '#######'  #'      '#     #####' # '####'        



                  #######################################################
                  #                        -***-                        #
                  #          Department of theory and spectroscopy      #
                  #    Directorship and core code : Frank Neese         #
                  #        Max Planck Institute fuer Kohlenforschung    #
                  #                Kaiser Wilhelm Platz 1               #
                  #                 D-45470 Muelheim/Ruhr               #
                  #                      Germany                        #
                  #                                                     #
                  #                  All rights reserved                #
                  #                        -***-                        #
                  #######################################################


                         Program Version 5.0.4 -  RELEASE  -


 With contributions from (in alphabetic order):
   Daniel Aravena         : Magnetic Suceptibility
   Michael Atanasov       : Ab Initio Ligand Field Theory (pilot matlab implementation)
   Alexander A. Auer      : GIAO ZORA, VPT2 properties, NMR spectrum
   Ute Becker             : Parallelization
   Giovanni Bistoni       : ED, misc. LED, open-shell LED, HFLD
   Martin Brehm           : Molecular dynamics
   Dmytro Bykov           : SCF Hessian
   Vijay G. Chilkuri      : MRCI spin determinant printing, contributions to CSF-ICE
   Dipayan Datta          : RHF DLPNO-CCSD density
   Achintya Kumar Dutta   : EOM-CC, STEOM-CC
   Dmitry Ganyushin       : Spin-Orbit,Spin-Spin,Magnetic field MRCI
   Miquel Garcia          : C-PCM and meta-GGA Hessian, CC/C-PCM, Gaussian charge scheme
   Yang Guo               : DLPNO-NEVPT2, F12-NEVPT2, CIM, IAO-localization
   Andreas Hansen         : Spin unrestricted coupled pair/coupled cluster methods
   Benjamin Helmich-Paris : MC-RPA, TRAH-SCF, COSX integrals
   Lee Huntington         : MR-EOM, pCC
   Robert Izsak           : Overlap fitted RIJCOSX, COSX-SCS-MP3, EOM
   Marcus Kettner         : VPT2
   Christian Kollmar      : KDIIS, OOCD, Brueckner-CCSD(T), CCSD density, CASPT2, CASPT2-K
   Simone Kossmann        : Meta GGA functionals, TD-DFT gradient, OOMP2, MP2 Hessian
   Martin Krupicka        : Initial AUTO-CI
   Lucas Lang             : DCDCAS
   Marvin Lechner         : AUTO-CI (C++ implementation), FIC-MRCC
   Dagmar Lenk            : GEPOL surface, SMD
   Dimitrios Liakos       : Extrapolation schemes; Compound Job, initial MDCI parallelization
   Dimitrios Manganas     : Further ROCIS development; embedding schemes
   Dimitrios Pantazis     : SARC Basis sets
   Anastasios Papadopoulos: AUTO-CI, single reference methods and gradients
   Taras Petrenko         : DFT Hessian,TD-DFT gradient, ASA, ECA, R-Raman, ABS, FL, XAS/XES, NRVS
   Peter Pinski           : DLPNO-MP2, DLPNO-MP2 Gradient
   Christoph Reimann      : Effective Core Potentials
   Marius Retegan         : Local ZFS, SOC
   Christoph Riplinger    : Optimizer, TS searches, QM/MM, DLPNO-CCSD(T), (RO)-DLPNO pert. Triples
   Tobias Risthaus        : Range-separated hybrids, TD-DFT gradient, RPA, STAB
   Michael Roemelt        : Original ROCIS implementation
   Masaaki Saitow         : Open-shell DLPNO-CCSD energy and density
   Barbara Sandhoefer     : DKH picture change effects
   Avijit Sen             : IP-ROCIS
   Kantharuban Sivalingam : CASSCF convergence, NEVPT2, FIC-MRCI
   Bernardo de Souza      : ESD, SOC TD-DFT
   Georgi Stoychev        : AutoAux, RI-MP2 NMR, DLPNO-MP2 response
   Willem Van den Heuvel  : Paramagnetic NMR
   Boris Wezisla          : Elementary symmetry handling
   Frank Wennmohs         : Technical directorship


 We gratefully acknowledge several colleagues who have allowed us to
 interface, adapt or use parts of their codes:
   Stefan Grimme, W. Hujo, H. Kruse, P. Pracht,  : VdW corrections, initial TS optimization,
                  C. Bannwarth, S. Ehlert          DFT functionals, gCP, sTDA/sTD-DF
   Ed Valeev, F. Pavosevic, A. Kumar             : LibInt (2-el integral package), F12 methods
   Garnet Chan, S. Sharma, J. Yang, R. Olivares  : DMRG
   Ulf Ekstrom                                   : XCFun DFT Library
   Mihaly Kallay                                 : mrcc  (arbitrary order and MRCC methods)
   Jiri Pittner, Ondrej Demel                    : Mk-CCSD
   Frank Weinhold                                : gennbo (NPA and NBO analysis)
   Christopher J. Cramer and Donald G. Truhlar   : smd solvation model
   Lars Goerigk                                  : TD-DFT with DH, B97 family of functionals
   V. Asgeirsson, H. Jonsson                     : NEB implementation
   FAccTs GmbH                                   : IRC, NEB, NEB-TS, DLPNO-Multilevel, CI-OPT
                                                   MM, QMMM, 2- and 3-layer-ONIOM, Crystal-QMMM,
                                                   LR-CPCM, SF, NACMEs, symmetry and pop. for TD-DFT,
                                                   nearIR, NL-DFT gradient (VV10), updates on ESD,
                                                   ML-optimized integration grids
   S Lehtola, MJT Oliveira, MAL Marques          : LibXC Library
   Liviu Ungur et al                             : ANISO software


 Your calculation uses the libint2 library for the computation of 2-el integrals
 For citations please refer to: http://libint.valeyev.net

 Your ORCA version has been built with support for libXC version: 5.1.0
 For citations please refer to: https://tddft.org/programs/libxc/

 This ORCA versions uses:
   CBLAS   interface :  Fast vector & matrix operations
   LAPACKE interface :  Fast linear algebra routines
   SCALAPACK package :  Parallel linear algebra routines
   Shared memory     :  Shared parallel matrices
   BLAS/LAPACK       :  OpenBLAS 0.3.15  USE64BITINT DYNAMIC_ARCH NO_AFFINITY SkylakeX SINGLE_THREADED
        Core in use  :  SkylakeX
   Copyright (c) 2011-2014, The OpenBLAS Project




***************************************
The coordinates will be read from file: capping.xyz
***************************************


================================================================================

----- Orbital basis set information -----
Your calculation utilizes the basis: cc-pVDZ 
       H, B-Ne : Obtained from the ccRepo (grant-hill.group.shef.ac.uk/ccrepo) Feb. 2017
                 T. H. Dunning, Jr., J. Chem. Phys. 90, 1007 (1989)
            He : Obtained from the ccRepo (grant-hill.group.shef.ac.uk/ccrepo) Feb. 2017
                 D. E. Woon, T. H. Dunning, Jr., J. Chem. Phys. 100, 2975 (1994)
  Li-Be, Na-Mg : Obtained from the ccRepo (grant-hill.group.shef.ac.uk/ccrepo) Feb. 2017
                 B. P. Prascher, D. E. Woon, K. A. Peterson, T. H. Dunning, Jr., A. K. Wilson, Theor. Chem. Acc. 128, 69 (2011)
         Al-Ar : Obtained from the ccRepo (grant-hill.group.shef.ac.uk/ccrepo) Feb. 2017
                 D. E. Woon, T. H. Dunning, Jr., J. Chem. Phys. 98, 1358 (1993)
            Ca : Obtained from the Peterson Research Group Website (tyr0.chem.wsu.edu/~kipeters) Feb. 2017
                 J. Koput, K. A. Peterson, J. Phys. Chem. 106, 9595 (2002)
         Sc-Zn : Obtained from the ccRepo (grant-hill.group.shef.ac.uk/ccrepo) Feb. 2017
                 N. B. Balabanov, K. A. Peterson, J. Chem. Phys. 123, 064107 (2005)
                 N. B. Balabanov, K. A. Peterson, J. Chem. Phys. 125, 074110 (2006)
         Ga-Kr : Obtained from the ccRepo (grant-hill.group.shef.ac.uk/ccrepo) Feb. 2017
                 A. K. Wilson, D. E. Woon, K. A. Peterson, T. H. Dunning, Jr., J. Chem. Phys. 110, 7667 (1999)

----- AuxJ basis set information -----
Your calculation utilizes the auxiliary basis: def2/J
   F. Weigend, Phys. Chem. Chem. Phys. 8, 1057 (2006).

================================================================================
                                        WARNINGS
                       Please study these warnings very carefully!
================================================================================


WARNING: Geometry Optimization
  ===> : Switching off AutoStart
         For restart on a previous wavefunction, please use MOREAD

INFO   : the flag for use of the SHARK integral package has been found!

================================================================================
                                       INPUT FILE
================================================================================
NAME = opt.inp
|  1> ! B3LYP cc-pVDZ OPT
|  2> %pal nprocs 16 end
|  3> *XYZFile 0 1 capping.xyz
|  4> 
|  5>                          ****END OF INPUT****
================================================================================

                       *****************************
                       * Geometry Optimization Run *
                       *****************************

Geometry optimization settings:
Update method            Update   .... BFGS
Choice of coordinates    CoordSys .... Z-matrix Internals
Initial Hessian          InHess   .... Almoef's Model

Convergence Tolerances:
Energy Change            TolE     ....  5.0000e-06 Eh
Max. Gradient            TolMAXG  ....  3.0000e-04 Eh/bohr
RMS Gradient             TolRMSG  ....  1.0000e-04 Eh/bohr
Max. Displacement        TolMAXD  ....  4.0000e-03 bohr
RMS Displacement         TolRMSD  ....  2.0000e-03 bohr
Strict Convergence                ....  False
------------------------------------------------------------------------------
                        ORCA OPTIMIZATION COORDINATE SETUP
------------------------------------------------------------------------------

The optimization will be done in new redundant internal coordinates
Making redundant internal coordinates   ...  (new redundants) done
Evaluating the initial hessian          ...  (Almloef) done
Evaluating the coordinates              ...  done
Calculating the B-matrix                .... done
Calculating the G-matrix                .... done
Diagonalizing the G-matrix              .... done
Small eigenvalue found = 8.642e-04
Small eigenvalue found = 3.868e-03
Small eigenvalue found = 4.029e-03
Small eigenvalue found = 9.045e-03
Small eigenvalue found = 1.219e-02
Small eigenvalue found = 1.529e-02
Small eigenvalue found = 1.713e-02
Small eigenvalue found = 2.613e-02
The first mode is                       ....  117
The number of degrees of freedom        ....  141

    -----------------------------------------------------------------
                    Redundant Internal Coordinates


    -----------------------------------------------------------------
         Definition                    Initial Value    Approx d2E/dq
    -----------------------------------------------------------------
      1. B(C   1,C   0)                  1.2311         1.120270   
      2. B(C   3,C   1)                  1.4703         0.465174   
      3. B(C   4,C   3)                  1.4232         0.553127   
      4. B(C   5,C   4)                  1.3929         0.618070   
      5. B(C   6,C   2)                  1.4603         0.482637   
      6. B(C   6,C   5)                  1.3732         0.664552   
      7. B(C   7,C   6)                  1.4231         0.553342   
      8. B(C   8,C   7)                  1.3929         0.618070   
      9. B(C   8,C   3)                  1.3731         0.664819   
     10. B(H   9,C   5)                  1.0930         0.356182   
     11. B(H  10,C   8)                  1.0845         0.367413   
     12. B(C  11,C   4)                  1.3783         0.652210   
     13. B(H  12,C  11)                  1.1109         0.333541   
     14. B(H  13,C  11)                  1.1227         0.319316   
     15. B(C  14,C  11)                  1.4964         0.422660   
     16. B(H  15,C  14)                  1.1147         0.328840   
     17. B(H  16,C  14)                  1.1151         0.328407   
     18. B(C  17,C  14)                  1.5027         0.412987   
     19. B(H  18,C  17)                  1.1186         0.324167   
     20. B(H  19,C  17)                  1.1066         0.338832   
     21. B(C  20,C  17)                  1.5133         0.397200   
     22. B(H  21,C  20)                  1.1156         0.327758   
     23. B(H  22,C  20)                  1.1194         0.323211   
     24. B(C  23,C   7)                  1.7323         0.177673   
     25. B(H  24,C  23)                  1.1113         0.332990   
     26. B(H  25,C  23)                  1.1194         0.323211   
     27. B(C  26,C  23)                  1.5085         0.404214   
     28. B(H  27,C  26)                  1.1039         0.342228   
     29. B(H  28,C  26)                  1.1233         0.318638   
     30. B(C  29,C  26)                  1.5111         0.400446   
     31. B(H  30,C  29)                  1.1194         0.323211   
     32. B(H  31,C  29)                  1.1233         0.318638   
     33. B(C  32,C  29)                  1.4044         0.592712   
     34. B(H  33,C  32)                  1.1633         0.275077   
     35. B(H  34,C  32)                  1.1500         0.288866   
     36. B(C  35,C  32)                  1.5232         0.383042   
     37. B(H  36,C  35)                  1.1147         0.328840   
     38. B(H  37,C  35)                  1.1151         0.328407   
     39. B(C  38,C  35)                  1.4865         0.438298   
     40. B(H  39,C  38)                  1.1149         0.328677   
     41. B(H  40,C  38)                  1.1269         0.314503   
     42. B(C  41,C  38)                  1.5066         0.407180   
     43. B(H  42,C  41)                  1.1200         0.322470   
     44. B(H  43,C  41)                  1.1105         0.333928   
     45. B(C  44,C   2)                  1.2104         1.208531   
     46. B(H  45,C   0)                  1.1156         0.327758   
     47. B(H  46,C  44)                  1.1156         0.327758   
     48. B(H  47,C  20)                  1.1156         0.327758   
     49. B(H  48,C  41)                  1.1156         0.327758   
     50. L(C   1,C   0,H  45, 1)       180.0000         0.384364   
     51. L(C   1,C   0,H  45, 2)       180.0000         0.384364   
     52. L(C   0,C   1,C   3,C   8, 2) 180.8994         0.458670   
     53. L(C   0,C   1,C   3,C   8, 1) 178.8420         0.458670   
     54. L(C   6,C   2,C  44,C   5, 2) 179.4120         0.468220   
     55. L(C   6,C   2,C  44,C   5, 1) 179.3603         0.468220   
     56. A(C   1,C   3,C   4)          125.8602         0.404095   
     57. A(C   1,C   3,C   8)          116.1416         0.417489   
     58. A(C   4,C   3,C   8)          117.9829         0.430621   
     59. A(C   3,C   4,C   5)          120.9795         0.425029   
     60. A(C   5,C   4,C  11)          134.2705         0.437798   
     61. A(C   3,C   4,C  11)          104.7159         0.429143   
     62. A(C   6,C   5,H   9)          120.0025         0.356424   
     63. A(C   4,C   5,H   9)          118.9612         0.352071   
     64. A(C   4,C   5,C   6)          121.0046         0.439281   
     65. A(C   5,C   6,C   7)          117.9827         0.430620   
     66. A(C   2,C   6,C   7)          125.4819         0.406762   
     67. A(C   2,C   6,C   5)          116.5338         0.420211   
     68. A(C   6,C   7,C   8)          120.9922         0.425059   
     69. A(C   6,C   7,C  23)           81.0388         0.342438   
     70. A(C   8,C   7,C  23)          157.0725         0.348864   
     71. A(C   3,C   8,H  10)          119.7302         0.358334   
     72. A(C   3,C   8,C   7)          121.0179         0.439313   
     73. A(C   7,C   8,H  10)          119.2520         0.353925   
     74. A(C   4,C  11,H  12)           86.5282         0.351362   
     75. A(H  13,C  11,C  14)          109.5939         0.324492   
     76. A(H  12,C  11,H  13)          109.1730         0.282045   
     77. A(C   4,C  11,H  13)           89.5150         0.348787   
     78. A(C   4,C  11,C  14)          147.7921         0.409050   
     79. A(H  12,C  11,C  14)          109.8192         0.326827   
     80. A(H  16,C  14,C  17)          110.5980         0.324754   
     81. A(H  15,C  14,C  17)          110.6342         0.324825   
     82. A(C  11,C  14,C  17)          108.4221         0.377603   
     83. A(H  15,C  14,H  16)          109.4207         0.282653   
     84. A(C  11,C  14,H  16)          109.2092         0.325993   
     85. A(C  11,C  14,H  15)          108.5115         0.326064   
     86. A(C  14,C  17,H  18)          109.8327         0.324062   
     87. A(H  19,C  17,C  20)          110.0823         0.324342   
     88. A(H  18,C  17,C  20)          110.3579         0.321997   
     89. A(C  14,C  17,C  20)          107.5603         0.373573   
     90. A(H  18,C  17,H  19)          108.8729         0.283397   
     91. A(C  14,C  17,H  19)          110.1275         0.326428   
     92. A(H  22,C  20,H  47)           91.7799         0.281811   
     93. A(H  21,C  20,H  47)           91.3890         0.282422   
     94. A(C  17,C  20,H  47)          143.9278         0.322579   
     95. A(H  21,C  20,H  22)          109.0396         0.281811   
     96. A(C  17,C  20,H  22)          108.5135         0.321842   
     97. A(C  17,C  20,H  21)          108.6935         0.322579   
     98. A(H  25,C  23,C  26)          109.2771         0.322766   
     99. A(H  24,C  23,C  26)          110.0808         0.324349   
    100. A(C   7,C  23,C  26)          121.4821         0.325050   
    101. A(H  24,C  23,H  25)          108.4644         0.282504   
    102. A(C   7,C  23,H  25)           97.2675         0.283080   
    103. A(C   7,C  23,H  24)          109.0716         0.284394   
    104. A(H  28,C  26,C  29)          109.4890         0.321520   
    105. A(H  27,C  26,C  29)          109.8210         0.325309   
    106. A(C  23,C  26,C  29)          109.4806         0.372716   
    107. A(H  27,C  26,H  28)          109.6468         0.283079   
    108. A(C  23,C  26,H  28)          109.7459         0.322013   
    109. A(C  23,C  26,H  27)          108.6423         0.325811   
    110. A(H  31,C  29,C  32)          108.6514         0.343100   
    111. A(H  30,C  29,C  32)          108.8839         0.343921   
    112. A(C  26,C  29,C  32)          111.5797         0.398391   
    113. A(H  30,C  29,H  31)          108.4908         0.280583   
    114. A(C  26,C  29,H  31)          109.4890         0.321520   
    115. A(C  26,C  29,H  30)          109.6852         0.322271   
    116. A(C  29,C  32,C  35)          111.8609         0.395295   
    117. A(H  33,C  32,H  34)          102.9762         0.269661   
    118. A(C  29,C  32,H  34)          114.3391         0.337521   
    119. A(C  29,C  32,H  33)          114.4929         0.334785   
    120. A(H  34,C  32,C  35)          106.3193         0.314139   
    121. A(H  33,C  32,C  35)          105.9962         0.311660   
    122. A(H  37,C  35,C  38)          109.1846         0.327950   
    123. A(H  36,C  35,C  38)          108.4786         0.328021   
    124. A(C  32,C  35,C  38)          112.1859         0.375071   
    125. A(H  36,C  35,H  37)          109.4207         0.282653   
    126. A(C  32,C  35,H  37)          108.7694         0.320772   
    127. A(C  32,C  35,H  36)          108.7685         0.320841   
    128. A(H  40,C  38,C  41)          109.3321         0.321710   
    129. A(H  39,C  38,C  41)          109.3822         0.324044   
    130. A(C  35,C  38,C  41)          109.2353         0.379055   
    131. A(H  39,C  38,H  40)          108.5903         0.280744   
    132. A(C  35,C  38,H  40)          110.0215         0.325622   
    133. A(C  35,C  38,H  39)          110.2611         0.327994   
    134. A(H  43,C  41,H  48)           88.7842         0.283240   
    135. A(H  42,C  41,H  48)           88.5429         0.281711   
    136. A(C  38,C  41,H  48)          144.8902         0.323895   
    137. A(H  42,C  41,H  43)          109.4068         0.282526   
    138. A(C  38,C  41,H  43)          110.4624         0.324888   
    139. A(C  38,C  41,H  42)          110.6508         0.323032   
    140. L(C   2,C  44,H  46, 2)       180.0000         0.389477   
    141. L(C   2,C  44,H  46, 1)       180.0000         0.389477   
    142. D(C   5,C   4,C   3,C   1)    179.6188         0.020938   
    143. D(C  11,C   4,C   3,C   1)     -2.2164         0.020938   
    144. D(C  11,C   4,C   3,C   8)    176.3011         0.020938   
    145. D(C   5,C   4,C   3,C   8)     -1.8638         0.020938   
    146. D(H   9,C   5,C   4,C  11)      2.8385         0.026424   
    147. D(C   6,C   5,C   4,C  11)   -175.1137         0.026424   
    148. D(H   9,C   5,C   4,C   3)   -179.6406         0.026424   
    149. D(C   6,C   5,C   4,C   3)      2.4071         0.026424   
    150. D(C   2,C   6,C   5,H   9)      0.6269         0.030848   
    151. D(C   7,C   6,C   5,H   9)   -179.8121         0.030848   
    152. D(C   2,C   6,C   5,C   4)    178.5580         0.030848   
    153. D(C   7,C   6,C   5,C   4)     -1.8810         0.030848   
    154. D(C   8,C   7,C   6,C   5)      0.9210         0.020955   
    155. D(C   8,C   7,C   6,C   2)   -179.5613         0.020955   
    156. D(C  23,C   7,C   6,C   2)     -6.3763         0.020955   
    157. D(C  23,C   7,C   6,C   5)    174.1060         0.020955   
    158. D(C   3,C   8,C   7,C  23)   -162.9512         0.026424   
    159. D(H  10,C   8,C   7,C  23)     17.0580         0.026424   
    160. D(C   7,C   8,C   3,C   4)      0.9045         0.030875   
    161. D(C   7,C   8,C   3,C   1)    179.5661         0.030875   
    162. D(H  10,C   8,C   7,C   6)    179.5470         0.026424   
    163. D(C   3,C   8,C   7,C   6)     -0.4622         0.026424   
    164. D(H  10,C   8,C   3,C   4)   -179.1047         0.030875   
    165. D(H  10,C   8,C   3,C   1)     -0.4431         0.030875   
    166. D(C  14,C  11,C   4,C   5)     -5.4541         0.032216   
    167. D(H  13,C  11,C   4,C   5)    122.5535         0.032216   
    168. D(C  14,C  11,C   4,C   3)    176.7433         0.032216   
    169. D(H  12,C  11,C   4,C   5)   -128.2050         0.032216   
    170. D(H  12,C  11,C   4,C   3)     53.9924         0.032216   
    171. D(H  13,C  11,C   4,C   3)    -55.2491         0.032216   
    172. D(H  15,C  14,C  11,C   4)    -55.6853         0.014130   
    173. D(C  17,C  14,C  11,H  12)    -59.0679         0.014130   
    174. D(C  17,C  14,C  11,C   4)   -175.8987         0.014130   
    175. D(H  16,C  14,C  11,H  13)    -59.7232         0.014130   
    176. D(H  16,C  14,C  11,H  12)   -179.6469         0.014130   
    177. D(H  16,C  14,C  11,C   4)     63.5222         0.014130   
    178. D(H  15,C  14,C  11,H  13)   -178.9308         0.014130   
    179. D(C  17,C  14,C  11,H  13)     60.8558         0.014130   
    180. D(H  15,C  14,C  11,H  12)     61.1456         0.014130   
    181. D(C  20,C  17,C  14,H  16)    -60.6905         0.013505   
    182. D(C  20,C  17,C  14,C  11)    179.5963         0.013505   
    183. D(H  19,C  17,C  14,H  16)    179.3388         0.013505   
    184. D(H  19,C  17,C  14,H  15)    -59.2563         0.013505   
    185. D(H  19,C  17,C  14,C  11)     59.6257         0.013505   
    186. D(H  18,C  17,C  14,H  16)     59.4438         0.013505   
    187. D(C  20,C  17,C  14,H  15)     60.7143         0.013505   
    188. D(H  18,C  17,C  14,H  15)   -179.1514         0.013505   
    189. D(H  18,C  17,C  14,C  11)    -60.2694         0.013505   
    190. D(H  47,C  20,C  17,H  19)    -60.0007         0.012524   
    191. D(H  47,C  20,C  17,H  18)     60.1989         0.012524   
    192. D(H  47,C  20,C  17,C  14)    180.0000         0.012524   
    193. D(H  22,C  20,C  17,H  19)     61.0169         0.012524   
    194. D(H  22,C  20,C  17,H  18)   -178.7835         0.012524   
    195. D(H  22,C  20,C  17,C  14)    -58.9824         0.012524   
    196. D(H  21,C  20,C  17,H  19)    179.4730         0.012524   
    197. D(H  21,C  20,C  17,H  18)    -60.3274         0.012524   
    198. D(H  21,C  20,C  17,C  14)     59.4737         0.012524   
    199. D(C  26,C  23,C   7,C   6)    174.5159         0.003329   
    200. D(H  25,C  23,C   7,C   8)   -138.5478         0.003329   
    201. D(H  25,C  23,C   7,C   6)     56.5887         0.003329   
    202. D(H  24,C  23,C   7,C   8)    108.9999         0.003329   
    203. D(C  26,C  23,C   7,C   8)    -20.6207         0.003329   
    204. D(H  24,C  23,C   7,C   6)    -55.8635         0.003329   
    205. D(C  29,C  26,C  23,H  25)    -59.8512         0.012954   
    206. D(C  29,C  26,C  23,C   7)   -171.6484         0.012954   
    207. D(H  28,C  26,C  23,H  25)    179.9522         0.012954   
    208. D(H  28,C  26,C  23,H  24)    -61.0288         0.012954   
    209. D(H  28,C  26,C  23,C   7)     68.1550         0.012954   
    210. D(H  27,C  26,C  23,H  25)     60.0776         0.012954   
    211. D(C  29,C  26,C  23,H  24)     59.1679         0.012954   
    212. D(H  27,C  26,C  23,H  24)    179.0967         0.012954   
    213. D(H  27,C  26,C  23,C   7)    -51.7196         0.012954   
    214. D(C  32,C  29,C  26,H  28)    -59.6824         0.012722   
    215. D(C  32,C  29,C  26,H  27)     60.7601         0.012722   
    216. D(C  32,C  29,C  26,C  23)    179.9641         0.012722   
    217. D(H  31,C  29,C  26,H  28)    180.0000         0.012722   
    218. D(H  31,C  29,C  26,H  27)    -59.5575         0.012722   
    219. D(H  31,C  29,C  26,C  23)     59.6466         0.012722   
    220. D(H  30,C  29,C  26,H  28)     61.0582         0.012722   
    221. D(H  30,C  29,C  26,H  27)   -178.4993         0.012722   
    222. D(H  30,C  29,C  26,C  23)    -59.2953         0.012722   
    223. D(C  35,C  32,C  29,H  31)    -58.7891         0.028230   
    224. D(C  35,C  32,C  29,H  30)     59.1953         0.028230   
    225. D(C  35,C  32,C  29,C  26)   -179.5970         0.028230   
    226. D(H  34,C  32,C  29,H  31)     62.1266         0.028230   
    227. D(H  34,C  32,C  29,H  30)   -179.8890         0.028230   
    228. D(H  34,C  32,C  29,C  26)    -58.6814         0.028230   
    229. D(H  33,C  32,C  29,H  31)   -179.3907         0.028230   
    230. D(H  33,C  32,C  29,H  30)    -61.4063         0.028230   
    231. D(H  33,C  32,C  29,C  26)     59.8014         0.028230   
    232. D(C  38,C  35,C  32,H  34)     54.1465         0.011684   
    233. D(C  38,C  35,C  32,H  33)    -54.9603         0.011684   
    234. D(C  38,C  35,C  32,C  29)    179.6095         0.011684   
    235. D(H  37,C  35,C  32,H  34)    175.0374         0.011684   
    236. D(H  37,C  35,C  32,H  33)     65.9306         0.011684   
    237. D(H  37,C  35,C  32,C  29)    -59.4995         0.011684   
    238. D(H  36,C  35,C  32,H  34)    -65.8597         0.011684   
    239. D(H  36,C  35,C  32,H  33)   -174.9666         0.011684   
    240. D(H  36,C  35,C  32,C  29)     59.6033         0.011684   
    241. D(C  41,C  38,C  35,H  37)     60.1966         0.015180   
    242. D(C  41,C  38,C  35,C  32)   -179.1523         0.015180   
    243. D(H  40,C  38,C  35,H  37)    -59.8244         0.015180   
    244. D(H  40,C  38,C  35,H  36)   -178.9985         0.015180   
    245. D(H  40,C  38,C  35,C  32)     60.8267         0.015180   
    246. D(H  39,C  38,C  35,H  37)   -179.5731         0.015180   
    247. D(C  41,C  38,C  35,H  36)    -58.9775         0.015180   
    248. D(H  39,C  38,C  35,H  36)     61.2527         0.015180   
    249. D(H  39,C  38,C  35,C  32)    -58.9221         0.015180   
    250. D(H  48,C  41,C  38,H  40)    -59.5560         0.013139   
    251. D(H  48,C  41,C  38,H  39)     59.2319         0.013139   
    252. D(H  48,C  41,C  38,C  35)   -180.0000         0.013139   
    253. D(H  43,C  41,C  38,H  40)   -178.9855         0.013139   
    254. D(H  43,C  41,C  38,H  39)    -60.1977         0.013139   
    255. D(H  43,C  41,C  38,C  35)     60.5705         0.013139   
    256. D(H  42,C  41,C  38,H  40)     59.7067         0.013139   
    257. D(H  42,C  41,C  38,H  39)    178.4946         0.013139   
    258. D(H  42,C  41,C  38,C  35)    -60.7373         0.013139   
    -----------------------------------------------------------------

Number of atoms                         .... 49
Number of degrees of freedom            .... 258

         *************************************************************
         *                GEOMETRY OPTIMIZATION CYCLE   1            *
         *************************************************************
---------------------------------
CARTESIAN COORDINATES (ANGSTROEM)
---------------------------------
  C      5.542877    0.000000   -0.000000
  C      4.505015    0.661241   -0.033183
  C     -0.518322    3.477822   -0.178646
  C      3.249904    1.425374   -0.084161
  C      3.138111    2.843777   -0.116322
  C      1.891960    3.463697   -0.172050
  C      0.733560    2.726647   -0.148203
  C      0.845162    1.308596   -0.106050
  C      2.091696    0.687971   -0.070306
  H      1.844709    4.555257   -0.201454
  H      2.143785   -0.394596   -0.031119
  C      4.436612    3.299211   -0.037481
  H      4.647268    2.646260   -0.911139
  H      4.576481    2.708198    0.906787
  C      5.370750    4.468217   -0.040826
  H      5.203348    5.052346   -0.975369
  H      5.154873    5.112881    0.843033
  C      6.780176    3.949988    0.014439
  H      6.928877    3.353601    0.949057
  H      6.982192    3.302058   -0.859562
  C      7.707283    5.145966   -0.000000
  H      7.477736    5.787011    0.883725
  H      7.517571    5.731498   -0.935020
  C     -0.872584    1.449378    0.068278
  H     -1.096910    2.098710    0.941803
  H     -1.062297    2.034909   -0.866741
  C     -1.765127    0.233312    0.084088
  H     -1.534161   -0.385430   -0.800396
  H     -1.580445   -0.360860    1.019316
  C     -3.211374    0.669108    0.041034
  H     -3.435891    1.318794    0.924551
  H     -3.396057    1.263280   -0.894194
  C     -4.083152   -0.431825    0.053180
  H     -3.984750   -1.114617    0.989883
  H     -3.931436   -1.166159   -0.818736
  C     -5.542877   -0.000000    0.000000
  H     -5.710279    0.584128   -0.934543
  H     -5.758754    0.644663    0.883859
  C     -6.471985   -1.160366    0.003137
  H     -6.266359   -1.821958   -0.870313
  H     -6.337146   -1.760019    0.947612
  C     -7.891089   -0.660122   -0.071695
  H     -8.129278   -0.014056    0.811687
  H     -8.049850   -0.081016   -1.005896
  C     -1.548963    4.111739   -0.210727
  H      6.483416   -0.599235    0.030071
  H     -2.498886    4.696009   -0.240295
  H      8.778584    5.456714    0.018719
  H     -8.964612   -0.961908   -0.104472

----------------------------
CARTESIAN COORDINATES (A.U.)
----------------------------
  NO LB      ZA    FRAG     MASS         X           Y           Z
   0 C     6.0000    0    12.011   10.474520    0.000000   -0.000000
   1 C     6.0000    0    12.011    8.513244    1.249565   -0.062706
   2 C     6.0000    0    12.011   -0.979486    6.572132   -0.337593
   3 C     6.0000    0    12.011    6.141429    2.693566   -0.159041
   4 C     6.0000    0    12.011    5.930171    5.373960   -0.219817
   5 C     6.0000    0    12.011    3.575286    6.545439   -0.325127
   6 C     6.0000    0    12.011    1.386228    5.152617   -0.280063
   7 C     6.0000    0    12.011    1.597125    2.472889   -0.200405
   8 C     6.0000    0    12.011    3.952733    1.300077   -0.132859
   9 H     1.0000    0     1.008    3.485995    8.608188   -0.380692
  10 H     1.0000    0     1.008    4.051167   -0.745677   -0.058806
  11 C     6.0000    0    12.011    8.383982    6.234605   -0.070828
  12 H     1.0000    0     1.008    8.782064    5.000706   -1.721803
  13 H     1.0000    0     1.008    8.648295    5.117753    1.713578
  14 C     6.0000    0    12.011   10.149246    8.443707   -0.077149
  15 H     1.0000    0     1.008    9.832903    9.547550   -1.843180
  16 H     1.0000    0     1.008    9.741298    9.661944    1.593102
  17 C     6.0000    0    12.011   12.812677    7.464395    0.027286
  18 H     1.0000    0     1.008   13.093680    6.337387    1.793458
  19 H     1.0000    0     1.008   13.194430    6.239986   -1.624336
  20 C     6.0000    0    12.011   14.564655    9.724467   -0.000000
  21 H     1.0000    0     1.008   14.130872   10.935866    1.669998
  22 H     1.0000    0     1.008   14.206150   10.830961   -1.766931
  23 C     6.0000    0    12.011   -1.648944    2.738927    0.129028
  24 H     1.0000    0     1.008   -2.072860    3.965988    1.779749
  25 H     1.0000    0     1.008   -2.007450    3.845421   -1.637903
  26 C     6.0000    0    12.011   -3.335608    0.440896    0.158903
  27 H     1.0000    0     1.008   -2.899144   -0.728357   -1.512530
  28 H     1.0000    0     1.008   -2.986607   -0.681927    1.926228
  29 C     6.0000    0    12.011   -6.068617    1.264432    0.077544
  30 H     1.0000    0     1.008   -6.492894    2.492159    1.747147
  31 H     1.0000    0     1.008   -6.417617    2.387254   -1.689782
  32 C     6.0000    0    12.011   -7.716039   -0.816032    0.100495
  33 H     1.0000    0     1.008   -7.530086   -2.106321    1.870607
  34 H     1.0000    0     1.008   -7.429336   -2.203721   -1.547186
  35 C     6.0000    0    12.011  -10.474520   -0.000000    0.000000
  36 H     1.0000    0     1.008  -10.790863    1.103842   -1.766031
  37 H     1.0000    0     1.008  -10.882469    1.218237    1.670251
  38 C     6.0000    0    12.011  -12.230279   -2.192774    0.005927
  39 H     1.0000    0     1.008  -11.841702   -3.443001   -1.644653
  40 H     1.0000    0     1.008  -11.975471   -3.325954    1.790728
  41 C     6.0000    0    12.011  -14.911997   -1.247450   -0.135484
  42 H     1.0000    0     1.008  -15.362109   -0.026561    1.533866
  43 H     1.0000    0     1.008  -15.212011   -0.153098   -1.900868
  44 C     6.0000    0    12.011   -2.927115    7.770061   -0.398216
  45 H     1.0000    0     1.008   12.251881   -1.132390    0.056826
  46 H     1.0000    0     1.008   -4.722210    8.874171   -0.454092
  47 H     1.0000    0     1.008   16.589120   10.311695    0.035373
  48 H     1.0000    0     1.008  -16.940662   -1.817742   -0.197423

--------------------------------
INTERNAL COORDINATES (ANGSTROEM)
--------------------------------
 C      0   0   0     0.000000000000     0.00000000     0.00000000
 C      1   0   0     1.231056450375     0.00000000     0.00000000
 C      2   1   0     5.760920069523   176.77696740     0.00000000
 C      2   1   3     1.470306089529   178.75135250   337.53844560
 C      4   2   1     1.423165489980   125.86020263   200.89290599
 C      5   4   2     1.392946519893   120.97949834   179.61875430
 C      6   5   4     1.373207912889   121.00463043     2.40712347
 C      7   6   5     1.423060079362   117.98269007   358.11902056
 C      4   2   1     1.373098687851   116.14164913    22.35129073
 H      6   5   4     1.092977592541   118.96115543   180.35939378
 H      9   4   2     1.084527556173   119.73017272   359.55689102
 C      5   4   2     1.378310923012   104.71592729   357.78360381
 H     12   5   4     1.110855519349    86.52818125    53.99241155
 H     12   5   4     1.122719915241    89.51495645   304.75093032
 C     12   5   4     1.496395667571   147.79207008   176.74329797
 H     15  12   5     1.114719694681   108.51145474   304.31471470
 H     15  12   5     1.115078476737   109.20922038    63.52223686
 C     15  12   5     1.502697575646   108.42207639   184.10125905
 H     18  15  12     1.118615214921   109.83267123   299.73062511
 H     18  15  12     1.106571287796   110.12745588    59.62566072
 C     18  15  12     1.513307635782   107.56029269   179.59628767
 H     21  18  15     1.115616420454   108.69349487    59.47367738
 H     21  18  15     1.119419494654   108.51346964   301.01757726
 C      8   7   6     1.732299345310    81.03875357   174.10596134
 H     24   8   7     1.111305540134   109.07160134   304.13649011
 H     24   8   7     1.119419486301    97.26753711    56.58873015
 C     24   8   7     1.508542341160   121.48205959   174.51589909
 H     27  24   8     1.103856870328   108.64227057   308.28044772
 H     27  24   8     1.123298721236   109.74588160    68.15496589
 C     27  24   8     1.511092316857   109.48058064   188.35157390
 H     30  27  24     1.119419488960   109.68517060   300.70473660
 H     30  27  24     1.123298712910   109.48902670    59.64656537
 C     30  27  24     1.404350380226   111.57972522   179.96412995
 H     33  30  27     1.163314232438   114.49288263    59.80137927
 H     33  30  27     1.150000005057   114.33905262   301.31860668
 C     33  30  27     1.523187442400   111.86091720   180.40299352
 H     36  33  30     1.114719694681   108.76850445    59.60330053
 H     36  33  30     1.115078476737   108.76936574   300.50045369
 C     36  33  30     1.486505972465   112.18586024   179.60954352
 H     39  36  33     1.114854257067   110.26112302   301.07793369
 H     39  36  33     1.126854036431   110.02149621    60.82667371
 C     39  36  33     1.506552350088   109.23531628   180.84766433
 H     42  39  36     1.120044648897   110.65080421   299.26271987
 H     42  39  36     1.110540406237   110.46243789    60.57045288
 C      3   2   1     1.210413149257   177.68451995   180.02937465
 H      1   2   4     1.115616424281   180.00000000     0.00000000
 H     45   3   7     1.115616428073   180.00000000     0.00000000
 H     21  18  15     1.115616419427   143.92777388   180.00000000
 H     42  39  36     1.115616415052   144.89019201   180.00000000

---------------------------
INTERNAL COORDINATES (A.U.)
---------------------------
 C      0   0   0     0.000000000000     0.00000000     0.00000000
 C      1   0   0     2.326359546606     0.00000000     0.00000000
 C      2   1   0    10.886561210809   176.77696740     0.00000000
 C      2   1   3     2.778475842246   178.75135250   337.53844560
 C      4   2   1     2.689393019311   125.86020263   200.89290599
 C      5   4   2     2.632287441797   120.97949834   179.61875430
 C      6   5   4     2.594986880293   121.00463043     2.40712347
 C      7   6   5     2.689193822111   117.98269007   358.11902056
 C      4   2   1     2.594780474885   116.14164913    22.35129073
 H      6   5   4     2.065428320415   118.96115543   180.35939378
 H      9   4   2     2.049460065857   119.73017272   359.55689102
 C      5   4   2     2.604630171886   104.71592729   357.78360381
 H     12   5   4     2.099212705925    86.52818125    53.99241155
 H     12   5   4     2.121633164905    89.51495645   304.75093032
 C     12   5   4     2.827777999695   147.79207008   176.74329797
 H     15  12   5     2.106514939035   108.51145474   304.31471470
 H     15  12   5     2.107192938864   109.20922038    63.52223686
 C     15  12   5     2.839686880078   108.42207639   184.10125905
 H     18  15  12     2.113876405438   109.83267123   299.73062511
 H     18  15  12     2.091116681595   110.12745588    59.62566072
 C     18  15  12     2.859736987999   107.56029269   179.59628767
 H     21  18  15     2.108209505163   108.69349487    59.47367738
 H     21  18  15     2.115396273868   108.51346964   301.01757726
 C      8   7   6     3.273571344606    81.03875357   174.10596134
 H     24   8   7     2.100063121963   109.07160134   304.13649011
 H     24   8   7     2.115396258084    97.26753711    56.58873015
 C     24   8   7     2.850731886217   121.48205959   174.51589909
 H     27  24   8     2.085987175968   108.64227057   308.28044772
 H     27  24   8     2.122726949719   109.74588160    68.15496589
 C     27  24   8     2.855550641933   109.48058064   188.35157390
 H     30  27  24     2.115396263108   109.68517060   300.70473660
 H     30  27  24     2.122726933986   109.48902670    59.64656537
 C     30  27  24     2.653837614695   111.57972522   179.96412995
 H     33  30  27     2.198345307001   114.49288263    59.80137927
 H     33  30  27     2.173185063566   114.33905262   301.31860668
 C     33  30  27     2.878407116763   111.86091720   180.40299352
 H     36  33  30     2.106514939035   108.76850445    59.60330053
 H     36  33  30     2.107192938864   108.76936574   300.50045369
 C     36  33  30     2.809089184397   112.18586024   179.60954352
 H     39  36  33     2.106769225093   110.26112302   301.07793369
 H     39  36  33     2.129445521759   110.02149621    60.82667371
 C     39  36  33     2.846971348081   109.23531628   180.84766433
 H     42  39  36     2.116577644179   110.65080421   299.26271987
 H     42  39  36     2.098617228441   110.46243789    60.57045288
 C      3   2   1     2.287349360994   177.68451995   180.02937465
 H      1   2   4     2.108209512396   180.00000000     0.00000000
 H     45   3   7     2.108209519562   180.00000000     0.00000000
 H     21  18  15     2.108209503222   143.92777388   180.00000000
 H     42  39  36     2.108209494955   144.89019201   180.00000000

---------------------
BASIS SET INFORMATION
---------------------
There are 2 groups of distinct atoms

 Group   1 Type C   : 17s4p1d contracted to 3s2p1d pattern {881/31/1}
 Group   2 Type H   : 4s1p contracted to 2s1p pattern {31/1}

Atom   0C    basis set group =>   1
Atom   1C    basis set group =>   1
Atom   2C    basis set group =>   1
Atom   3C    basis set group =>   1
Atom   4C    basis set group =>   1
Atom   5C    basis set group =>   1
Atom   6C    basis set group =>   1
Atom   7C    basis set group =>   1
Atom   8C    basis set group =>   1
Atom   9H    basis set group =>   2
Atom  10H    basis set group =>   2
Atom  11C    basis set group =>   1
Atom  12H    basis set group =>   2
Atom  13H    basis set group =>   2
Atom  14C    basis set group =>   1
Atom  15H    basis set group =>   2
Atom  16H    basis set group =>   2
Atom  17C    basis set group =>   1
Atom  18H    basis set group =>   2
Atom  19H    basis set group =>   2
Atom  20C    basis set group =>   1
Atom  21H    basis set group =>   2
Atom  22H    basis set group =>   2
Atom  23C    basis set group =>   1
Atom  24H    basis set group =>   2
Atom  25H    basis set group =>   2
Atom  26C    basis set group =>   1
Atom  27H    basis set group =>   2
Atom  28H    basis set group =>   2
Atom  29C    basis set group =>   1
Atom  30H    basis set group =>   2
Atom  31H    basis set group =>   2
Atom  32C    basis set group =>   1
Atom  33H    basis set group =>   2
Atom  34H    basis set group =>   2
Atom  35C    basis set group =>   1
Atom  36H    basis set group =>   2
Atom  37H    basis set group =>   2
Atom  38C    basis set group =>   1
Atom  39H    basis set group =>   2
Atom  40H    basis set group =>   2
Atom  41C    basis set group =>   1
Atom  42H    basis set group =>   2
Atom  43H    basis set group =>   2
Atom  44C    basis set group =>   1
Atom  45H    basis set group =>   2
Atom  46H    basis set group =>   2
Atom  47H    basis set group =>   2
Atom  48H    basis set group =>   2
---------------------------------
AUXILIARY/J BASIS SET INFORMATION
---------------------------------
There are 2 groups of distinct atoms

 Group   1 Type C   : 12s5p4d2f1g contracted to 6s4p3d1f1g pattern {711111/2111/211/2/1}
 Group   2 Type H   : 5s2p1d contracted to 3s1p1d pattern {311/2/1}

Atom   0C    basis set group =>   1
Atom   1C    basis set group =>   1
Atom   2C    basis set group =>   1
Atom   3C    basis set group =>   1
Atom   4C    basis set group =>   1
Atom   5C    basis set group =>   1
Atom   6C    basis set group =>   1
Atom   7C    basis set group =>   1
Atom   8C    basis set group =>   1
Atom   9H    basis set group =>   2
Atom  10H    basis set group =>   2
Atom  11C    basis set group =>   1
Atom  12H    basis set group =>   2
Atom  13H    basis set group =>   2
Atom  14C    basis set group =>   1
Atom  15H    basis set group =>   2
Atom  16H    basis set group =>   2
Atom  17C    basis set group =>   1
Atom  18H    basis set group =>   2
Atom  19H    basis set group =>   2
Atom  20C    basis set group =>   1
Atom  21H    basis set group =>   2
Atom  22H    basis set group =>   2
Atom  23C    basis set group =>   1
Atom  24H    basis set group =>   2
Atom  25H    basis set group =>   2
Atom  26C    basis set group =>   1
Atom  27H    basis set group =>   2
Atom  28H    basis set group =>   2
Atom  29C    basis set group =>   1
Atom  30H    basis set group =>   2
Atom  31H    basis set group =>   2
Atom  32C    basis set group =>   1
Atom  33H    basis set group =>   2
Atom  34H    basis set group =>   2
Atom  35C    basis set group =>   1
Atom  36H    basis set group =>   2
Atom  37H    basis set group =>   2
Atom  38C    basis set group =>   1
Atom  39H    basis set group =>   2
Atom  40H    basis set group =>   2
Atom  41C    basis set group =>   1
Atom  42H    basis set group =>   2
Atom  43H    basis set group =>   2
Atom  44C    basis set group =>   1
Atom  45H    basis set group =>   2
Atom  46H    basis set group =>   2
Atom  47H    basis set group =>   2
Atom  48H    basis set group =>   2


           ************************************************************
           *        Program running with 16 parallel MPI-processes    *
           *              working on a common directory               *
           ************************************************************
------------------------------------------------------------------------------
                           ORCA GTO INTEGRAL CALCULATION
                           -- RI-GTO INTEGRALS CHOSEN --
------------------------------------------------------------------------------
------------------------------------------------------------------------------
                   ___                                                        
                  /   \      - P O W E R E D   B Y -                         
                 /     \                                                     
                 |  |  |   _    _      __       _____    __    __             
                 |  |  |  | |  | |    /  \     |  _  \  |  |  /  |          
                  \  \/   | |  | |   /    \    | | | |  |  | /  /          
                 / \  \   | |__| |  /  /\  \   | |_| |  |  |/  /          
                |  |  |   |  __  | /  /__\  \  |    /   |      \           
                |  |  |   | |  | | |   __   |  |    \   |  |\   \          
                \     /   | |  | | |  |  |  |  | |\  \  |  | \   \       
                 \___/    |_|  |_| |__|  |__|  |_| \__\ |__|  \__/        
                                                                              
                      - O R C A' S   B I G   F R I E N D -                    
                                      &                                       
                       - I N T E G R A L  F E E D E R -                       
                                                                              
 v1 FN, 2020, v2 2021                                                         
------------------------------------------------------------------------------


Reading SHARK input file opt.SHARKINP.tmp ... ok
----------------------
SHARK INTEGRAL PACKAGE
----------------------

Number of atoms                             ...     49
Number of basis functions                   ...    560
Number of shells                            ...    336
Maximum angular momentum                    ...      2
Integral batch strategy                     ... SHARK/LIBINT Hybrid
RI-J (if used) integral strategy            ... SPLIT-RIJ (Revised 2003 algorithm where possible)
Printlevel                                  ...      1
Contraction scheme used                     ... PARTIAL GENERAL contraction
Coulomb Range Separation                    ... NOT USED
Exchange Range Separation                   ... NOT USED
Finite Nucleus Model                        ... NOT USED
Auxiliary Coulomb fitting basis             ... AVAILABLE
   # of basis functions in Aux-J            ...   1337
   # of shells in Aux-J                     ...    455
   Maximum angular momentum in Aux-J        ...      4
Auxiliary J/K fitting basis                 ... NOT available
Auxiliary Correlation fitting basis         ... NOT available
Auxiliary 'external' fitting basis          ... NOT available
Integral threshold                          ...     2.500000e-11
Primitive cut-off                           ...     2.500000e-12
Primitive pair pre-selection threshold      ...     2.500000e-12

Calculating pre-screening integrals         ... done (  0.0 sec) Dimension = 336
Calculating pre-screening integrals (ORCA)  ... done (  0.1 sec) Dimension = 210
Organizing shell pair data                  ... done (  0.1 sec)
Shell pair information
Total number of shell pairs                 ...     56616
Shell pairs after pre-screening             ...     24185
Total number of primitive shell pairs       ...     94542
Primitive shell pairs kept                  ...     34001
          la=0 lb=0:  10815 shell pairs
          la=1 lb=0:   8430 shell pairs
          la=1 lb=1:   1485 shell pairs
          la=2 lb=0:   2460 shell pairs
          la=2 lb=1:    853 shell pairs
          la=2 lb=2:    142 shell pairs

Calculating one electron integrals          ... done (  0.0 sec)
Calculating RI/J V-Matrix + Cholesky decomp.... done (  0.3 sec)
Calculating Nuclear repulsion               ... done (  0.0 sec) ENN=   1482.257238706549 Eh

SHARK setup successfully completed in   1.3 seconds

Maximum memory used throughout the entire GTOINT-calculation: 35.0 MB


           ************************************************************
           *        Program running with 16 parallel MPI-processes    *
           *              working on a common directory               *
           ************************************************************
-------------------------------------------------------------------------------
                                 ORCA SCF
-------------------------------------------------------------------------------

------------
SCF SETTINGS
------------
Hamiltonian:
 Density Functional     Method          .... DFT(GTOs)
 Exchange Functional    Exchange        .... B88
   X-Alpha parameter    XAlpha          ....  0.666667
   Becke's b parameter  XBeta           ....  0.004200
 Correlation Functional Correlation     .... LYP
 LDA part of GGA corr.  LDAOpt          .... VWN-5
 Gradients option       PostSCFGGA      .... off
 Hybrid DFT is turned on
   Fraction HF Exchange ScalHFX         ....  0.200000
   Scaling of DF-GGA-X  ScalDFX         ....  0.720000
   Scaling of DF-GGA-C  ScalDFC         ....  0.810000
   Scaling of DF-LDA-C  ScalLDAC        ....  1.000000
   Perturbative correction              ....  0.000000
   Density functional embedding theory  .... OFF
   NL short-range parameter             ....  4.800000
 RI-approximation to the Coulomb term is turned on
   Number of AuxJ basis functions       .... 1337
   RIJ-COSX (HFX calculated with COS-X)).... on


General Settings:
 Integral files         IntName         .... opt
 Hartree-Fock type      HFTyp           .... RHF
 Total Charge           Charge          ....    0
 Multiplicity           Mult            ....    1
 Number of Electrons    NEL             ....  154
 Basis Dimension        Dim             ....  434
 Nuclear Repulsion      ENuc            ....   1482.2572387065 Eh

Convergence Acceleration:
 DIIS                   CNVDIIS         .... on
   Start iteration      DIISMaxIt       ....    12
   Startup error        DIISStart       ....  0.200000
   # of expansion vecs  DIISMaxEq       ....     5
   Bias factor          DIISBfac        ....   1.050
   Max. coefficient     DIISMaxC        ....  10.000
 Trust-Rad. Augm. Hess. CNVTRAH         .... auto
   Auto Start mean grad. ratio tolernc. ....  1.125000
   Auto Start start iteration           ....    20
   Auto Start num. interpolation iter.  ....    10
   Max. Number of Micro iterations      ....    16
   Max. Number of Macro iterations      .... Maxiter - #DIIS iter
   Number of Davidson start vectors     ....     2
   Converg. threshold I  (grad. norm)   ....   1.000e-05
   Converg. threshold II (energy diff.) ....   1.000e-08
   Grad. Scal. Fac. for Micro threshold ....   0.100
   Minimum threshold for Micro iter.    ....   0.010
   NR start threshold (gradient norm)   ....   0.001
   Initial trust radius                 ....   0.400
   Minimum AH scaling param. (alpha)    ....   1.000
   Maximum AH scaling param. (alpha)    .... 1000.000
   Orbital update algorithm             .... Taylor
   White noise on init. David. guess    .... on
   Maximum white noise                  ....   0.010
   Quad. conv. algorithm                .... NR
 SOSCF                  CNVSOSCF        .... on
   Start iteration      SOSCFMaxIt      ....   150
   Startup grad/error   SOSCFStart      ....  0.003300
 Level Shifting         CNVShift        .... on
   Level shift para.    LevelShift      ....    0.2500
   Turn off err/grad.   ShiftErr        ....    0.0010
 Zerner damping         CNVZerner       .... off
 Static damping         CNVDamp         .... on
   Fraction old density DampFac         ....    0.7000
   Max. Damping (<1)    DampMax         ....    0.9800
   Min. Damping (>=0)   DampMin         ....    0.0000
   Turn off err/grad.   DampErr         ....    0.1000
 Fernandez-Rico         CNVRico         .... off

SCF Procedure:
 Maximum # iterations   MaxIter         ....   125
 SCF integral mode      SCFMode         .... Direct
   Integral package                     .... SHARK and LIBINT hybrid scheme
 Reset frequency        DirectResetFreq ....    20
 Integral Threshold     Thresh          ....  2.500e-11 Eh
 Primitive CutOff       TCut            ....  2.500e-12 Eh

Convergence Tolerance:
 Convergence Check Mode ConvCheckMode   .... Total+1el-Energy
 Convergence forced     ConvForced      .... 0
 Energy Change          TolE            ....  1.000e-08 Eh
 1-El. energy change                    ....  1.000e-05 Eh
 Orbital Gradient       TolG            ....  1.000e-05
 Orbital Rotation angle TolX            ....  1.000e-05
 DIIS Error             TolErr          ....  5.000e-07


Diagonalization of the overlap matrix:
Smallest eigenvalue                        ... 1.157e-04
Time for diagonalization                   ...    0.085 sec
Threshold for overlap eigenvalues          ... 1.000e-08
Number of eigenvalues below threshold      ... 0
Time for construction of square roots      ...    0.039 sec
Total time needed                          ...    0.125 sec

Time for model grid setup =    0.359 sec

------------------------------
INITIAL GUESS: MODEL POTENTIAL
------------------------------
Loading Hartree-Fock densities                     ... done
Calculating cut-offs                               ... done
Initializing the effective Hamiltonian             ... done
Setting up the integral package (SHARK)            ... done
Starting the Coulomb interaction                   ... done (   0.3 sec)
Reading the grid                                   ... done
Mapping shells                                     ... done
Starting the XC term evaluation                    ... done (   0.2 sec)
  promolecular density results
     # of electrons  =    153.958591082
     EX              =   -116.293061267
     EC              =     -5.039810414
     EX+EC           =   -121.332871681
Transforming the Hamiltonian                       ... done (   0.0 sec)
Diagonalizing the Hamiltonian                      ... done (   0.0 sec)
Back transforming the eigenvectors                 ... done (   0.0 sec)
Now organizing SCF variables                       ... done
                      ------------------
                      INITIAL GUESS DONE (   1.1 sec)
                      ------------------
-------------------
DFT GRID GENERATION
-------------------

General Integration Accuracy     IntAcc      ... 4.388
Radial Grid Type                 RadialGrid  ... OptM3 with GC (2021)
Angular Grid (max. ang.)         AngularGrid ... 4 (Lebedev-302)
Angular grid pruning method      GridPruning ... 4 (adaptive)
Weight generation scheme         WeightScheme... Becke
Basis function cutoff            BFCut       ... 1.0000e-11
Integration weight cutoff        WCut        ... 1.0000e-14
Angular grids for H and He will be reduced by one unit
Partially contracted basis set               ... off
Rotationally invariant grid construction     ... off

Total number of grid points                  ...   214261
Total number of batches                      ...     3373
Average number of points per batch           ...       63
Average number of grid points per atom       ...     4373
Time for grid setup =    1.217 sec

--------------------
COSX GRID GENERATION
--------------------

GRIDX 1
-------
General Integration Accuracy     IntAcc      ... 3.816
Radial Grid Type                 RadialGrid  ... OptM3 with GC (2021)
Angular Grid (max. ang.)         AngularGrid ... 1 (Lebedev-50)
Angular grid pruning method      GridPruning ... 4 (adaptive)
Weight generation scheme         WeightScheme... Becke
Basis function cutoff            BFCut       ... 1.0000e-11
Integration weight cutoff        WCut        ... 1.0000e-14
Angular grids for H and He will be reduced by one unit
Partially contracted basis set               ... on
Rotationally invariant grid construction     ... off

Total number of grid points                  ...    27358
Total number of batches                      ...      455
Average number of points per batch           ...       60
Average number of grid points per atom       ...      558
UseSFitting                                  ... on

GRIDX 2
-------
General Integration Accuracy     IntAcc      ... 4.020
Radial Grid Type                 RadialGrid  ... OptM3 with GC (2021)
Angular Grid (max. ang.)         AngularGrid ... 2 (Lebedev-110)
Angular grid pruning method      GridPruning ... 4 (adaptive)
Weight generation scheme         WeightScheme... Becke
Basis function cutoff            BFCut       ... 1.0000e-11
Integration weight cutoff        WCut        ... 1.0000e-14
Angular grids for H and He will be reduced by one unit
Partially contracted basis set               ... on
Rotationally invariant grid construction     ... off

Total number of grid points                  ...    57561
Total number of batches                      ...      928
Average number of points per batch           ...       62
Average number of grid points per atom       ...     1175
UseSFitting                                  ... on

GRIDX 3
-------
General Integration Accuracy     IntAcc      ... 4.338
Radial Grid Type                 RadialGrid  ... OptM3 with GC (2021)
Angular Grid (max. ang.)         AngularGrid ... 3 (Lebedev-194)
Angular grid pruning method      GridPruning ... 4 (adaptive)
Weight generation scheme         WeightScheme... Becke
Basis function cutoff            BFCut       ... 1.0000e-11
Integration weight cutoff        WCut        ... 1.0000e-14
Angular grids for H and He will be reduced by one unit
Partially contracted basis set               ... on
Rotationally invariant grid construction     ... off

Total number of grid points                  ...   125231
Total number of batches                      ...     1983
Average number of points per batch           ...       63
Average number of grid points per atom       ...     2556
UseSFitting                                  ... on

Time for X-Grid setup             =    2.224 sec

 re-compute Schwartz prescreening matrix in partically contracted basis (1) ...done (   0.343 sec)
--------------
SCF ITERATIONS
--------------
ITER       Energy         Delta-E        Max-DP      RMS-DP      [F,P]     Damp
               ***  Starting incremental Fock matrix formation  ***
  0   -815.5255426757   0.000000000000 0.15206249  0.00202533  0.1771823 0.7000
  1   -815.7981391439  -0.272596468218 0.11359761  0.00147781  0.0911569 0.7000
                               ***Turning on DIIS***
  2   -815.9144245983  -0.116285454462 0.22629256  0.00279967  0.0363182 0.0000
  3   -816.0742128026  -0.159788204259 0.04051012  0.00074095  0.0520767 0.0000
  4   -816.1210121577  -0.046799355065 0.02138611  0.00027375  0.0139480 0.0000
  5   -816.1237510452  -0.002738887582 0.00364055  0.00007756  0.0035525 0.0000
                      *** Initiating the SOSCF procedure ***
                           *** Shutting down DIIS ***
                      *** Re-Reading the Fockian *** 
                      *** Removing any level shift *** 
ITER      Energy       Delta-E        Grad      Rot      Max-DP    RMS-DP
  6   -816.12396962  -0.0002185782  0.000328  0.000328  0.001425  0.000029
               *** Restarting incremental Fock matrix formation ***
  7   -816.12404883  -0.0000792107  0.000165  0.000595  0.000981  0.000024
  8   -816.12404815   0.0000006859  0.000333  0.000605  0.000667  0.000010
  9   -816.12405142  -0.0000032744  0.000136  0.000303  0.000591  0.000010
 10   -816.12405154  -0.0000001192  0.000096  0.000126  0.000331  0.000004
 11   -816.12405207  -0.0000005310  0.000021  0.000113  0.000090  0.000002
 12   -816.12405205   0.0000000241  0.000034  0.000072  0.000054  0.000001
 13   -816.12405209  -0.0000000429  0.000003  0.000010  0.000023  0.000000
 14   -816.12405210  -0.0000000122  0.000005  0.000007  0.000014  0.000000
                  ***Gradient check signals convergence***
              ***Rediagonalizing the Fockian in SOSCF/NRSCF***

               *****************************************************
               *                     SUCCESS                       *
               *           SCF CONVERGED AFTER  15 CYCLES          *
               *****************************************************

Old exchange energy                            =    -23.750509319 Eh
New exchange energy                            =    -23.750509393 Eh
Exchange energy change after final integration =     -0.000000074 Eh
Total energy after final integration           =   -816.124052171 Eh
Final COS-X integration done in                =     6.043 sec

----------------
TOTAL SCF ENERGY
----------------

Total Energy       :         -816.12405217 Eh          -22207.86449 eV

Components:
Nuclear Repulsion  :         1482.25723871 Eh           40334.27002 eV
Electronic Energy  :        -2298.38129088 Eh          -62542.13451 eV
One Electron Energy:        -4043.18990768 Eh         -110020.79074 eV
Two Electron Energy:         1744.80861680 Eh           47478.65623 eV
Max COSX asymmetry :            0.00000251 Eh               0.00007 eV

Virial components:
Potential Energy   :        -1627.48987366 Eh          -44286.25093 eV
Kinetic Energy     :          811.36582149 Eh           22078.38645 eV
Virial Ratio       :            2.00586447


DFT components:
N(Alpha)           :       77.000080368832 electrons
N(Beta)            :       77.000080368832 electrons
N(Total)           :      154.000160737663 electrons
E(X)               :      -94.176334826043 Eh       
E(C)               :       -5.954935097283 Eh       
E(XC)              :     -100.131269923326 Eh       
DFET-embed. en.    :        0.000000000000 Eh       

---------------
SCF CONVERGENCE
---------------

  Last Energy change         ...    6.8992e-09  Tolerance :   1.0000e-08
  Last MAX-Density change    ...    7.1054e-15  Tolerance :   1.0000e-07
  Last RMS-Density change    ...    4.5587e-17  Tolerance :   5.0000e-09
  Last Orbital Gradient      ...    1.9224e-06  Tolerance :   1.0000e-05
  Last Orbital Rotation      ...    6.1614e-06  Tolerance :   1.0000e-05

             **** THE GBW FILE WAS UPDATED (opt.gbw) ****
             **** DENSITY opt.scfp WAS UPDATED ****
             **** ENERGY FILE WAS UPDATED (opt.en.tmp) ****
             **** THE GBW FILE WAS UPDATED (opt.gbw) ****
             **** DENSITY opt.scfp WAS UPDATED ****
----------------
ORBITAL ENERGIES
----------------

  NO   OCC          E(Eh)            E(eV) 
   0   2.0000     -10.207411      -277.7578 
   1   2.0000     -10.203052      -277.6392 
   2   2.0000     -10.202459      -277.6230 
   3   2.0000     -10.201848      -277.6064 
   4   2.0000     -10.197480      -277.4875 
   5   2.0000     -10.196733      -277.4672 
   6   2.0000     -10.196450      -277.4595 
   7   2.0000     -10.195922      -277.4451 
   8   2.0000     -10.193616      -277.3824 
   9   2.0000     -10.188527      -277.2439 
  10   2.0000     -10.187644      -277.2199 
  11   2.0000     -10.184246      -277.1274 
  12   2.0000     -10.179518      -276.9988 
  13   2.0000     -10.176444      -276.9151 
  14   2.0000     -10.175180      -276.8807 
  15   2.0000     -10.175140      -276.8796 
  16   2.0000     -10.173464      -276.8340 
  17   2.0000     -10.173051      -276.8228 
  18   2.0000     -10.172268      -276.8015 
  19   2.0000     -10.171657      -276.7848 
  20   2.0000     -10.169756      -276.7331 
  21   2.0000      -0.893037       -24.3008 
  22   2.0000      -0.850041       -23.1308 
  23   2.0000      -0.824256       -22.4291 
  24   2.0000      -0.806290       -21.9403 
  25   2.0000      -0.783788       -21.3280 
  26   2.0000      -0.775337       -21.0980 
  27   2.0000      -0.761167       -20.7124 
  28   2.0000      -0.736105       -20.0304 
  29   2.0000      -0.725544       -19.7430 
  30   2.0000      -0.704991       -19.1838 
  31   2.0000      -0.680264       -18.5109 
  32   2.0000      -0.650655       -17.7052 
  33   2.0000      -0.639285       -17.3958 
  34   2.0000      -0.603061       -16.4101 
  35   2.0000      -0.592636       -16.1264 
  36   2.0000      -0.574311       -15.6278 
  37   2.0000      -0.566071       -15.4036 
  38   2.0000      -0.564005       -15.3473 
  39   2.0000      -0.540123       -14.6975 
  40   2.0000      -0.508839       -13.8462 
  41   2.0000      -0.493648       -13.4328 
  42   2.0000      -0.491509       -13.3746 
  43   2.0000      -0.486035       -13.2257 
  44   2.0000      -0.480759       -13.0821 
  45   2.0000      -0.477731       -12.9997 
  46   2.0000      -0.464883       -12.6501 
  47   2.0000      -0.444381       -12.0922 
  48   2.0000      -0.436038       -11.8652 
  49   2.0000      -0.432432       -11.7671 
  50   2.0000      -0.428877       -11.6703 
  51   2.0000      -0.426329       -11.6010 
  52   2.0000      -0.420349       -11.4383 
  53   2.0000      -0.401864       -10.9353 
  54   2.0000      -0.389764       -10.6060 
  55   2.0000      -0.387916       -10.5557 
  56   2.0000      -0.380883       -10.3643 
  57   2.0000      -0.376235       -10.2379 
  58   2.0000      -0.361127        -9.8268 
  59   2.0000      -0.352313        -9.5869 
  60   2.0000      -0.351453        -9.5635 
  61   2.0000      -0.348200        -9.4750 
  62   2.0000      -0.335716        -9.1353 
  63   2.0000      -0.326393        -8.8816 
  64   2.0000      -0.321893        -8.7591 
  65   2.0000      -0.320740        -8.7278 
  66   2.0000      -0.309633        -8.4255 
  67   2.0000      -0.309357        -8.4180 
  68   2.0000      -0.307732        -8.3738 
  69   2.0000      -0.302198        -8.2232 
  70   2.0000      -0.292841        -7.9686 
  71   2.0000      -0.280337        -7.6283 
  72   2.0000      -0.272623        -7.4185 
  73   2.0000      -0.263909        -7.1813 
  74   2.0000      -0.239348        -6.5130 
  75   2.0000      -0.233151        -6.3443 
  76   2.0000      -0.212738        -5.7889 
  77   0.0000      -0.052849        -1.4381 
  78   0.0000       0.005778         0.1572 
  79   0.0000       0.029265         0.7963 
  80   0.0000       0.038055         1.0355 
  81   0.0000       0.039164         1.0657 
  82   0.0000       0.053485         1.4554 
  83   0.0000       0.061389         1.6705 
  84   0.0000       0.069377         1.8878 
  85   0.0000       0.071625         1.9490 
  86   0.0000       0.074119         2.0169 
  87   0.0000       0.078484         2.1357 
  88   0.0000       0.079669         2.1679 
  89   0.0000       0.087000         2.3674 
  90   0.0000       0.088508         2.4084 
  91   0.0000       0.089092         2.4243 
  92   0.0000       0.095304         2.5934 
  93   0.0000       0.096278         2.6199 
  94   0.0000       0.103027         2.8035 
  95   0.0000       0.109049         2.9674 
  96   0.0000       0.110738         3.0133 
  97   0.0000       0.112129         3.0512 
  98   0.0000       0.114788         3.1236 
  99   0.0000       0.130338         3.5467 
 100   0.0000       0.134355         3.6560 
 101   0.0000       0.153509         4.1772 
 102   0.0000       0.158480         4.3125 
 103   0.0000       0.158745         4.3197 
 104   0.0000       0.164240         4.4692 
 105   0.0000       0.165675         4.5082 
 106   0.0000       0.166938         4.5426 
 107   0.0000       0.170397         4.6367 
 108   0.0000       0.171973         4.6796 
 109   0.0000       0.174997         4.7619 
 110   0.0000       0.181365         4.9352 
 111   0.0000       0.203661         5.5419 
 112   0.0000       0.212472         5.7817 
 113   0.0000       0.221703         6.0328 
 114   0.0000       0.226129         6.1533 
 115   0.0000       0.227482         6.1901 
 116   0.0000       0.230457         6.2711 
 117   0.0000       0.232450         6.3253 
 118   0.0000       0.240992         6.5577 
 119   0.0000       0.241418         6.5693 
 120   0.0000       0.252112         6.8603 
 121   0.0000       0.270218         7.3530 
 122   0.0000       0.294807         8.0221 
 123   0.0000       0.302013         8.2182 
 124   0.0000       0.314439         8.5563 
 125   0.0000       0.323805         8.8112 
 126   0.0000       0.337491         9.1836 
 127   0.0000       0.347907         9.4670 
 128   0.0000       0.360449         9.8083 
 129   0.0000       0.372115        10.1258 
 130   0.0000       0.388382        10.5684 
 131   0.0000       0.398122        10.8335 
 132   0.0000       0.404810        11.0154 
 133   0.0000       0.407905        11.0997 
 134   0.0000       0.420124        11.4321 
 135   0.0000       0.423506        11.5242 
 136   0.0000       0.428376        11.6567 
 137   0.0000       0.432833        11.7780 
 138   0.0000       0.439776        11.9669 
 139   0.0000       0.440422        11.9845 
 140   0.0000       0.457398        12.4464 
 141   0.0000       0.461821        12.5668 
 142   0.0000       0.467425        12.7193 
 143   0.0000       0.479203        13.0398 
 144   0.0000       0.482164        13.1204 
 145   0.0000       0.484523        13.1845 
 146   0.0000       0.498525        13.5656 
 147   0.0000       0.499166        13.5830 
 148   0.0000       0.507494        13.8096 
 149   0.0000       0.510298        13.8859 
 150   0.0000       0.519990        14.1496 
 151   0.0000       0.522454        14.2167 
 152   0.0000       0.539554        14.6820 
 153   0.0000       0.545969        14.8566 
 154   0.0000       0.548439        14.9238 
 155   0.0000       0.553939        15.0735 
 156   0.0000       0.560965        15.2646 
 157   0.0000       0.568741        15.4762 
 158   0.0000       0.576081        15.6760 
 159   0.0000       0.584591        15.9075 
 160   0.0000       0.591502        16.0956 
 161   0.0000       0.595717        16.2103 
 162   0.0000       0.601538        16.3687 
 163   0.0000       0.607763        16.5381 
 164   0.0000       0.612731        16.6733 
 165   0.0000       0.618838        16.8394 
 166   0.0000       0.621762        16.9190 
 167   0.0000       0.628274        17.0962 
 168   0.0000       0.628644        17.1063 
 169   0.0000       0.633441        17.2368 
 170   0.0000       0.638185        17.3659 
 171   0.0000       0.639138        17.3918 
 172   0.0000       0.641978        17.4691 
 173   0.0000       0.645574        17.5669 
 174   0.0000       0.646648        17.5962 
 175   0.0000       0.649024        17.6609 
 176   0.0000       0.651161        17.7190 
 177   0.0000       0.655813        17.8456 
 178   0.0000       0.657362        17.8877 
 179   0.0000       0.661454        17.9991 
 180   0.0000       0.663663        18.0592 
 181   0.0000       0.663934        18.0666 
 182   0.0000       0.666685        18.1414 
 183   0.0000       0.670779        18.2528 
 184   0.0000       0.674303        18.3487 
 185   0.0000       0.675641        18.3851 
 186   0.0000       0.676209        18.4006 
 187   0.0000       0.679318        18.4852 
 188   0.0000       0.690765        18.7967 
 189   0.0000       0.693215        18.8633 
 190   0.0000       0.697103        18.9691 
 191   0.0000       0.697701        18.9854 
 192   0.0000       0.700516        19.0620 
 193   0.0000       0.703911        19.1544 
 194   0.0000       0.707093        19.2410 
 195   0.0000       0.715586        19.4721 
 196   0.0000       0.721239        19.6259 
 197   0.0000       0.723970        19.7002 
 198   0.0000       0.725247        19.7350 
 199   0.0000       0.732249        19.9255 
 200   0.0000       0.738550        20.0970 
 201   0.0000       0.747749        20.3473 
 202   0.0000       0.755375        20.5548 
 203   0.0000       0.764914        20.8144 
 204   0.0000       0.770434        20.9646 
 205   0.0000       0.780597        21.2411 
 206   0.0000       0.781997        21.2792 
 207   0.0000       0.799949        21.7677 
 208   0.0000       0.806623        21.9493 
 209   0.0000       0.814777        22.1712 
 210   0.0000       0.829875        22.5821 
 211   0.0000       0.834698        22.7133 
 212   0.0000       0.853572        23.2269 
 213   0.0000       0.858670        23.3656 
 214   0.0000       0.871194        23.7064 
 215   0.0000       0.883658        24.0456 
 216   0.0000       0.889815        24.2131 
 217   0.0000       0.906843        24.6765 
 218   0.0000       0.910058        24.7639 
 219   0.0000       0.947883        25.7932 
 220   0.0000       0.957854        26.0645 
 221   0.0000       0.964374        26.2419 
 222   0.0000       0.971203        26.4278 
 223   0.0000       0.976817        26.5805 
 224   0.0000       0.987838        26.8804 
 225   0.0000       0.996762        27.1233 
 226   0.0000       1.001043        27.2398 
 227   0.0000       1.006255        27.3816 
 228   0.0000       1.010159        27.4878 
 229   0.0000       1.011673        27.5290 
 230   0.0000       1.017280        27.6816 
 231   0.0000       1.037887        28.2423 
 232   0.0000       1.041655        28.3449 
 233   0.0000       1.061371        28.8814 
 234   0.0000       1.064280        28.9605 
 235   0.0000       1.084684        29.5157 
 236   0.0000       1.101474        29.9726 
 237   0.0000       1.108882        30.1742 
 238   0.0000       1.128635        30.7117 
 239   0.0000       1.141927        31.0734 
 240   0.0000       1.156355        31.4660 
 241   0.0000       1.194079        32.4925 
 242   0.0000       1.195909        32.5423 
 243   0.0000       1.199425        32.6380 
 244   0.0000       1.205428        32.8014 
 245   0.0000       1.208196        32.8767 
 246   0.0000       1.213613        33.0241 
 247   0.0000       1.216649        33.1067 
 248   0.0000       1.221382        33.2355 
 249   0.0000       1.222946        33.2780 
 250   0.0000       1.238145        33.6916 
 251   0.0000       1.246624        33.9224 
 252   0.0000       1.248847        33.9829 
 253   0.0000       1.254933        34.1485 
 254   0.0000       1.273421        34.6516 
 255   0.0000       1.278121        34.7794 
 256   0.0000       1.287483        35.0342 
 257   0.0000       1.292682        35.1757 
 258   0.0000       1.297851        35.3163 
 259   0.0000       1.302039        35.4303 
 260   0.0000       1.318634        35.8819 
 261   0.0000       1.328901        36.1612 
 262   0.0000       1.336970        36.3808 
 263   0.0000       1.347379        36.6640 
 264   0.0000       1.352278        36.7974 
 265   0.0000       1.359980        37.0069 
 266   0.0000       1.374304        37.3967 
 267   0.0000       1.387167        37.7467 
 268   0.0000       1.392146        37.8822 
 269   0.0000       1.414175        38.4817 
 270   0.0000       1.425206        38.7818 
 271   0.0000       1.433607        39.0104 
 272   0.0000       1.446530        39.3621 
 273   0.0000       1.450069        39.4584 
 274   0.0000       1.453465        39.5508 
 275   0.0000       1.455600        39.6089 
 276   0.0000       1.462043        39.7842 
 277   0.0000       1.463242        39.8168 
 278   0.0000       1.471472        40.0408 
 279   0.0000       1.485638        40.4263 
 280   0.0000       1.500480        40.8301 
 281   0.0000       1.506135        40.9840 
 282   0.0000       1.510911        41.1140 
 283   0.0000       1.528205        41.5846 
 284   0.0000       1.528971        41.6054 
 285   0.0000       1.551114        42.2080 
 286   0.0000       1.557917        42.3931 
 287   0.0000       1.561611        42.4936 
 288   0.0000       1.573932        42.8289 
 289   0.0000       1.580394        43.0047 
 290   0.0000       1.591168        43.2979 
 291   0.0000       1.603405        43.6309 
 292   0.0000       1.607224        43.7348 
 293   0.0000       1.613202        43.8974 
 294   0.0000       1.619118        44.0584 
 295   0.0000       1.624760        44.2120 
 296   0.0000       1.632479        44.4220 
 297   0.0000       1.635624        44.5076 
[...]
      dx2y2   :     0.027191
      dxy     :     0.034987
  1 C s       :     2.861592  s :     2.861592
      pz      :     0.942523  p :     2.964422
      px      :     0.969171
      py      :     1.052728
      dz2     :     0.016125  d :     0.175566
      dxz     :     0.016743
      dyz     :     0.040329
      dx2y2   :     0.052858
      dxy     :     0.049511
  2 C s       :     2.861579  s :     2.861579
      pz      :     0.942570  p :     2.964455
      px      :     0.969074
      py      :     1.052811
      dz2     :     0.016105  d :     0.175566
      dxz     :     0.016705
      dyz     :     0.040387
      dx2y2   :     0.052864
      dxy     :     0.049504
  3 C s       :     2.792267  s :     2.792267
      pz      :     0.956088  p :     3.001736
      px      :     1.033347
      py      :     1.012302
      dz2     :     0.016166  d :     0.257673
      dxz     :     0.031823
      dyz     :     0.030255
      dx2y2   :     0.086371
      dxy     :     0.093059
  4 C s       :     2.807508  s :     2.807508
      pz      :     0.913822  p :     2.959789
      px      :     1.008822
      py      :     1.037145
      dz2     :     0.015079  d :     0.239084
      dxz     :     0.028740
      dyz     :     0.031167
      dx2y2   :     0.082515
      dxy     :     0.081582
  5 C s       :     2.812446  s :     2.812446
      pz      :     0.952653  p :     2.994321
      px      :     1.017729
      py      :     1.023938
      dz2     :     0.013136  d :     0.197310
      dxz     :     0.029127
      dyz     :     0.012687
      dx2y2   :     0.071028
      dxy     :     0.071333
  6 C s       :     2.792239  s :     2.792239
      pz      :     0.956065  p :     3.001754
      px      :     1.033337
      py      :     1.012352
      dz2     :     0.016152  d :     0.257692
      dxz     :     0.031805
      dyz     :     0.030227
      dx2y2   :     0.086396
      dxy     :     0.093112
  7 C s       :     2.807549  s :     2.807549
      pz      :     0.913547  p :     2.959645
      px      :     1.008970
      py      :     1.037128
      dz2     :     0.015079  d :     0.239081
      dxz     :     0.028758
      dyz     :     0.031136
      dx2y2   :     0.082530
      dxy     :     0.081578
  8 C s       :     2.812466  s :     2.812466
      pz      :     0.952567  p :     2.994264
      px      :     1.017652
      py      :     1.024045
      dz2     :     0.013144  d :     0.197283
      dxz     :     0.029108
      dyz     :     0.012659
      dx2y2   :     0.071048
      dxy     :     0.071324
  9 H s       :     0.886678  s :     0.886678
      pz      :     0.018614  p :     0.083155
      px      :     0.021174
      py      :     0.043367
 10 H s       :     0.886599  s :     0.886599
      pz      :     0.018604  p :     0.083164
      px      :     0.021180
      py      :     0.043379
 11 C s       :     2.791022  s :     2.791022
      pz      :     1.046788  p :     3.052014
      px      :     0.987637
      py      :     1.017590
      dz2     :     0.027611  d :     0.190828
      dxz     :     0.029490
      dyz     :     0.043667
      dx2y2   :     0.049502
      dxy     :     0.040559
 12 H s       :     0.883006  s :     0.883006
      pz      :     0.031966  p :     0.077856
      px      :     0.018710
      py      :     0.027180
 13 H s       :     0.882923  s :     0.882923
      pz      :     0.036983  p :     0.077611
      px      :     0.019078
      py      :     0.021551
 14 C s       :     2.799172  s :     2.799172
      pz      :     1.040714  p :     3.053849
      px      :     1.002495
      py      :     1.010639
      dz2     :     0.027937  d :     0.190634
      dxz     :     0.029531
      dyz     :     0.046779
      dx2y2   :     0.045727
      dxy     :     0.040660
 15 H s       :     0.898666  s :     0.898666
      pz      :     0.036596  p :     0.076926
      px      :     0.019226
      py      :     0.021104
 16 H s       :     0.898846  s :     0.898846
      pz      :     0.032176  p :     0.076996
      px      :     0.018570
      py      :     0.026250
 17 C s       :     2.799283  s :     2.799283
      pz      :     1.041553  p :     3.055689
      px      :     0.998988
      py      :     1.015148
      dz2     :     0.028216  d :     0.191908
      dxz     :     0.029229
      dyz     :     0.046356
      dx2y2   :     0.047739
      dxy     :     0.040368
 18 H s       :     0.900068  s :     0.900068
      pz      :     0.035973  p :     0.075831
      px      :     0.018941
      py      :     0.020917
 19 H s       :     0.900037  s :     0.900037
      pz      :     0.031569  p :     0.075814
      px      :     0.018212
      py      :     0.026034
 20 C s       :     2.806513  s :     2.806513
      pz      :     1.053611  p :     3.114939
      px      :     1.041371
      py      :     1.019957
      dz2     :     0.026592  d :     0.146040
      dxz     :     0.008630
      dyz     :     0.046037
      dx2y2   :     0.042309
      dxy     :     0.022472
 21 H s       :     0.898794  s :     0.898794
      pz      :     0.032068  p :     0.076113
      px      :     0.017301
      py      :     0.026744
 22 H s       :     0.898692  s :     0.898692
      pz      :     0.036756  p :     0.076113
      px      :     0.017976
      py      :     0.021380
 23 C s       :     2.790925  s :     2.790925
      pz      :     1.047273  p :     3.051593
      px      :     0.987422
      py      :     1.016898
      dz2     :     0.026955  d :     0.190892
      dxz     :     0.029136
      dyz     :     0.044633
      dx2y2   :     0.049369
      dxy     :     0.040799
 24 H s       :     0.882885  s :     0.882885
      pz      :     0.034764  p :     0.077616
      px      :     0.018861
      py      :     0.023991
 25 H s       :     0.883039  s :     0.883039
      pz      :     0.034512  p :     0.077904
      px      :     0.018910
      py      :     0.024482
 26 C s       :     2.797545  s :     2.797545
      pz      :     1.041290  p :     3.053932
      px      :     1.002363
      py      :     1.010278
      dz2     :     0.027588  d :     0.190724
      dxz     :     0.029246
      dyz     :     0.047363
      dx2y2   :     0.045338
      dxy     :     0.041190
 27 H s       :     0.898500  s :     0.898500
      pz      :     0.034138  p :     0.076997
      px      :     0.019218
      py      :     0.023641
 28 H s       :     0.898737  s :     0.898737
      pz      :     0.034978  p :     0.077059
      px      :     0.018584
      py      :     0.023497
 29 C s       :     2.799096  s :     2.799096
      pz      :     1.041222  p :     3.049218
      px      :     0.993852
      py      :     1.014144
      dz2     :     0.027561  d :     0.191199
      dxz     :     0.028842
      dyz     :     0.047238
      dx2y2   :     0.046467
      dxy     :     0.041091
 30 H s       :     0.901149  s :     0.901149
      pz      :     0.033596  p :     0.076146
      px      :     0.019033
      py      :     0.023516
 31 H s       :     0.901148  s :     0.901148
      pz      :     0.034138  p :     0.076101
      px      :     0.018100
      py      :     0.023863
 32 C s       :     2.800362  s :     2.800362
      pz      :     1.040190  p :     3.050823
      px      :     0.999234
      py      :     1.011399
      dz2     :     0.027553  d :     0.191199
      dxz     :     0.029274
      dyz     :     0.046973
      dx2y2   :     0.045894
      dxy     :     0.041504
 33 H s       :     0.902164  s :     0.902164
      pz      :     0.034296  p :     0.076018
      px      :     0.018014
      py      :     0.023708
 34 H s       :     0.902105  s :     0.902105
      pz      :     0.033249  p :     0.076007
      px      :     0.019258
      py      :     0.023500
 35 C s       :     2.802168  s :     2.802168
      pz      :     1.039762  p :     3.050196
      px      :     0.997572
      py      :     1.012862
      dz2     :     0.027513  d :     0.191324
      dxz     :     0.029231
      dyz     :     0.047134
      dx2y2   :     0.046204
      dxy     :     0.041242
 36 H s       :     0.902649  s :     0.902649
      pz      :     0.034081  p :     0.075867
      px      :     0.017824
      py      :     0.023963
 37 H s       :     0.902610  s :     0.902610
      pz      :     0.033323  p :     0.075900
      px      :     0.019227
      py      :     0.023350
 38 C s       :     2.800778  s :     2.800778
      pz      :     1.040600  p :     3.056788
      px      :     1.001079
      py      :     1.015108
      dz2     :     0.027706  d :     0.192123
      dxz     :     0.029392
      dyz     :     0.046886
      dx2y2   :     0.046060
      dxy     :     0.042080
 39 H s       :     0.901505  s :     0.901505
      pz      :     0.033213  p :     0.075659
      px      :     0.019215
      py      :     0.023231
 40 H s       :     0.901519  s :     0.901519
      pz      :     0.034295  p :     0.075655
      px      :     0.017622
      py      :     0.023738
 41 C s       :     2.807104  s :     2.807104
      pz      :     1.053582  p :     3.114804
      px      :     1.010888
      py      :     1.050334
      dz2     :     0.025967  d :     0.146280
      dxz     :     0.030062
      dyz     :     0.025316
      dx2y2   :     0.031659
      dxy     :     0.033276
 42 H s       :     0.899437  s :     0.899437
      pz      :     0.033757  p :     0.076040
      px      :     0.020122
      py      :     0.022161
 43 H s       :     0.899444  s :     0.899444
      pz      :     0.035142  p :     0.076031
      px      :     0.018320
      py      :     0.022569
 44 C s       :     2.908800  s :     2.908800
      pz      :     0.975899  p :     3.041981
      px      :     1.009309
      py      :     1.056773
      dz2     :     0.012557  d :     0.099816
      dxz     :     0.006836
      dyz     :     0.018254
      dx2y2   :     0.027199
      dxy     :     0.034970
 45 H s       :     0.882941  s :     0.882941
      pz      :     0.020032  p :     0.094406
      px      :     0.029194
      py      :     0.045181
 46 H s       :     0.882931  s :     0.882931
      pz      :     0.020029  p :     0.094404
      px      :     0.029238
      py      :     0.045138
 47 H s       :     0.896140  s :     0.896140
      pz      :     0.015530  p :     0.076396
      px      :     0.044893
      py      :     0.015974
 48 H s       :     0.897161  s :     0.897161
      pz      :     0.015523  p :     0.076329
      px      :     0.020796
      py      :     0.040011


                      *****************************
                      * MAYER POPULATION ANALYSIS *
                      *****************************

  NA   - Mulliken gross atomic population
  ZA   - Total nuclear charge
  QA   - Mulliken gross atomic charge
  VA   - Mayer's total valence
  BVA  - Mayer's bonded valence
  FA   - Mayer's free valence

  ATOM       NA         ZA         QA         VA         BVA        FA
  0 C      6.6049     6.0000    -0.6049     3.3879     3.3879    -0.0000
  1 C      5.3727     6.0000     0.6273     2.8935     2.8935     0.0000
  2 C      5.3728     6.0000     0.6272     2.8923     2.8923    -0.0000
  3 C      6.0396     6.0000    -0.0396     3.8149     3.8149    -0.0000
  4 C      6.0635     6.0000    -0.0635     4.1267     4.1267    -0.0000
  5 C      5.9793     6.0000     0.0207     3.8827     3.8827     0.0000
  6 C      6.0380     6.0000    -0.0380     3.8152     3.8152     0.0000
  7 C      6.0628     6.0000    -0.0628     4.1264     4.1264     0.0000
  8 C      5.9774     6.0000     0.0226     3.8800     3.8800     0.0000
  9 H      1.0515     1.0000    -0.0515     1.0031     1.0031    -0.0000
 10 H      1.0512     1.0000    -0.0512     1.0029     1.0029    -0.0000
 11 C      5.9572     6.0000     0.0428     4.0290     4.0290     0.0000
 12 H      0.9690     1.0000     0.0310     0.9708     0.9708     0.0000
 13 H      0.9683     1.0000     0.0317     0.9689     0.9689    -0.0000
 14 C      6.0361     6.0000    -0.0361     4.1148     4.1148    -0.0000
 15 H      0.9847     1.0000     0.0153     0.9636     0.9636    -0.0000
 16 H      0.9830     1.0000     0.0170     0.9621     0.9621    -0.0000
 17 C      6.0237     6.0000    -0.0237     4.1176     4.1176    -0.0000
 18 H      0.9943     1.0000     0.0057     0.9673     0.9673    -0.0000
 19 H      0.9943     1.0000     0.0057     0.9676     0.9676     0.0000
 20 C      5.9960     6.0000     0.0040     4.0166     4.0166    -0.0000
 21 H      0.9832     1.0000     0.0168     0.9773     0.9773    -0.0000
 22 H      0.9830     1.0000     0.0170     0.9772     0.9772    -0.0000
 23 C      5.9521     6.0000     0.0479     4.0207     4.0207    -0.0000
 24 H      0.9681     1.0000     0.0319     0.9684     0.9684     0.0000
 25 H      0.9689     1.0000     0.0311     0.9710     0.9710    -0.0000
 26 C      6.0329     6.0000    -0.0329     4.1144     4.1144     0.0000
 27 H      0.9848     1.0000     0.0152     0.9643     0.9643     0.0000
 28 H      0.9833     1.0000     0.0167     0.9622     0.9622    -0.0000
 29 C      5.9869     6.0000     0.0131     4.0770     4.0770    -0.0000
 30 H      0.9978     1.0000     0.0022     0.9691     0.9691     0.0000
 31 H      0.9978     1.0000     0.0022     0.9702     0.9702     0.0000
 32 C      6.0001     6.0000    -0.0001     4.0806     4.0806     0.0000
 33 H      0.9993     1.0000     0.0007     0.9692     0.9692    -0.0000
 34 H      0.9992     1.0000     0.0008     0.9697     0.9697     0.0000
 35 C      6.0068     6.0000    -0.0068     4.0834     4.0834    -0.0000
 36 H      0.9996     1.0000     0.0004     0.9690     0.9690    -0.0000
 37 H      0.9995     1.0000     0.0005     0.9685     0.9685    -0.0000
 38 C      6.0334     6.0000    -0.0334     4.1184     4.1184    -0.0000
 39 H      0.9961     1.0000     0.0039     0.9669     0.9669     0.0000
 40 H      0.9962     1.0000     0.0038     0.9666     0.9666    -0.0000
 41 C      6.0014     6.0000    -0.0014     4.0206     4.0206    -0.0000
 42 H      0.9844     1.0000     0.0156     0.9770     0.9770     0.0000
 43 H      0.9843     1.0000     0.0157     0.9771     0.9771    -0.0000
 44 C      6.6052     6.0000    -0.6052     3.3879     3.3879    -0.0000
 45 H      1.0296     1.0000    -0.0296     1.0305     1.0305     0.0000
 46 H      1.0296     1.0000    -0.0296     1.0305     1.0305    -0.0000
 47 H      0.9874     1.0000     0.0126     0.9734     0.9734    -0.0000
 48 H      0.9887     1.0000     0.0113     0.9733     0.9733    -0.0000

  Mayer bond orders larger than 0.100000
B(  0-C ,  1-C ) :   2.1188 B(  0-C , 45-H ) :   1.1191 B(  1-C ,  3-C ) :   0.9085 
B(  2-C ,  6-C ) :   0.9074 B(  2-C , 44-C ) :   2.1187 B(  3-C ,  4-C ) :   1.3969 
B(  3-C ,  8-C ) :   1.3726 B(  4-C ,  5-C ) :   1.4261 B(  4-C , 11-C ) :   1.0900 
B(  5-C ,  6-C ) :   1.3738 B(  5-C ,  9-H ) :   0.9215 B(  6-C ,  7-C ) :   1.3970 
B(  7-C ,  8-C ) :   1.4262 B(  7-C , 23-C ) :   1.0890 B(  8-C , 10-H ) :   0.9221 
B( 11-C , 12-H ) :   0.8984 B( 11-C , 13-H ) :   0.8981 B( 11-C , 14-C ) :   1.1039 
B( 14-C , 15-H ) :   0.9305 B( 14-C , 16-H ) :   0.9282 B( 14-C , 17-C ) :   1.0753 
B( 17-C , 18-H ) :   0.9411 B( 17-C , 19-H ) :   0.9409 B( 17-C , 20-C ) :   1.1059 
B( 20-C , 21-H ) :   0.9662 B( 20-C , 22-H ) :   0.9662 B( 20-C , 47-H ) :   0.9617 
B( 23-C , 24-H ) :   0.8969 B( 23-C , 25-H ) :   0.8978 B( 23-C , 26-C ) :   1.1026 
B( 26-C , 27-H ) :   0.9281 B( 26-C , 28-H ) :   0.9259 B( 26-C , 29-C ) :   1.0773 
B( 29-C , 30-H ) :   0.9339 B( 29-C , 31-H ) :   0.9335 B( 29-C , 32-C ) :   1.0787 
B( 32-C , 33-H ) :   0.9354 B( 32-C , 34-H ) :   0.9353 B( 32-C , 35-C ) :   1.0799 
B( 35-C , 36-H ) :   0.9383 B( 35-C , 37-H ) :   0.9384 B( 35-C , 38-C ) :   1.0770 
B( 38-C , 39-H ) :   0.9429 B( 38-C , 40-H ) :   0.9429 B( 38-C , 41-C ) :   1.1048 
B( 41-C , 42-H ) :   0.9671 B( 41-C , 43-H ) :   0.9671 B( 41-C , 48-H ) :   0.9631 
B( 44-C , 46-H ) :   1.1192 

-------
TIMINGS
-------

Total SCF time: 0 days 0 hours 0 min 42 sec 

Total time                  ....      42.108 sec
Sum of individual times     ....      39.379 sec  ( 93.5%)

Fock matrix formation       ....      35.232 sec  ( 83.7%)
  Split-RI-J                ....       3.180 sec  (  9.0% of F)
  Chain of spheres X        ....      23.584 sec  ( 66.9% of F)
  XC integration            ....       7.271 sec  ( 20.6% of F)
    Basis function eval.    ....       0.780 sec  ( 10.7% of XC)
    Density eval.           ....       0.444 sec  (  6.1% of XC)
    XC-Functional eval.     ....       0.134 sec  (  1.8% of XC)
    XC-Potential eval.      ....       0.289 sec  (  4.0% of XC)
Diagonalization             ....       0.055 sec  (  0.1%)
Density matrix formation    ....       0.070 sec  (  0.2%)
Population analysis         ....       0.140 sec  (  0.3%)
Initial guess               ....       0.099 sec  (  0.2%)
Orbital Transformation      ....       0.000 sec  (  0.0%)
Orbital Orthonormalization  ....       0.072 sec  (  0.2%)
DIIS solution               ....       0.016 sec  (  0.0%)
SOSCF solution              ....       0.339 sec  (  0.8%)
Grid generation             ....       3.428 sec  (  8.1%)

Maximum memory used throughout the entire SCF-calculation: 102.8 MB

-------------------------   --------------------
FINAL SINGLE POINT ENERGY      -816.463466238602
-------------------------   --------------------

                                *** OPTIMIZATION RUN DONE ***

                            ***************************************
                            *     ORCA property calculations      *
                            ***************************************

                                    ---------------------
                                    Active property flags
                                    ---------------------
   (+) Dipole Moment


------------------------------------------------------------------------------
                       ORCA ELECTRIC PROPERTIES CALCULATION
------------------------------------------------------------------------------

Dipole Moment Calculation                       ... on
Quadrupole Moment Calculation                   ... off
Polarizability Calculation                      ... off
GBWName                                         ... opt.gbw
Electron density                                ... opt.scfp
The origin for moment calculation is the CENTER OF MASS  = ( 1.043758,  3.571646  0.002265)

-------------
DIPOLE MOMENT
-------------
                                X             Y             Z
Electronic contribution:     17.07776       7.40294       1.39194
Nuclear contribution   :    -17.07721      -7.43049      -1.39627
                        -----------------------------------------
Total Dipole Moment    :      0.00055      -0.02756      -0.00433
                        -----------------------------------------
Magnitude (a.u.)       :      0.02790
Magnitude (Debye)      :      0.07092



--------------------
Rotational spectrum 
--------------------
 
Rotational constants in cm-1:     0.021297     0.002874     0.002549 
Rotational constants in MHz :   638.466940    86.164965    76.409107 

 Dipole components along the rotational axes: 
x,y,z [a.u.] :    -0.009680    -0.025609    -0.005377 
x,y,z [Debye]:    -0.024604    -0.065092    -0.013666 

 

Timings for individual modules:

Sum of individual times         ...     1300.593 sec (=  21.677 min)
GTO integral calculation        ...       47.408 sec (=   0.790 min)   3.6 %
SCF iterations                  ...     1008.030 sec (=  16.800 min)  77.5 %
SCF Gradient evaluation         ...      241.205 sec (=   4.020 min)  18.5 %
Geometry relaxation             ...        3.950 sec (=   0.066 min)   0.3 %
                             ****ORCA TERMINATED NORMALLY****
TOTAL RUN TIME: 0 days 0 hours 22 minutes 35 seconds 920 msec
