
                                 *****************
                                 * O   R   C   A *
                                 *****************

           --- An Ab Initio, DFT and Semiempirical electronic structure package ---

                  #######################################################
                  #                        -***-                        #
                  #          Department of theory and spectroscopy      #
                  #               Directorship: Frank Neese             #
                  #        Max Planck Institute fuer Kohlenforschung    #
                  #                Kaiser Wilhelm Platz 1               #
                  #                 D-45470 Muelheim/Ruhr               #
                  #                      Germany                        #
                  #                                                     #
                  #                  All rights reserved                #
                  #                        -***-                        #
                  #######################################################


                         Program Version 4.2.1 -  RELEASE  -


 With contributions from (in alphabetic order):
   Daniel Aravena         : Magnetic Suceptibility
   Michael Atanasov       : Ab Initio Ligand Field Theory (pilot matlab implementation)
   Alexander A. Auer      : GIAO ZORA, VPT2
   Ute Becker             : Parallelization
   Giovanni Bistoni       : ED, misc. LED, open-shell LED, HFLD
   Martin Brehm           : Molecular dynamics
   Dmytro Bykov           : SCF Hessian
   Vijay G. Chilkuri      : MRCI spin determinant printing, contributions to CSF-ICE
   Dipayan Datta          : RHF DLPNO-CCSD density
   Achintya Kumar Dutta   : EOM-CC, STEOM-CC
   Dmitry Ganyushin       : Spin-Orbit,Spin-Spin,Magnetic field MRCI
   Miquel Garcia          : C-PCM Hessian, Gaussian charge scheme
   Yang Guo               : DLPNO-NEVPT2, CIM, IAO-localization
   Andreas Hansen         : Spin unrestricted coupled pair/coupled cluster methods
   Benjamin Helmich-Paris : CASSCF linear response (MC-RPA)
   Lee Huntington         : MR-EOM, pCC
   Robert Izsak           : Overlap fitted RIJCOSX, COSX-SCS-MP3, EOM
   Christian Kollmar      : KDIIS, OOCD, Brueckner-CCSD(T), CCSD density
   Simone Kossmann        : Meta GGA functionals, TD-DFT gradient, OOMP2, MP2 Hessian
   Martin Krupicka        : AUTO-CI
   Lucas Lang             : DCDCAS
   Dagmar Lenk            : GEPOL surface, SMD
   Dimitrios Liakos       : Extrapolation schemes; Compound Job, initial MDCI parallelization
   Dimitrios Manganas     : Further ROCIS development; embedding schemes
   Dimitrios Pantazis     : SARC Basis sets
   Taras Petrenko         : DFT Hessian,TD-DFT gradient, ASA, ECA, R-Raman, ABS, FL, XAS/XES, NRVS
   Peter Pinski           : DLPNO-MP2, DLPNO-MP2 Gradient
   Christoph Reimann      : Effective Core Potentials
   Marius Retegan         : Local ZFS, SOC
   Christoph Riplinger    : Optimizer, TS searches, QM/MM, DLPNO-CCSD(T), (RO)-DLPNO pert. Triples
   Tobias Risthaus        : Range-separated hybrids, TD-DFT gradient, RPA, STAB
   Michael Roemelt        : Original ROCIS implementation
   Masaaki Saitow         : Open-shell DLPNO-CCSD energy and density
   Barbara Sandhoefer     : DKH picture change effects
   Avijit Sen             : IP-ROCIS
   Kantharuban Sivalingam : CASSCF convergence, NEVPT2, FIC-MRCI
   Bernardo de Souza      : ESD, SOC TD-DFT
   Georgi Stoychev        : AutoAux, RI-MP2 NMR
   Willem Van den Heuvel  : Paramagnetic NMR
   Boris Wezisla          : Elementary symmetry handling
   Frank Wennmohs         : Technical directorship


 We gratefully acknowledge several colleagues who have allowed us to
 interface, adapt or use parts of their codes:
   Stefan Grimme, W. Hujo, H. Kruse,             : VdW corrections, initial TS optimization,
                  C. Bannwarth                     DFT functionals, gCP, sTDA/sTD-DF
   Ed Valeev, F. Pavosevic, A. Kumar             : LibInt (2-el integral package), F12 methods
   Garnet Chan, S. Sharma, J. Yang, R. Olivares  : DMRG
   Ulf Ekstrom                                   : XCFun DFT Library
   Mihaly Kallay                                 : mrcc  (arbitrary order and MRCC methods)
   Andreas Klamt, Michael Diedenhofen            : otool_cosmo (COSMO solvation model)
   Jiri Pittner, Ondrej Demel                    : Mk-CCSD
   Frank Weinhold                                : gennbo (NPA and NBO analysis)
   Christopher J. Cramer and Donald G. Truhlar   : smd solvation model
   Lars Goerigk                                  : TD-DFT with DH, B97 family of functionals
   V. Asgeirsson, H. Jonsson                     : NEB implementation
   FAccTs GmbH                                   : IRC, NEB, NEB-TS, Multilevel, MM, QM/MM, CI optimization
   S Lehtola, MJT Oliveira, MAL Marques          : LibXC Library


 Your calculation uses the libint2 library for the computation of 2-el integrals
 For citations please refer to: http://libint.valeyev.net

 Your ORCA version has been built with support for libXC version: 4.2.3
 For citations please refer to: https://tddft.org/programs/libxc/

 This ORCA versions uses:
   CBLAS   interface :  Fast vector & matrix operations
   LAPACKE interface :  Fast linear algebra routines
   SCALAPACK package :  Parallel linear algebra routines




***************************************
The coordinates will be read from file: opt.xyz
***************************************


----- Orbital basis set information -----
Your calculation utilizes the basis: EPR-II
   V. Barone, in Recent Advances in Density Functional Methods, Part 1 (ed. D. P. Chong), World Scientific, Singapore, 1995, p. 287.

----- AuxJ basis set information -----
Your calculation utilizes the AutoAux generation procedure.
  G. L. Stoychev, A. A. Auer, F. Neese, J. Chem. Theory Comput. 13, 554 (2017)

----- AuxC basis set information -----
Your calculation utilizes the AutoAux generation procedure.
  G. L. Stoychev, A. A. Auer, F. Neese, J. Chem. Theory Comput. 13, 554 (2017)

----- AuxJK basis set information -----
Your calculation utilizes the AutoAux generation procedure.
  G. L. Stoychev, A. A. Auer, F. Neese, J. Chem. Theory Comput. 13, 554 (2017)

================================================================================
                                        WARNINGS
                       Please study these warnings very carefully!
================================================================================


WARNING: your system is open-shell and RHF/RKS was chosen
  ===> : WILL SWITCH to UHF/UKS


INFO   : the flag for use of LIBINT has been found!

================================================================================
                                       INPUT FILE
================================================================================
NAME = g-tensor_EPRII_invariant.inp
|  1> ! B3LYP EPR-II AUTOAUX
|  2> %pal nprocs 16 end
|  3> *XYZFile 0 2 opt.xyz
|  4> %EPRNMR
|  5>         GTENSOR   TRUE
|  6>         NUCLEI    = ALL H {AISO, ADIP, AORB}
|  7>         ORI       GIAO
|  8> END
|  9> 
| 10>                          ****END OF INPUT****
================================================================================

                       ****************************
                       * Single Point Calculation *
                       ****************************

---------------------------------
CARTESIAN COORDINATES (ANGSTROEM)
---------------------------------
  C     -2.629810    0.131627    0.162858
  C      1.575037   -0.216712   -0.510283
  C      0.963312    1.084335   -0.474588
  C     -0.443109    1.138937   -0.246461
  C     -1.220090   -0.004870   -0.065413
  C     -0.611482   -1.294297   -0.109269
  C      0.773237   -1.346173   -0.331260
  H     -0.931590    2.115353   -0.214935
  H      1.261625   -2.321838   -0.371309
  C      1.680391    2.283916   -0.657338
  H      2.751074    2.300061   -0.855192
  H      1.160107    3.242687   -0.621812
  C      3.065124   -0.387397   -0.702152
  H      3.260826   -1.402495   -1.088894
  H      3.434851    0.309876   -1.474304
  C      3.883125   -0.186945    0.590812
  H      3.684707    0.820809    0.995880
  H      3.520635   -0.898464    1.353970
  C      5.386267   -0.374945    0.375837
  H      5.780551    0.345274   -0.361788
  H      5.614618   -1.387734    0.000718
  C     -1.464926   -2.531794    0.074762
  H     -2.011807   -2.435387    1.031422
  H     -2.260385   -2.520141   -0.694845
  C     -0.748697   -3.884273    0.038120
  H     -0.216378   -4.002580   -0.923856
  H      0.026896   -3.920157    0.825892
  C     -1.709325   -5.064954    0.224713
  H     -2.249194   -4.946276    1.182636
  H     -2.483484   -5.031489   -0.564691
  C     -1.006992   -6.424449    0.197118
  H     -0.252756   -6.502888    0.999495
  H     -0.485018   -6.586611   -0.761904
  C     -3.823237    0.254311    0.360312
  H     -4.874141    0.369781    0.540099
  H      5.947470   -0.233864    1.313763
  H     -1.722967   -7.251389    0.330784

----------------------------
CARTESIAN COORDINATES (A.U.)
----------------------------
  NO LB      ZA    FRAG     MASS         X           Y           Z
   0 C     6.0000    0    12.011   -4.969620    0.248738    0.307757
   1 C     6.0000    0    12.011    2.976389   -0.409527   -0.964295
   2 C     6.0000    0    12.011    1.820396    2.049095   -0.896842
   3 C     6.0000    0    12.011   -0.837354    2.152279   -0.465743
   4 C     6.0000    0    12.011   -2.305636   -0.009203   -0.123613
   5 C     6.0000    0    12.011   -1.155534   -2.445868   -0.206488
   6 C     6.0000    0    12.011    1.461206   -2.543899   -0.625991
   7 H     1.0000    0     1.008   -1.760449    3.997437   -0.406167
   8 H     1.0000    0     1.008    2.384125   -4.387639   -0.701673
   9 C     6.0000    0    12.011    3.175479    4.315977   -1.242188
  10 H     1.0000    0     1.008    5.198776    4.346486   -1.616078
  11 H     1.0000    0     1.008    2.192284    6.127791   -1.175054
  12 C     6.0000    0    12.011    5.792245   -0.732074   -1.326875
  13 H     1.0000    0     1.008    6.162069   -2.650331   -2.057711
  14 H     1.0000    0     1.008    6.490927    0.585582   -2.786030
  15 C     6.0000    0    12.011    7.338042   -0.353275    1.116473
  16 H     1.0000    0     1.008    6.963088    1.551104    1.881941
  17 H     1.0000    0     1.008    6.653035   -1.697852    2.558632
  18 C     6.0000    0    12.011   10.178570   -0.708543    0.710229
  19 H     1.0000    0     1.008   10.923658    0.652474   -0.683679
  20 H     1.0000    0     1.008   10.610090   -2.622437    0.001358
  21 C     6.0000    0    12.011   -2.768309   -4.784397    0.141280
  22 H     1.0000    0     1.008   -3.801763   -4.602215    1.949104
  23 H     1.0000    0     1.008   -4.271508   -4.762377   -1.313067
  24 C     6.0000    0    12.011   -1.414833   -7.340213    0.072036
  25 H     1.0000    0     1.008   -0.408896   -7.563780   -1.745835
  26 H     1.0000    0     1.008    0.050826   -7.408022    1.560709
  27 C     6.0000    0    12.011   -3.230157   -9.571376    0.424647
  28 H     1.0000    0     1.008   -4.250361   -9.347107    2.234858
  29 H     1.0000    0     1.008   -4.693105   -9.508136   -1.067111
  30 C     6.0000    0    12.011   -1.902939  -12.140450    0.372498
  31 H     1.0000    0     1.008   -0.477639  -12.288677    1.888772
  32 H     1.0000    0     1.008   -0.916552  -12.446892   -1.439790
  33 C     6.0000    0    12.011   -7.224870    0.480578    0.680891
  34 H     1.0000    0     1.008   -9.210791    0.698784    1.020639
  35 H     1.0000    0     1.008   11.239090   -0.441938    2.482653
  36 H     1.0000    0     1.008   -3.255936  -13.703140    0.625092

--------------------------------
INTERNAL COORDINATES (ANGSTROEM)
--------------------------------
 C      0   0   0     0.000000000000     0.00000000     0.00000000
 C      1   0   0     4.272610240157     0.00000000     0.00000000
 C      2   1   0     1.438125324390    60.24552033     0.00000000
 C      3   2   1     1.425848293951   117.26990964     0.00000000
 C      4   3   2     1.394550728569   122.61055854   359.83785937
 C      5   4   3     1.426516485839   119.97887465   359.79624859
 C      2   1   3     1.396644556490    58.71813929   180.41905600
 H      4   3   2     1.092243355031   118.68444512   180.00508086
 H      7   2   1     1.091809868125   117.46229028   179.91337232
 C      3   2   1     1.409466609286   123.39034766   180.25391086
 H     10   3   2     1.088930012121   122.43963380     1.03031875
 H     10   3   2     1.091420817464   120.05965022   179.85206872
 C      2   1   3     1.512053481354   177.48621497   138.79855544
 H     13   2   7     1.103762637295   108.84475263    23.61736388
 H     13   2   7     1.104131283142   110.33115400   139.58705119
 C     13   2   7     1.543069080322   113.66706589   262.43995349
 H     16  13   2     1.104091011157   109.31232478   302.10998132
 H     16  13   2     1.104567095054   108.74019833    57.39727594
 C     16  13   2     1.530031484904   112.77443986   179.55202757
 H     19  16  13     1.103750832062   111.38687676    60.17487367
 H     19  16  13     1.103901864798   111.32750082   300.43251127
 C      6   5   4     1.514473940543   119.63223426   180.59990438
 H     22   6   5     1.106150845304   108.20894830   304.76341125
 H     22   6   5     1.106881284587   108.17289650    57.06993635
 C     22   6   5     1.530858015518   117.08692832   180.89650613
 H     25  22   6     1.105783574916   109.91168449   302.08501453
 H     25  22   6     1.106082018337   109.85747792    58.56124947
 C     25  22   6     1.533502635689   112.59519212   180.40380791
 H     28  25  22     1.105964893624   109.18126977   302.62769295
 H     28  25  22     1.106165189333   109.16458957    57.91587622
 C     28  25  22     1.530444509652   113.21970407   180.27451933
 H     31  28  25     1.104008538557   111.31679819    59.99337564
 H     31  28  25     1.103845782783   111.29473236   300.30012473
 C      1   2   3     1.215856577242   178.84603709   342.21745026
 H     34   1   5     1.072406703451   179.50064448   351.94937777
 H     19  16  13     1.102069744278   111.40579065   180.40040565
 H     31  28  25     1.101960317542   111.48462708   180.15533911

---------------------------
INTERNAL COORDINATES (A.U.)
---------------------------
 C      0   0   0     0.000000000000     0.00000000     0.00000000
 C      1   0   0     8.074063230885     0.00000000     0.00000000
 C      2   1   0     2.717663009354    60.24552033     0.00000000
 C      3   2   1     2.694462784087   117.26990964     0.00000000
 C      4   3   2     2.635318956856   122.61055854   359.83785937
 C      5   4   3     2.695725483759   119.97887465   359.79624859
 C      2   1   3     2.639275718198    58.71813929   180.41905600
 H      4   3   2     2.064040812604   118.68444512   180.00508086
 H      7   2   1     2.063221641068   117.46229028   179.91337232
 C      3   2   1     2.663505886458   123.39034766   180.25391086
 H     10   3   2     2.057779501917   122.43963380     1.03031875
 H     10   3   2     2.062486441868   120.05965022   179.85206872
 C      2   1   3     2.857366979601   177.48621497   138.79855544
 H     13   2   7     2.085809101342   108.84475263    23.61736388
 H     13   2   7     2.086505741034   110.33115400   139.58705119
 C     13   2   7     2.915977967531   113.66706589   262.43995349
 H     16  13   2     2.086429638010   109.31232478   302.10998132
 H     16  13   2     2.087329306194   108.74019833    57.39727594
 C     16  13   2     2.891340482745   112.77443986   179.55202757
 H     19  16  13     2.085786792686   111.38687676    60.17487367
 H     19  16  13     2.086072203193   111.32750082   300.43251127
 C      6   5   4     2.861940984587   119.63223426   180.59990438
 H     22   6   5     2.090322160429   108.20894830   304.76341125
 H     22   6   5     2.091702490632   108.17289650    57.06993635
 C     22   6   5     2.892902399246   117.08692832   180.89650613
 H     25  22   6     2.089628119979   109.91168449   302.08501453
 H     25  22   6     2.090192096312   109.85747792    58.56124947
 C     25  22   6     2.897900007099   112.59519212   180.40380791
 H     28  25  22     2.089970762680   109.18126977   302.62769295
 H     28  25  22     2.090349266716   109.16458957    57.91587622
 C     28  25  22     2.892120986405   113.21970407   180.27451933
 H     31  28  25     2.086273787383   111.31679819    59.99337564
 H     31  28  25     2.085966223544   111.29473236   300.30012473
 C      1   2   3     2.297635949114   178.84603709   342.21745026
 H     34   1   5     2.026554973704   179.50064448   351.94937777
 H     19  16  13     2.082609997167   111.40579065   180.40040565
 H     31  28  25     2.082403210602   111.48462708   180.15533911

---------------------
BASIS SET INFORMATION
---------------------
There are 2 groups of distinct atoms

 Group   1 Type C   : 10s5p1d contracted to 6s2p1d pattern {511111/41/1}
 Group   2 Type H   : 6s1p contracted to 4s1p pattern {3111/1}

Atom   0C    basis set group =>   1
Atom   1C    basis set group =>   1
Atom   2C    basis set group =>   1
Atom   3C    basis set group =>   1
Atom   4C    basis set group =>   1
Atom   5C    basis set group =>   1
Atom   6C    basis set group =>   1
Atom   7H    basis set group =>   2
Atom   8H    basis set group =>   2
Atom   9C    basis set group =>   1
Atom  10H    basis set group =>   2
Atom  11H    basis set group =>   2
Atom  12C    basis set group =>   1
Atom  13H    basis set group =>   2
Atom  14H    basis set group =>   2
Atom  15C    basis set group =>   1
Atom  16H    basis set group =>   2
Atom  17H    basis set group =>   2
Atom  18C    basis set group =>   1
Atom  19H    basis set group =>   2
Atom  20H    basis set group =>   2
Atom  21C    basis set group =>   1
Atom  22H    basis set group =>   2
Atom  23H    basis set group =>   2
Atom  24C    basis set group =>   1
Atom  25H    basis set group =>   2
Atom  26H    basis set group =>   2
Atom  27C    basis set group =>   1
Atom  28H    basis set group =>   2
Atom  29H    basis set group =>   2
Atom  30C    basis set group =>   1
Atom  31H    basis set group =>   2
Atom  32H    basis set group =>   2
Atom  33C    basis set group =>   1
Atom  34H    basis set group =>   2
Atom  35H    basis set group =>   2
Atom  36H    basis set group =>   2
---------------------------------
AUXILIARY/J BASIS SET INFORMATION
---------------------------------
There are 2 groups of distinct atoms

 Group   1 Type C   : 17s13p12d2f contracted to 17s13p12d2f pattern {11111111111111111/1111111111111/111111111111/11}
 Group   2 Type H   : 15s6p1d contracted to 15s6p1d pattern {111111111111111/111111/1}

Atom   0C    basis set group =>   1
Atom   1C    basis set group =>   1
Atom   2C    basis set group =>   1
Atom   3C    basis set group =>   1
Atom   4C    basis set group =>   1
Atom   5C    basis set group =>   1
Atom   6C    basis set group =>   1
Atom   7H    basis set group =>   2
Atom   8H    basis set group =>   2
Atom   9C    basis set group =>   1
Atom  10H    basis set group =>   2
Atom  11H    basis set group =>   2
Atom  12C    basis set group =>   1
Atom  13H    basis set group =>   2
Atom  14H    basis set group =>   2
Atom  15C    basis set group =>   1
Atom  16H    basis set group =>   2
Atom  17H    basis set group =>   2
Atom  18C    basis set group =>   1
Atom  19H    basis set group =>   2
Atom  20H    basis set group =>   2
Atom  21C    basis set group =>   1
Atom  22H    basis set group =>   2
Atom  23H    basis set group =>   2
Atom  24C    basis set group =>   1
Atom  25H    basis set group =>   2
Atom  26H    basis set group =>   2
Atom  27C    basis set group =>   1
Atom  28H    basis set group =>   2
Atom  29H    basis set group =>   2
Atom  30C    basis set group =>   1
Atom  31H    basis set group =>   2
Atom  32H    basis set group =>   2
Atom  33C    basis set group =>   1
Atom  34H    basis set group =>   2
Atom  35H    basis set group =>   2
Atom  36H    basis set group =>   2
---------------------------------
AUXILIARY/C BASIS SET INFORMATION
---------------------------------
There are 2 groups of distinct atoms

 Group   1 Type C   : 17s13p12d2f contracted to 17s13p12d2f pattern {11111111111111111/1111111111111/111111111111/11}
 Group   2 Type H   : 15s6p1d contracted to 15s6p1d pattern {111111111111111/111111/1}

Atom   0C    basis set group =>   1
Atom   1C    basis set group =>   1
Atom   2C    basis set group =>   1
Atom   3C    basis set group =>   1
Atom   4C    basis set group =>   1
Atom   5C    basis set group =>   1
Atom   6C    basis set group =>   1
Atom   7H    basis set group =>   2
Atom   8H    basis set group =>   2
Atom   9C    basis set group =>   1
Atom  10H    basis set group =>   2
Atom  11H    basis set group =>   2
Atom  12C    basis set group =>   1
Atom  13H    basis set group =>   2
Atom  14H    basis set group =>   2
Atom  15C    basis set group =>   1
Atom  16H    basis set group =>   2
Atom  17H    basis set group =>   2
Atom  18C    basis set group =>   1
Atom  19H    basis set group =>   2
Atom  20H    basis set group =>   2
Atom  21C    basis set group =>   1
Atom  22H    basis set group =>   2
Atom  23H    basis set group =>   2
Atom  24C    basis set group =>   1
Atom  25H    basis set group =>   2
Atom  26H    basis set group =>   2
Atom  27C    basis set group =>   1
Atom  28H    basis set group =>   2
Atom  29H    basis set group =>   2
Atom  30C    basis set group =>   1
Atom  31H    basis set group =>   2
Atom  32H    basis set group =>   2
Atom  33C    basis set group =>   1
Atom  34H    basis set group =>   2
Atom  35H    basis set group =>   2
Atom  36H    basis set group =>   2
----------------------------------
AUXILIARY/JK BASIS SET INFORMATION
----------------------------------
There are 2 groups of distinct atoms

 Group   1 Type C   : 17s13p12d2f contracted to 17s13p12d2f pattern {11111111111111111/1111111111111/111111111111/11}
 Group   2 Type H   : 15s6p1d contracted to 15s6p1d pattern {111111111111111/111111/1}

Atom   0C    basis set group =>   1
Atom   1C    basis set group =>   1
Atom   2C    basis set group =>   1
Atom   3C    basis set group =>   1
Atom   4C    basis set group =>   1
Atom   5C    basis set group =>   1
Atom   6C    basis set group =>   1
Atom   7H    basis set group =>   2
Atom   8H    basis set group =>   2
Atom   9C    basis set group =>   1
Atom  10H    basis set group =>   2
Atom  11H    basis set group =>   2
Atom  12C    basis set group =>   1
Atom  13H    basis set group =>   2
Atom  14H    basis set group =>   2
Atom  15C    basis set group =>   1
Atom  16H    basis set group =>   2
Atom  17H    basis set group =>   2
Atom  18C    basis set group =>   1
Atom  19H    basis set group =>   2
Atom  20H    basis set group =>   2
Atom  21C    basis set group =>   1
Atom  22H    basis set group =>   2
Atom  23H    basis set group =>   2
Atom  24C    basis set group =>   1
Atom  25H    basis set group =>   2
Atom  26H    basis set group =>   2
Atom  27C    basis set group =>   1
Atom  28H    basis set group =>   2
Atom  29H    basis set group =>   2
Atom  30C    basis set group =>   1
Atom  31H    basis set group =>   2
Atom  32H    basis set group =>   2
Atom  33C    basis set group =>   1
Atom  34H    basis set group =>   2
Atom  35H    basis set group =>   2
Atom  36H    basis set group =>   2


           ************************************************************
           *        Program running with 16 parallel MPI-processes    *
           *              working on a common directory               *
           ************************************************************
------------------------------------------------------------------------------
                           ORCA GTO INTEGRAL CALCULATION
------------------------------------------------------------------------------

                         BASIS SET STATISTICS AND STARTUP INFO

 # of primitive gaussian shells          ...  403
 # of primitive gaussian functions       ...  669
 # of contracted shells                  ...  249
 # of contracted basis functions         ...  419
 Highest angular momentum                ...    2
 Maximum contraction depth               ...    5
 Integral package used                   ... LIBINT
 Integral threshhold            Thresh   ...  1.000e-10
 Primitive cut-off              TCut     ...  1.000e-11


------------------------------ INTEGRAL EVALUATION ----------------------------


 * One electron integrals 
 Pre-screening matrix                    ... done
 Shell pair data                         ... done (   0.007 sec)



           ************************************************************
           *        Program running with 16 parallel MPI-processes    *
           *              working on a common directory               *
           ************************************************************
-------------------------------------------------------------------------------
                                 ORCA SCF
-------------------------------------------------------------------------------

------------
SCF SETTINGS
------------
Hamiltonian:
 Density Functional     Method          .... DFT(GTOs)
 Exchange Functional    Exchange        .... B88
   X-Alpha parameter    XAlpha          ....  0.666667
   Becke's b parameter  XBeta           ....  0.004200
 Correlation Functional Correlation     .... LYP
 LDA part of GGA corr.  LDAOpt          .... VWN-5
 Gradients option       PostSCFGGA      .... off
 Hybrid DFT is turned on
   Fraction HF Exchange ScalHFX         ....  0.200000
   Scaling of DF-GGA-X  ScalDFX         ....  0.720000
   Scaling of DF-GGA-C  ScalDFC         ....  0.810000
   Scaling of DF-LDA-C  ScalLDAC        ....  1.000000
   Perturbative correction              ....  0.000000
   Density functional embedding theory  .... OFF
   NL short-range parameter             ....  4.800000


General Settings:
 Integral files         IntName         .... g-tensor_EPRII_invariant
 Hartree-Fock type      HFTyp           .... UHF
 Total Charge           Charge          ....    0
 Multiplicity           Mult            ....    2
 Number of Electrons    NEL             ....  117
 Basis Dimension        Dim             ....  419
 Nuclear Repulsion      ENuc            ....   1004.4709103533 Eh

Convergence Acceleration:
 DIIS                   CNVDIIS         .... on
   Start iteration      DIISMaxIt       ....    12
   Startup error        DIISStart       ....  0.200000
   # of expansion vecs  DIISMaxEq       ....     5
   Bias factor          DIISBfac        ....   1.050
   Max. coefficient     DIISMaxC        ....  10.000
 Newton-Raphson         CNVNR           .... off
 SOSCF                  CNVSOSCF        .... off
 Level Shifting         CNVShift        .... on
   Level shift para.    LevelShift      ....    0.2500
   Turn off err/grad.   ShiftErr        ....    0.0010
 Zerner damping         CNVZerner       .... off
 Static damping         CNVDamp         .... on
   Fraction old density DampFac         ....    0.7000
   Max. Damping (<1)    DampMax         ....    0.9800
   Min. Damping (>=0)   DampMin         ....    0.0000
   Turn off err/grad.   DampErr         ....    0.1000
 Fernandez-Rico         CNVRico         .... off

SCF Procedure:
 Maximum # iterations   MaxIter         ....   125
 SCF integral mode      SCFMode         .... Direct
   Integral package                     .... LIBINT
 Reset frequency        DirectResetFreq ....    20
 Integral Threshold     Thresh          ....  1.000e-10 Eh
 Primitive CutOff       TCut            ....  1.000e-11 Eh

Convergence Tolerance:
 Convergence Check Mode ConvCheckMode   .... Total+1el-Energy
 Convergence forced     ConvForced      .... 0
 Energy Change          TolE            ....  1.000e-06 Eh
 1-El. energy change                    ....  1.000e-03 Eh
 DIIS Error             TolErr          ....  1.000e-06


Diagonalization of the overlap matrix:
Smallest eigenvalue                        ... 1.429e-04
Time for diagonalization                   ...    0.042 sec
Threshold for overlap eigenvalues          ... 1.000e-08
Number of eigenvalues below threshold      ... 0
Time for construction of square roots      ...    0.045 sec
Total time needed                          ...    0.088 sec

-------------------
DFT GRID GENERATION
-------------------

General Integration Accuracy     IntAcc      ...  4.340
Radial Grid Type                 RadialGrid  ... Gauss-Chebyshev
Angular Grid (max. acc.)         AngularGrid ... Lebedev-110
Angular grid pruning method      GridPruning ... 3 (G Style)
Weight generation scheme         WeightScheme... Becke
Basis function cutoff            BFCut       ...    1.0000e-10
Integration weight cutoff        WCut        ...    1.0000e-14
Grids for H and He will be reduced by one unit

# of grid points (after initial pruning)     ...  43170 (   0.0 sec)
# of grid points (after weights+screening)   ...  38696 (   0.1 sec)
nearest neighbour list constructed           ...    0.0 sec
Grid point re-assignment to atoms done       ...    0.0 sec
Grid point division into batches done        ...    0.0 sec
Reduced shell lists constructed in    0.1 sec

Total number of grid points                  ...    38696
Total number of batches                      ...      624
Average number of points per batch           ...       62
Average number of grid points per atom       ...     1046
Average number of shells per batch           ...   110.08 (44.21%)
Average number of basis functions per batch  ...   212.73 (50.77%)
Average number of large shells per batch     ...    80.15 (72.81%)
Average number of large basis fcns per batch ...   155.75 (73.22%)
Maximum spatial batch extension              ...   4.76,  4.80, 16.86 au
Average spatial batch extension              ...   0.12,  0.12,  0.17 au

Time for grid setup =    0.242 sec

------------------------------
INITIAL GUESS: MODEL POTENTIAL
------------------------------
Loading Hartree-Fock densities                     ... done
Calculating cut-offs                               ... done
Setting up the integral package                    ... done
Initializing the effective Hamiltonian             ... done
Starting the Coulomb interaction                   ... done (   0.1 sec)
Reading the grid                                   ... done
Mapping shells                                     ... done
Starting the XC term evaluation                    ... done (   0.1 sec)
  promolecular density results
     # of electrons  =    116.992815324
     EX              =    -88.401180758
     EC              =     -3.814313634
     EX+EC           =    -92.215494392
Transforming the Hamiltonian                       ... done (   0.0 sec)
Diagonalizing the Hamiltonian                      ... done (   0.0 sec)
Back transforming the eigenvectors                 ... done (   0.0 sec)
Now organizing SCF variables                       ... done
                      ------------------
                      INITIAL GUESS DONE (   0.7 sec)
                      ------------------
--------------
SCF ITERATIONS
--------------
ITER       Energy         Delta-E        Max-DP      RMS-DP      [F,P]     Damp
               ***  Starting incremental Fock matrix formation  ***
  0   -621.5092235590   0.000000000000 0.05049230  0.00091767  0.1590740 0.7000
  1   -621.6924075347  -0.183183975663 0.03238697  0.00067605  0.0851382 0.7000
                               ***Turning on DIIS***
  2   -621.7737424051  -0.081334870340 0.08714840  0.00137123  0.0330181 0.0000
  3   -621.8865018429  -0.112759437853 0.02514300  0.00039589  0.0467118 0.0000
  4   -621.9188723977  -0.032370554776 0.02235091  0.00019293  0.0103436 0.0000
  5   -621.9204899567  -0.001617558981 0.01298211  0.00009547  0.0027148 0.0000
  6   -621.9207625044  -0.000272547693 0.00503076  0.00004047  0.0014593 0.0000
  7   -621.9208650650  -0.000102560672 0.00228875  0.00001966  0.0010227 0.0000
  8   -621.9209175043  -0.000052439262 0.00352992  0.00002702  0.0007592 0.0000
  9   -621.9209765600  -0.000059055698 0.00108602  0.00000773  0.0003510 0.0000
 10   -621.9209847788  -0.000008218838 0.00060734  0.00000445  0.0003876 0.0000
 11   -621.9209879677  -0.000003188920 0.00038874  0.00000248  0.0001339 0.0000
 12   -621.9209891784  -0.000001210619 0.00025127  0.00000164  0.0000591 0.0000
                 **** Energy Check signals convergence ****

               *****************************************************
               *                     SUCCESS                       *
               *           SCF CONVERGED AFTER  13 CYCLES          *
               *****************************************************

Setting up the final grid:

General Integration Accuracy     IntAcc      ...  4.670
Radial Grid Type                 RadialGrid  ... Gauss-Chebyshev
Angular Grid (max. acc.)         AngularGrid ... Lebedev-302
Angular grid pruning method      GridPruning ... 3 (G Style)
Weight generation scheme         WeightScheme... Becke
Basis function cutoff            BFCut       ...    1.0000e-10
Integration weight cutoff        WCut        ...    1.0000e-14
Grids for H and He will be reduced by one unit

# of grid points (after initial pruning)     ... 170666 (   0.0 sec)
# of grid points (after weights+screening)   ... 150009 (   0.3 sec)
nearest neighbour list constructed           ...    0.0 sec
Grid point re-assignment to atoms done       ...    0.0 sec
Grid point division into batches done        ...    0.6 sec
Reduced shell lists constructed in    0.8 sec

Total number of grid points                  ...   150009
Total number of batches                      ...     2358
Average number of points per batch           ...       63
Average number of grid points per atom       ...     4054
Average number of shells per batch           ...   104.74 (42.06%)
Average number of basis functions per batch  ...   203.44 (48.55%)
Average number of large shells per batch     ...    75.71 (72.29%)
Average number of large basis fcns per batch ...   147.46 (72.48%)
Maximum spatial batch extension              ...   5.77,  5.44, 17.10 au
Average spatial batch extension              ...   0.08,  0.09,  0.11 au

Final grid set up in    1.2 sec
Final integration                            ... done (   0.6 sec)
Change in XC energy                          ...     0.000937526
Integrated number of electrons               ...   116.999979516
Previous integrated no of electrons          ...   117.006234697

----------------
TOTAL SCF ENERGY
----------------

Total Energy       :         -621.92005225 Eh          -16923.30499 eV

Components:
Nuclear Repulsion  :         1004.47091035 Eh           27333.04306 eV
Electronic Energy  :        -1626.39096261 Eh          -44256.34804 eV
One Electron Energy:        -2831.04230351 Eh          -77036.57754 eV
Two Electron Energy:         1204.65134090 Eh           32780.22950 eV

Virial components:
Potential Energy   :        -1238.86918230 Eh          -33711.34430 eV
Kinetic Energy     :          616.94913005 Eh           16788.03932 eV
Virial Ratio       :            2.00805726


DFT components:
N(Alpha)           :       58.999986397080 electrons
N(Beta)            :       57.999993118470 electrons
N(Total)           :      116.999979515550 electrons
E(X)               :      -71.555943145164 Eh       
E(C)               :       -4.509913758934 Eh       
E(XC)              :      -76.065856904098 Eh       
DFET-embed. en.    :        0.000000000000 Eh       

---------------
SCF CONVERGENCE
---------------

  Last Energy change         ...   -6.0273e-07  Tolerance :   1.0000e-06
  Last MAX-Density change    ...    2.4172e-04  Tolerance :   1.0000e-05
  Last RMS-Density change    ...    1.6061e-06  Tolerance :   1.0000e-06
  Last DIIS Error            ...    2.7292e-05  Tolerance :   1.0000e-06

             **** THE GBW FILE WAS UPDATED (g-tensor_EPRII_invariant.gbw) ****
             **** DENSITY FILE WAS UPDATED (g-tensor_EPRII_invariant.scfp) ****
             **** ENERGY FILE WAS UPDATED (g-tensor_EPRII_invariant.en.tmp) ****
----------------------
UHF SPIN CONTAMINATION
----------------------

Warning: in a DFT calculation there is little theoretical justification to 
         calculate <S**2> as in Hartree-Fock theory. We will do it anyways
         but you should keep in mind that the values have only limited relevance

Expectation value of <S**2>     :     0.783997
Ideal value S*(S+1) for S=0.5   :     0.750000
Deviation                       :     0.033997

             **** THE GBW FILE WAS UPDATED (g-tensor_EPRII_invariant.gbw) ****
             **** DENSITY FILE WAS UPDATED (g-tensor_EPRII_invariant.scfp) ****
----------------
ORBITAL ENERGIES
----------------
                 SPIN UP ORBITALS
  NO   OCC          E(Eh)            E(eV) 
   0   1.0000     -10.216917      -278.0164 
   1   1.0000     -10.210682      -277.8468 
   2   1.0000     -10.206299      -277.7275 
   3   1.0000     -10.205709      -277.7115 
   4   1.0000     -10.202784      -277.6319 
   5   1.0000     -10.200523      -277.5704 
   6   1.0000     -10.193411      -277.3768 
   7   1.0000     -10.193035      -277.3666 
   8   1.0000     -10.189812      -277.2789 
   9   1.0000     -10.187989      -277.2293 
  10   1.0000     -10.186997      -277.2023 
  11   1.0000     -10.185383      -277.1584 
  12   1.0000     -10.182891      -277.0905 
  13   1.0000     -10.182603      -277.0827 
  14   1.0000     -10.175845      -276.8988 
  15   1.0000     -10.173807      -276.8434 
  16   1.0000      -0.868918       -23.6445 
  17   1.0000      -0.813697       -22.1418 
  18   1.0000      -0.796051       -21.6616 
  19   1.0000      -0.775874       -21.1126 
  20   1.0000      -0.764036       -20.7905 
  21   1.0000      -0.732073       -19.9207 
  22   1.0000      -0.723713       -19.6932 
  23   1.0000      -0.684109       -18.6156 
  24   1.0000      -0.669057       -18.2060 
  25   1.0000      -0.623948       -16.9785 
  26   1.0000      -0.611291       -16.6341 
  27   1.0000      -0.591149       -16.0860 
  28   1.0000      -0.576058       -15.6753 
  29   1.0000      -0.564934       -15.3726 
  30   1.0000      -0.526342       -14.3225 
  31   1.0000      -0.494091       -13.4449 
  32   1.0000      -0.489811       -13.3284 
  33   1.0000      -0.470240       -12.7959 
  34   1.0000      -0.457575       -12.4512 
  35   1.0000      -0.447970       -12.1899 
  36   1.0000      -0.428534       -11.6610 
  37   1.0000      -0.421800       -11.4777 
  38   1.0000      -0.420839       -11.4516 
  39   1.0000      -0.418055       -11.3758 
  40   1.0000      -0.411242       -11.1905 
  41   1.0000      -0.400470       -10.8973 
  42   1.0000      -0.387300       -10.5390 
  43   1.0000      -0.380132       -10.3439 
  44   1.0000      -0.374508       -10.1909 
  45   1.0000      -0.366824        -9.9818 
  46   1.0000      -0.352036        -9.5794 
  47   1.0000      -0.350833        -9.5466 
  48   1.0000      -0.339405        -9.2357 
  49   1.0000      -0.334771        -9.1096 
  50   1.0000      -0.328290        -8.9332 
  51   1.0000      -0.322862        -8.7855 
  52   1.0000      -0.321994        -8.7619 
  53   1.0000      -0.321228        -8.7411 
  54   1.0000      -0.306750        -8.3471 
  55   1.0000      -0.276243        -7.5170 
  56   1.0000      -0.273925        -7.4539 
  57   1.0000      -0.234273        -6.3749 
  58   1.0000      -0.178317        -4.8523 
  59   0.0000      -0.033421        -0.9094 
  60   0.0000       0.006704         0.1824 
  61   0.0000       0.016347         0.4448 
  62   0.0000       0.022799         0.6204 
  63   0.0000       0.025605         0.6967 
  64   0.0000       0.036847         1.0027 
  65   0.0000       0.038363         1.0439 
  66   0.0000       0.042858         1.1662 
  67   0.0000       0.045923         1.2496 
  68   0.0000       0.049590         1.3494 
  69   0.0000       0.061496         1.6734 
  70   0.0000       0.073609         2.0030 
  71   0.0000       0.076555         2.0832 
  72   0.0000       0.086667         2.3583 
  73   0.0000       0.095392         2.5958 
  74   0.0000       0.111024         3.0211 
  75   0.0000       0.120572         3.2809 
  76   0.0000       0.130365         3.5474 
  77   0.0000       0.142572         3.8796 
  78   0.0000       0.151293         4.1169 
  79   0.0000       0.157776         4.2933 
  80   0.0000       0.168409         4.5827 
  81   0.0000       0.175476         4.7749 
  82   0.0000       0.181521         4.9394 
  83   0.0000       0.184428         5.0185 
  84   0.0000       0.192163         5.2290 
  85   0.0000       0.195285         5.3140 
  86   0.0000       0.197355         5.3703 
  87   0.0000       0.199245         5.4217 
  88   0.0000       0.201906         5.4941 
  89   0.0000       0.213505         5.8098 
  90   0.0000       0.214310         5.8317 
  91   0.0000       0.217363         5.9148 
  92   0.0000       0.218894         5.9564 
  93   0.0000       0.226178         6.1546 
  94   0.0000       0.227950         6.2028 
  95   0.0000       0.235542         6.4094 
  96   0.0000       0.239976         6.5301 
  97   0.0000       0.244981         6.6663 
  98   0.0000       0.252202         6.8628 
  99   0.0000       0.260175         7.0797 
 100   0.0000       0.266716         7.2577 
 101   0.0000       0.267893         7.2898 
 102   0.0000       0.278189         7.5699 
 103   0.0000       0.281929         7.6717 
 104   0.0000       0.284825         7.7505 
 105   0.0000       0.287347         7.8191 
 106   0.0000       0.291091         7.9210 
 107   0.0000       0.294906         8.0248 
 108   0.0000       0.298285         8.1168 
 109   0.0000       0.303513         8.2590 
 110   0.0000       0.308294         8.3891 
 111   0.0000       0.312319         8.4986 
 112   0.0000       0.322638         8.7794 
 113   0.0000       0.330182         8.9847 
 114   0.0000       0.332319         9.0429 
 115   0.0000       0.338999         9.2246 
 116   0.0000       0.347018         9.4429 
 117   0.0000       0.351632         9.5684 
 118   0.0000       0.356573         9.7028 
 119   0.0000       0.361750         9.8437 
 120   0.0000       0.364200         9.9104 
 121   0.0000       0.369625        10.0580 
 122   0.0000       0.372994        10.1497 
 123   0.0000       0.381763        10.3883 
 124   0.0000       0.399019        10.8579 
 125   0.0000       0.402452        10.9513 
 126   0.0000       0.411080        11.1861 
 127   0.0000       0.413589        11.2543 
 128   0.0000       0.423566        11.5258 
 129   0.0000       0.429952        11.6996 
 130   0.0000       0.437224        11.8975 
 131   0.0000       0.443829        12.0772 
 132   0.0000       0.446605        12.1527 
 133   0.0000       0.451239        12.2788 
 134   0.0000       0.463346        12.6083 
 135   0.0000       0.472376        12.8540 
 136   0.0000       0.476816        12.9748 
 137   0.0000       0.484878        13.1942 
 138   0.0000       0.490025        13.3342 
 139   0.0000       0.498162        13.5557 
 140   0.0000       0.500427        13.6173 
 141   0.0000       0.503202        13.6928 
 142   0.0000       0.510804        13.8997 
 143   0.0000       0.531925        14.4744 
 144   0.0000       0.540719        14.7137 
 145   0.0000       0.546369        14.8675 
 146   0.0000       0.557267        15.1640 
 147   0.0000       0.561952        15.2915 
 148   0.0000       0.574080        15.6215 
 149   0.0000       0.584226        15.8976 
 150   0.0000       0.592917        16.1341 
 151   0.0000       0.595175        16.1955 
 152   0.0000       0.604072        16.4376 
 153   0.0000       0.615404        16.7460 
 154   0.0000       0.622446        16.9376 
 155   0.0000       0.639806        17.4100 
 156   0.0000       0.661254        17.9936 
 157   0.0000       0.673445        18.3254 
 158   0.0000       0.689925        18.7738 
 159   0.0000       0.719174        19.5697 
 160   0.0000       0.765041        20.8178 
 161   0.0000       0.769675        20.9439 
 162   0.0000       0.782637        21.2966 
 163   0.0000       0.785336        21.3701 
 164   0.0000       0.804797        21.8996 
 165   0.0000       0.818249        22.2657 
 166   0.0000       0.822651        22.3855 
 167   0.0000       0.832560        22.6551 
 168   0.0000       0.844652        22.9841 
 169   0.0000       0.850788        23.1511 
 170   0.0000       0.859770        23.3955 
 171   0.0000       0.868980        23.6461 
 172   0.0000       0.872124        23.7317 
 173   0.0000       0.883658        24.0456 
 174   0.0000       0.886422        24.1208 
 175   0.0000       0.899309        24.4714 
 176   0.0000       0.902119        24.5479 
 177   0.0000       0.918004        24.9802 
 178   0.0000       0.921304        25.0700 
 179   0.0000       0.922613        25.1056 
 180   0.0000       0.927225        25.2311 
 181   0.0000       0.934831        25.4380 
 182   0.0000       0.937953        25.5230 
 183   0.0000       0.943583        25.6762 
 184   0.0000       0.946389        25.7526 
 185   0.0000       0.957586        26.0572 
 186   0.0000       0.968667        26.3588 
 187   0.0000       0.971579        26.4380 
 188   0.0000       0.976457        26.5707 
 189   0.0000       0.991160        26.9708 
 190   0.0000       0.997062        27.1314 
 191   0.0000       1.004854        27.3435 
 192   0.0000       1.013643        27.5826 
 193   0.0000       1.015492        27.6330 
 194   0.0000       1.025112        27.8947 
 195   0.0000       1.027659        27.9640 
 196   0.0000       1.051529        28.6136 
 197   0.0000       1.054836        28.7036 
 198   0.0000       1.057560        28.7777 
 199   0.0000       1.067020        29.0351 
 200   0.0000       1.069539        29.1036 
 201   0.0000       1.089275        29.6407 
 202   0.0000       1.090980        29.6871 
 203   0.0000       1.099450        29.9176 
 204   0.0000       1.106555        30.1109 
 205   0.0000       1.110409        30.2158 
 206   0.0000       1.135018        30.8854 
 207   0.0000       1.148910        31.2634 
 208   0.0000       1.168288        31.7907 
 209   0.0000       1.175166        31.9779 
 210   0.0000       1.180835        32.1322 
 211   0.0000       1.192525        32.4502 
 212   0.0000       1.201466        32.6935 
 213   0.0000       1.210010        32.9261 
 214   0.0000       1.224035        33.3077 
 215   0.0000       1.244542        33.8657 
 216   0.0000       1.247742        33.9528 
 217   0.0000       1.258978        34.2585 
 218   0.0000       1.265091        34.4249 
 219   0.0000       1.277669        34.7671 
 220   0.0000       1.288172        35.0529 
 221   0.0000       1.310859        35.6703 
 222   0.0000       1.320167        35.9236 
 223   0.0000       1.342493        36.5311 
 224   0.0000       1.346157        36.6308 
 225   0.0000       1.360254        37.0144 
 226   0.0000       1.378108        37.5002 
 227   0.0000       1.383921        37.6584 
 228   0.0000       1.395140        37.9637 
 229   0.0000       1.405015        38.2324 
 230   0.0000       1.418662        38.6038 
 231   0.0000       1.425112        38.7793 
 232   0.0000       1.427460        38.8432 
 233   0.0000       1.434282        39.0288 
 234   0.0000       1.440877        39.2083 
 235   0.0000       1.451218        39.4896 
 236   0.0000       1.458540        39.6889 
 237   0.0000       1.473653        40.1001 
 238   0.0000       1.480716        40.2923 
 239   0.0000       1.499908        40.8146 
 240   0.0000       1.500409        40.8282 
 241   0.0000       1.516502        41.2661 
 242   0.0000       1.525534        41.5119 
 243   0.0000       1.526831        41.5472 
 244   0.0000       1.544629        42.0315 
 245   0.0000       1.556672        42.3592 
 246   0.0000       1.561841        42.4998 
 247   0.0000       1.572982        42.8030 
 248   0.0000       1.581476        43.0341 
 249   0.0000       1.590338        43.2753 
 250   0.0000       1.596884        43.4534 
 251   0.0000       1.604889        43.6712 
 252   0.0000       1.608018        43.7564 
 253   0.0000       1.616485        43.9868 
 254   0.0000       1.620729        44.1023 
 255   0.0000       1.634996        44.4905 
 256   0.0000       1.638855        44.5955 
 257   0.0000       1.645517        44.7768 
 258   0.0000       1.651890        44.9502 
 259   0.0000       1.670650        45.4607 
 260   0.0000       1.674760        45.5725 
 261   0.0000       1.687218        45.9115 
 262   0.0000       1.699296        46.2402 
 263   0.0000       1.703946        46.3667 
 264   0.0000       1.715659        46.6855 
 265   0.0000       1.720471        46.8164 
 266   0.0000       1.725213        46.9454 
 267   0.0000       1.734417        47.1959 
 268   0.0000       1.747940        47.5639 
 269   0.0000       1.752726        47.6941 
 270   0.0000       1.760855        47.9153 
 271   0.0000       1.764176        48.0057 
 272   0.0000       1.774754        48.2935 
 273   0.0000       1.783324        48.5267 
 274   0.0000       1.791604        48.7520 
 275   0.0000       1.804935        49.1148 
 276   0.0000       1.815599        49.4050 
 277   0.0000       1.826985        49.7148 
 278   0.0000       1.836249        49.9669 
 279   0.0000       1.857331        50.5406 
 280   0.0000       1.865687        50.7679 
 281   0.0000       1.883987        51.2659 
 282   0.0000       1.913192        52.0606 
 283   0.0000       1.918361        52.2013 
 284   0.0000       1.929094        52.4933 
 285   0.0000       1.942275        52.8520 
 286   0.0000       1.951622        53.1063 
 287   0.0000       1.966981        53.5243 
 288   0.0000       1.975340        53.7517 
 289   0.0000       2.018691        54.9314 
 290   0.0000       2.044434        55.6319 
 291   0.0000       2.047584        55.7176 
 292   0.0000       2.055631        55.9366 
 293   0.0000       2.063941        56.1627 
 294   0.0000       2.079717        56.5920 
 295   0.0000       2.100643        57.1614 
 296   0.0000       2.106335        57.3163 
 297   0.0000       2.121030        57.7161 
 298   0.0000       2.154038        58.6144 
 299   0.0000       2.167192        58.9723 
 300   0.0000       2.189891        59.5900 
 301   0.0000       2.210503        60.1508 
 302   0.0000       2.228523        60.6412 
 303   0.0000       2.236302        60.8529 
 304   0.0000       2.237103        60.8747 
 305   0.0000       2.250289        61.2335 
 306   0.0000       2.254916        61.3594 
 307   0.0000       2.261168        61.5295 
 308   0.0000       2.272154        61.8285 
 309   0.0000       2.293770        62.4167 
 310   0.0000       2.308907        62.8286 
 311   0.0000       2.312717        62.9322 
 312   0.0000       2.323846        63.2351 
 313   0.0000       2.328858        63.3714 
 314   0.0000       2.347180        63.8700 
 315   0.0000       2.352762        64.0219 
 316   0.0000       2.388202        64.9863 
 317   0.0000       2.406995        65.4977 
 318   0.0000       2.412642        65.6513 
 319   0.0000       2.429094        66.0990 
 320   0.0000       2.441677        66.4414 
 321   0.0000       2.452819        66.7446 
 322   0.0000       2.455714        66.8234 
 323   0.0000       2.469813        67.2070 
 324   0.0000       2.476739        67.3955 
 325   0.0000       2.488951        67.7278 
 326   0.0000       2.507036        68.2199 
 327   0.0000       2.516988        68.4907 
 328   0.0000       2.527896        68.7875 
 329   0.0000       2.537089        69.0377 
 330   0.0000       2.551771        69.4372 
 331   0.0000       2.567506        69.8654 
 332   0.0000       2.579934        70.2036 
 333   0.0000       2.588955        70.4490 
 334   0.0000       2.608035        70.9683 
 335   0.0000       2.621069        71.3229 
 336   0.0000       2.625156        71.4341 
 337   0.0000       2.644608        71.9634 
 338   0.0000       2.726408        74.1893 
 339   0.0000       2.764500        75.2259 
 340   0.0000       2.797150        76.1143 
 341   0.0000       2.873154        78.1825 
 342   0.0000       2.947631        80.2091 
 343   0.0000       2.966493        80.7224 
 344   0.0000       3.261484        88.7495 
 345   0.0000       4.984511       135.6354 
 346   0.0000       5.001404       136.0951 
 347   0.0000       5.006152       136.2243 
 348   0.0000       5.009591       136.3179 
 349   0.0000       5.010940       136.3546 
 350   0.0000       5.019353       136.5835 
 351   0.0000       5.031979       136.9271 
 352   0.0000       5.043761       137.2477 
 353   0.0000       5.047938       137.3614 
 354   0.0000       5.084170       138.3473 
 355   0.0000       5.104266       138.8941 
 356   0.0000       5.222434       142.1096 
 357   0.0000       5.231984       142.3695 
 358   0.0000       5.234797       142.4461 
 359   0.0000       5.270734       143.4240 
 360   0.0000       5.280966       143.7024 
 361   0.0000       5.292232       144.0090 
 362   0.0000       5.303218       144.3079 
 363   0.0000       5.309545       144.4801 
 364   0.0000       5.322389       144.8296 
 365   0.0000       5.356303       145.7524 
 366   0.0000       5.369865       146.1214 
 367   0.0000       5.392601       146.7401 
 368   0.0000       5.413573       147.3108 
 369   0.0000       5.483146       149.2040 
 370   0.0000       5.546795       150.9360 
 371   0.0000       5.567338       151.4950 
 372   0.0000       5.606561       152.5623 
 373   0.0000       5.623260       153.0167 
 374   0.0000       5.666249       154.1865 
 375   0.0000       5.707683       155.3139 
 376   0.0000       5.739756       156.1867 
 377   0.0000       5.803003       157.9077 
 378   0.0000       5.844565       159.0387 
 379   0.0000       5.872296       159.7933 
 380   0.0000       6.059191       164.8790 
 381   0.0000       6.323875       172.0814 
 382   0.0000      29.630912       806.2981 
 383   0.0000      29.788379       810.5830 
 384   0.0000      29.836031       811.8797 
 385   0.0000      29.921566       814.2072 
 386   0.0000      29.972346       815.5890 
 387   0.0000      29.982863       815.8752 
 388   0.0000      30.048344       817.6570 
 389   0.0000      30.069287       818.2269 
 390   0.0000      30.090209       818.7962 
 391   0.0000      30.111289       819.3698 
 392   0.0000      30.148619       820.3856 
 393   0.0000      30.213561       822.1528 
 394   0.0000      30.249054       823.1186 
 395   0.0000      30.278315       823.9148 
 396   0.0000      30.353960       825.9732 
 397   0.0000      30.548763       831.2741 
 398   0.0000      36.612763       996.2839 
 399   0.0000      36.628871       996.7223 
 400   0.0000      36.630438       996.7649 
 401   0.0000      36.633794       996.8562 
 402   0.0000      36.638068       996.9725 
 403   0.0000      36.658611       997.5315 
 404   0.0000      36.670840       997.8643 
 405   0.0000      36.674198       997.9557 
 406   0.0000      36.706939       998.8466 
 407   0.0000      36.717057       999.1219 
 408   0.0000      36.820635      1001.9404 
 409   0.0000      36.844882      1002.6002 
 410   0.0000      36.850283      1002.7472 
 411   0.0000      36.875884      1003.4438 
 412   0.0000      36.879105      1003.5315 
 413   0.0000      36.885206      1003.6975 
 414   0.0000      36.912498      1004.4401 
 415   0.0000      36.932539      1004.9855 
 416   0.0000      36.933727      1005.0178 
 417   0.0000      36.964672      1005.8599 
 418   0.0000      37.010729      1007.1131 

                 SPIN DOWN ORBITALS
  NO   OCC          E(Eh)            E(eV) 
   0   1.0000     -10.218464      -278.0585 
   1   1.0000     -10.208216      -277.7797 
   2   1.0000     -10.206940      -277.7449 
   3   1.0000     -10.202679      -277.6290 
   4   1.0000     -10.202442      -277.6226 
   5   1.0000     -10.197264      -277.4817 
   6   1.0000     -10.193961      -277.3918 
   7   1.0000     -10.191385      -277.3217 
   8   1.0000     -10.188214      -277.2354 
   9   1.0000     -10.187210      -277.2081 
  10   1.0000     -10.185116      -277.1511 
  11   1.0000     -10.183113      -277.0966 
  12   1.0000     -10.182889      -277.0905 
  13   1.0000     -10.182604      -277.0827 
  14   1.0000     -10.175831      -276.8984 
  15   1.0000     -10.173809      -276.8434 
  16   1.0000      -0.865216       -23.5437 
  17   1.0000      -0.810523       -22.0555 
  18   1.0000      -0.795135       -21.6367 
  19   1.0000      -0.772718       -21.0267 
  20   1.0000      -0.762479       -20.7481 
  21   1.0000      -0.730142       -19.8682 
  22   1.0000      -0.719973       -19.5915 
  23   1.0000      -0.681932       -18.5563 
  24   1.0000      -0.661779       -18.0079 
  25   1.0000      -0.617745       -16.8097 
  26   1.0000      -0.608711       -16.5639 
  27   1.0000      -0.589489       -16.0408 
  28   1.0000      -0.575197       -15.6519 
  29   1.0000      -0.563498       -15.3336 
  30   1.0000      -0.524426       -14.2704 
  31   1.0000      -0.492465       -13.4007 
  32   1.0000      -0.487878       -13.2758 
  33   1.0000      -0.469325       -12.7710 
  34   1.0000      -0.455428       -12.3928 
  35   1.0000      -0.447368       -12.1735 
  36   1.0000      -0.427117       -11.6224 
  37   1.0000      -0.419766       -11.4224 
  38   1.0000      -0.418640       -11.3918 
  39   1.0000      -0.415879       -11.3166 
  40   1.0000      -0.409288       -11.1373 
  41   1.0000      -0.397199       -10.8083 
  42   1.0000      -0.384437       -10.4611 
  43   1.0000      -0.377805       -10.2806 
  44   1.0000      -0.371706       -10.1146 
  45   1.0000      -0.365659        -9.9501 
  46   1.0000      -0.350929        -9.5493 
  47   1.0000      -0.347625        -9.4594 
  48   1.0000      -0.337973        -9.1967 
  49   1.0000      -0.334095        -9.0912 
  50   1.0000      -0.327654        -8.9159 
  51   1.0000      -0.322116        -8.7652 
  52   1.0000      -0.321170        -8.7395 
  53   1.0000      -0.320314        -8.7162 
  54   1.0000      -0.302161        -8.2222 
  55   1.0000      -0.273826        -7.4512 
  56   1.0000      -0.258339        -7.0298 
  57   1.0000      -0.226128        -6.1532 
  58   0.0000      -0.083567        -2.2740 
  59   0.0000      -0.023167        -0.6304 
  60   0.0000       0.016570         0.4509 
  61   0.0000       0.020719         0.5638 
  62   0.0000       0.023204         0.6314 
  63   0.0000       0.026195         0.7128 
  64   0.0000       0.037929         1.0321 
  65   0.0000       0.038447         1.0462 
  66   0.0000       0.043382         1.1805 
  67   0.0000       0.046474         1.2646 
  68   0.0000       0.051710         1.4071 
  69   0.0000       0.062177         1.6919 
  70   0.0000       0.073738         2.0065 
  71   0.0000       0.077203         2.1008 
  72   0.0000       0.090418         2.4604 
  73   0.0000       0.096097         2.6149 
  74   0.0000       0.111627         3.0375 
  75   0.0000       0.121179         3.2974 
  76   0.0000       0.131488         3.5780 
  77   0.0000       0.143435         3.9031 
  78   0.0000       0.154197         4.1959 
  79   0.0000       0.159500         4.3402 
  80   0.0000       0.169938         4.6242 
  81   0.0000       0.176447         4.8014 
  82   0.0000       0.181981         4.9520 
  83   0.0000       0.185437         5.0460 
  84   0.0000       0.192860         5.2480 
  85   0.0000       0.196479         5.3465 
  86   0.0000       0.198374         5.3980 
  87   0.0000       0.199491         5.4284 
  88   0.0000       0.203031         5.5247 
  89   0.0000       0.214211         5.8290 
  90   0.0000       0.216560         5.8929 
  91   0.0000       0.217883         5.9289 
  92   0.0000       0.220482         5.9996 
  93   0.0000       0.226751         6.1702 
  94   0.0000       0.229800         6.2532 
  95   0.0000       0.236695         6.4408 
  96   0.0000       0.240581         6.5466 
  97   0.0000       0.246521         6.7082 
  98   0.0000       0.253006         6.8847 
  99   0.0000       0.261249         7.1090 
 100   0.0000       0.268883         7.3167 
 101   0.0000       0.269897         7.3443 
 102   0.0000       0.278449         7.5770 
 103   0.0000       0.283878         7.7247 
 104   0.0000       0.286292         7.7904 
 105   0.0000       0.288420         7.8483 
 106   0.0000       0.293894         7.9973 
 107   0.0000       0.295681         8.0459 
 108   0.0000       0.299726         8.1560 
 109   0.0000       0.305520         8.3136 
 110   0.0000       0.309601         8.4247 
 111   0.0000       0.313588         8.5332 
 112   0.0000       0.325087         8.8461 
 113   0.0000       0.331313         9.0155 
 114   0.0000       0.336969         9.1694 
 115   0.0000       0.343801         9.3553 
 116   0.0000       0.347920         9.4674 
 117   0.0000       0.353444         9.6177 
 118   0.0000       0.359534         9.7834 
 119   0.0000       0.364753         9.9254 
 120   0.0000       0.366375         9.9696 
 121   0.0000       0.370378        10.0785 
 122   0.0000       0.377749        10.2791 
 123   0.0000       0.390633        10.6297 
 124   0.0000       0.401213        10.9176 
 125   0.0000       0.403408        10.9773 
 126   0.0000       0.412414        11.2224 
 127   0.0000       0.415568        11.3082 
 128   0.0000       0.430264        11.7081 
 129   0.0000       0.431134        11.7317 
 130   0.0000       0.439491        11.9592 
 131   0.0000       0.444913        12.1067 
 132   0.0000       0.449086        12.2202 
 133   0.0000       0.452380        12.3099 
 134   0.0000       0.463967        12.6252 
 135   0.0000       0.473265        12.8782 
 136   0.0000       0.478398        13.0179 
 137   0.0000       0.484681        13.1888 
 138   0.0000       0.491448        13.3730 
 139   0.0000       0.497918        13.5490 
 140   0.0000       0.502188        13.6652 
 141   0.0000       0.505903        13.7663 
 142   0.0000       0.514674        14.0050 
 143   0.0000       0.533208        14.5093 
 144   0.0000       0.542091        14.7510 
 145   0.0000       0.548470        14.9246 
 146   0.0000       0.559545        15.2260 
 147   0.0000       0.562572        15.3084 
 148   0.0000       0.574979        15.6460 
 149   0.0000       0.584516        15.9055 
 150   0.0000       0.593790        16.1579 
 151   0.0000       0.596433        16.2298 
 152   0.0000       0.606004        16.4902 
 153   0.0000       0.616282        16.7699 
 154   0.0000       0.624835        17.0026 
 155   0.0000       0.645809        17.5734 
 156   0.0000       0.662979        18.0406 
 157   0.0000       0.675182        18.3726 
 158   0.0000       0.691301        18.8113 
 159   0.0000       0.720617        19.6090 
 160   0.0000       0.766318        20.8526 
 161   0.0000       0.770570        20.9683 
 162   0.0000       0.785547        21.3758 
 163   0.0000       0.787320        21.4241 
 164   0.0000       0.805411        21.9164 
 165   0.0000       0.819747        22.3064 
 166   0.0000       0.824539        22.4368 
 167   0.0000       0.834238        22.7008 
 168   0.0000       0.845047        22.9949 
 169   0.0000       0.852784        23.2054 
 170   0.0000       0.860779        23.4230 
 171   0.0000       0.869926        23.6719 
 172   0.0000       0.872219        23.7343 
 173   0.0000       0.886142        24.1132 
 174   0.0000       0.888742        24.1839 
 175   0.0000       0.902717        24.5642 
 176   0.0000       0.904334        24.6082 
 177   0.0000       0.920520        25.0486 
 178   0.0000       0.922456        25.1013 
 179   0.0000       0.925167        25.1751 
 180   0.0000       0.930522        25.3208 
 181   0.0000       0.936593        25.4860 
 182   0.0000       0.938620        25.5411 
 183   0.0000       0.944699        25.7066 
 184   0.0000       0.948416        25.8077 
 185   0.0000       0.960947        26.1487 
 186   0.0000       0.969355        26.3775 
 187   0.0000       0.975681        26.5496 
 188   0.0000       0.979540        26.6546 
 189   0.0000       0.992127        26.9971 
 190   0.0000       0.999630        27.2013 
 191   0.0000       1.009676        27.4747 
 192   0.0000       1.015148        27.6236 
 193   0.0000       1.021500        27.7964 
 194   0.0000       1.025973        27.9181 
 195   0.0000       1.029446        28.0127 
 196   0.0000       1.056080        28.7374 
 197   0.0000       1.056957        28.7613 
 198   0.0000       1.061257        28.8783 
 199   0.0000       1.067883        29.0586 
 200   0.0000       1.072387        29.1811 
 201   0.0000       1.091747        29.7079 
 202   0.0000       1.092237        29.7213 
 203   0.0000       1.104672        30.0597 
 204   0.0000       1.108585        30.1661 
 205   0.0000       1.110845        30.2276 
 206   0.0000       1.136935        30.9376 
 207   0.0000       1.149614        31.2826 
 208   0.0000       1.170574        31.8530 
 209   0.0000       1.175882        31.9974 
 210   0.0000       1.181980        32.1633 
 211   0.0000       1.194674        32.5087 
 212   0.0000       1.201864        32.7044 
 213   0.0000       1.210347        32.9352 
 214   0.0000       1.224684        33.3253 
 215   0.0000       1.245846        33.9012 
 216   0.0000       1.249261        33.9941 
 217   0.0000       1.261177        34.3184 
 218   0.0000       1.266679        34.4681 
 219   0.0000       1.279850        34.8265 
 220   0.0000       1.290352        35.1123 
 221   0.0000       1.311575        35.6898 
 222   0.0000       1.322214        35.9793 
 223   0.0000       1.344947        36.5979 
 224   0.0000       1.348298        36.6890 
 225   0.0000       1.360914        37.0323 
 226   0.0000       1.382096        37.6088 
 227   0.0000       1.386392        37.7256 
 228   0.0000       1.396633        38.0043 
 229   0.0000       1.405751        38.2524 
 230   0.0000       1.420771        38.6611 
 231   0.0000       1.425969        38.8026 
 232   0.0000       1.429041        38.8862 
 233   0.0000       1.434640        39.0385 
 234   0.0000       1.442176        39.2436 
 235   0.0000       1.451785        39.5051 
 236   0.0000       1.458980        39.7009 
 237   0.0000       1.474038        40.1106 
 238   0.0000       1.483569        40.3700 
 239   0.0000       1.500251        40.8239 
 240   0.0000       1.502067        40.8733 
 241   0.0000       1.518616        41.3236 
 242   0.0000       1.526210        41.5303 
 243   0.0000       1.528009        41.5792 
 244   0.0000       1.545063        42.0433 
 245   0.0000       1.557557        42.3833 
 246   0.0000       1.562738        42.5243 
 247   0.0000       1.574401        42.8416 
 248   0.0000       1.585526        43.1444 
 249   0.0000       1.591064        43.2951 
 250   0.0000       1.598502        43.4974 
 251   0.0000       1.605376        43.6845 
 252   0.0000       1.609184        43.7881 
 253   0.0000       1.619163        44.0597 
 254   0.0000       1.622606        44.1533 
 255   0.0000       1.635614        44.5073 
 256   0.0000       1.640888        44.6508 
 257   0.0000       1.646311        44.7984 
 258   0.0000       1.653244        44.9871 
 259   0.0000       1.675711        45.5984 
 260   0.0000       1.676709        45.6256 
 261   0.0000       1.688378        45.9431 
 262   0.0000       1.700201        46.2648 
 263   0.0000       1.705289        46.4033 
 264   0.0000       1.717390        46.7326 
 265   0.0000       1.723076        46.8873 
 266   0.0000       1.726097        46.9695 
 267   0.0000       1.735901        47.2363 
 268   0.0000       1.752225        47.6805 
 269   0.0000       1.754613        47.7455 
 270   0.0000       1.763270        47.9810 
 271   0.0000       1.767660        48.1005 
 272   0.0000       1.776387        48.3380 
 273   0.0000       1.784903        48.5697 
 274   0.0000       1.798607        48.9426 
 275   0.0000       1.809944        49.2511 
 276   0.0000       1.819128        49.5010 
 277   0.0000       1.832580        49.8670 
 278   0.0000       1.839641        50.0592 
 279   0.0000       1.858322        50.5675 
 280   0.0000       1.869315        50.8666 
 281   0.0000       1.885592        51.3096 
 282   0.0000       1.914473        52.0955 
 283   0.0000       1.920433        52.2576 
 284   0.0000       1.936024        52.6819 
 285   0.0000       1.943294        52.8797 
 286   0.0000       1.952015        53.1170 
 287   0.0000       1.969258        53.5862 
 288   0.0000       1.983969        53.9865 
 289   0.0000       2.021483        55.0074 
 290   0.0000       2.045050        55.6486 
 291   0.0000       2.049314        55.7647 
 292   0.0000       2.056351        55.9562 
 293   0.0000       2.065046        56.1927 
 294   0.0000       2.080971        56.6261 
 295   0.0000       2.101746        57.1914 
 296   0.0000       2.107365        57.3443 
 297   0.0000       2.123833        57.7924 
 298   0.0000       2.154655        58.6311 
 299   0.0000       2.169451        59.0338 
 300   0.0000       2.190814        59.6151 
 301   0.0000       2.213742        60.2390 
 302   0.0000       2.229273        60.6616 
 303   0.0000       2.238756        60.9196 
 304   0.0000       2.239614        60.9430 
 305   0.0000       2.250669        61.2438 
 306   0.0000       2.256081        61.3911 
 307   0.0000       2.261979        61.5516 
 308   0.0000       2.273925        61.8766 
 309   0.0000       2.296078        62.4795 
 310   0.0000       2.309880        62.8550 
 311   0.0000       2.313623        62.9569 
 312   0.0000       2.324083        63.2415 
 313   0.0000       2.329518        63.3894 
 314   0.0000       2.348486        63.9056 
 315   0.0000       2.353070        64.0303 
 316   0.0000       2.390697        65.0542 
 317   0.0000       2.407535        65.5124 
 318   0.0000       2.412919        65.6589 
 319   0.0000       2.429579        66.1122 
 320   0.0000       2.442084        66.4525 
 321   0.0000       2.453589        66.7655 
 322   0.0000       2.455933        66.8293 
 323   0.0000       2.469954        67.2109 
 324   0.0000       2.476832        67.3980 
 325   0.0000       2.489249        67.7359 
 326   0.0000       2.507624        68.2359 
 327   0.0000       2.517782        68.5123 
 328   0.0000       2.528265        68.7976 
 329   0.0000       2.537916        69.0602 
 330   0.0000       2.552726        69.4632 
 331   0.0000       2.568080        69.8810 
 332   0.0000       2.581354        70.2422 
 333   0.0000       2.590241        70.4840 
 334   0.0000       2.608399        70.9781 
 335   0.0000       2.621702        71.3402 
 336   0.0000       2.625961        71.4560 
 337   0.0000       2.645619        71.9909 
 338   0.0000       2.727744        74.2257 
 339   0.0000       2.765807        75.2614 
 340   0.0000       2.798174        76.1422 
 341   0.0000       2.874376        78.2158 
 342   0.0000       2.949665        80.2645 
 343   0.0000       2.965841        80.7046 
 344   0.0000       3.263163        88.7952 
 345   0.0000       4.984829       135.6441 
 346   0.0000       5.001841       136.1070 
 347   0.0000       5.006479       136.2332 
 348   0.0000       5.009820       136.3241 
 349   0.0000       5.012346       136.3929 
 350   0.0000       5.020326       136.6100 
 351   0.0000       5.032075       136.9297 
 352   0.0000       5.044361       137.2640 
 353   0.0000       5.048586       137.3790 
 354   0.0000       5.081479       138.2741 
 355   0.0000       5.104733       138.9069 
 356   0.0000       5.223375       142.1353 
 357   0.0000       5.232241       142.3765 
 358   0.0000       5.234904       142.4490 
 359   0.0000       5.270887       143.4281 
 360   0.0000       5.281259       143.7104 
 361   0.0000       5.293933       144.0552 
 362   0.0000       5.303285       144.3097 
 363   0.0000       5.310209       144.4981 
 364   0.0000       5.321260       144.7988 
 365   0.0000       5.356529       145.7586 
 366   0.0000       5.369896       146.1223 
 367   0.0000       5.393320       146.7597 
 368   0.0000       5.414533       147.3369 
 369   0.0000       5.484177       149.2320 
 370   0.0000       5.559461       151.2806 
 371   0.0000       5.569286       151.5480 
 372   0.0000       5.609188       152.6338 
 373   0.0000       5.626223       153.0973 
 374   0.0000       5.669081       154.2635 
 375   0.0000       5.710830       155.3996 
 376   0.0000       5.741677       156.2390 
 377   0.0000       5.802658       157.8983 
 378   0.0000       5.845001       159.0506 
 379   0.0000       5.873323       159.8212 
 380   0.0000       6.060835       164.9237 
 381   0.0000       6.323960       172.0837 
 382   0.0000      29.632077       806.3298 
 383   0.0000      29.789212       810.6057 
 384   0.0000      29.836412       811.8900 
 385   0.0000      29.921507       814.2056 
 386   0.0000      29.978229       815.7491 
 387   0.0000      29.986136       815.9642 
 388   0.0000      30.051397       817.7401 
 389   0.0000      30.072665       818.3188 
 390   0.0000      30.093600       818.8885 
 391   0.0000      30.111038       819.3630 
 392   0.0000      30.149126       820.3994 
 393   0.0000      30.212977       822.1369 
 394   0.0000      30.249371       823.1272 
 395   0.0000      30.278822       823.9286 
 396   0.0000      30.354240       825.9809 
 397   0.0000      30.549133       831.2842 
 398   0.0000      36.613266       996.2976 
 399   0.0000      36.630523       996.7672 
 400   0.0000      36.631214       996.7860 
 401   0.0000      36.633866       996.8582 
 402   0.0000      36.638089       996.9731 
 403   0.0000      36.659000       997.5421 
 404   0.0000      36.672555       997.9109 
 405   0.0000      36.674588       997.9663 
 406   0.0000      36.699669       998.6488 
 407   0.0000      36.716817       999.1154 
 408   0.0000      36.818922      1001.8938 
 409   0.0000      36.844920      1002.6012 
 410   0.0000      36.850128      1002.7430 
 411   0.0000      36.876053      1003.4484 
 412   0.0000      36.876791      1003.4685 
 413   0.0000      36.884064      1003.6664 
 414   0.0000      36.910819      1004.3945 
 415   0.0000      36.932636      1004.9881 
 416   0.0000      36.933104      1005.0008 
 417   0.0000      36.964859      1005.8649 
 418   0.0000      37.014112      1007.2052 

                    ********************************
                    * MULLIKEN POPULATION ANALYSIS *
                    ********************************

--------------------------------------------
MULLIKEN ATOMIC CHARGES AND SPIN POPULATIONS
--------------------------------------------
   0 C :    0.015822    0.021829
   1 C :    0.245963    0.219509
   2 C :    0.481111   -0.131669
   3 C :   -0.451613    0.206900
   4 C :    0.436340   -0.091877
   5 C :    0.288594    0.242713
   6 C :   -0.386601   -0.113487
   7 H :    0.123361   -0.011326
   8 H :    0.123238    0.005186
   9 C :   -0.595797    0.742761
  10 H :    0.152662   -0.030338
  11 H :    0.151545   -0.030364
  12 C :   -0.418862   -0.013236
  13 H :    0.131463    0.002186
  14 H :    0.135190    0.005157
  15 C :   -0.255758    0.010471
  16 H :    0.155713   -0.001218
  17 H :    0.151270   -0.000421
  18 C :   -0.502533    0.000906
  19 H :    0.157931   -0.000020
  20 H :    0.158453    0.000229
  21 C :   -0.386302   -0.017852
  22 H :    0.154287    0.011623
  23 H :    0.153869    0.012262
  24 C :   -0.265849    0.000927
  25 H :    0.137316    0.000248
  26 H :    0.142124    0.000245
  27 C :   -0.257608   -0.000298
  28 H :    0.142736    0.000060
  29 H :    0.143508    0.000060
  30 C :   -0.509299   -0.000095
  31 H :    0.157204    0.000029
  32 H :    0.156693    0.000026
  33 C :   -0.542040   -0.043048
  34 H :    0.183934    0.001632
  35 H :    0.147002    0.000296
  36 H :    0.144930   -0.000006
Sum of atomic charges         :    0.0000000
Sum of atomic spin populations:    1.0000000

-----------------------------------------------------
MULLIKEN REDUCED ORBITAL CHARGES AND SPIN POPULATIONS
-----------------------------------------------------
CHARGE
  0 C s       :     3.139302  s :     3.139302
      pz      :     0.955211  p :     2.789278
      px      :     0.900904
      py      :     0.933163
      dz2     :     0.005303  d :     0.055598
      dxz     :     0.019992
      dyz     :     0.000759
      dx2y2   :     0.011565
      dxy     :     0.017980
  1 C s       :     3.079280  s :     3.079280
      pz      :     0.920639  p :     2.591147
      px      :     0.798460
      py      :     0.872048
      dz2     :     0.004946  d :     0.083610
      dxz     :     0.010528
      dyz     :     0.012113
      dx2y2   :     0.027970
      dxy     :     0.028053
  2 C s       :     2.970127  s :     2.970127
      pz      :     0.935172  p :     2.458381
      px      :     0.737404
      py      :     0.785805
      dz2     :     0.005144  d :     0.090381
      dxz     :     0.011623
      dyz     :     0.014074
      dx2y2   :     0.031440
      dxy     :     0.028101
  3 C s       :     3.252722  s :     3.252722
      pz      :     0.993627  p :     3.125926
      px      :     1.074248
      py      :     1.058051
      dz2     :     0.005159  d :     0.072966
      dxz     :     0.010665
      dyz     :     0.006375
      dx2y2   :     0.023955
      dxy     :     0.026812
  4 C s       :     2.903353  s :     2.903353
      pz      :     0.998030  p :     2.568742
      px      :     0.764254
      py      :     0.806458
      dz2     :     0.004879  d :     0.091566
      dxz     :     0.011616
      dyz     :     0.013209
      dx2y2   :     0.032611
      dxy     :     0.029250
  5 C s       :     3.024834  s :     3.024834
      pz      :     0.911287  p :     2.602616
      px      :     0.856234
      py      :     0.835095
      dz2     :     0.005190  d :     0.083956
      dxz     :     0.012616
      dyz     :     0.010967
      dx2y2   :     0.026878
      dxy     :     0.028306
  6 C s       :     3.197839  s :     3.197839
      pz      :     1.033247  p :     3.115326
      px      :     1.056583
      py      :     1.025496
      dz2     :     0.004816  d :     0.073435
      dxz     :     0.010882
      dyz     :     0.005826
      dx2y2   :     0.024762
      dxy     :     0.027148
  7 H s       :     0.854643  s :     0.854643
      pz      :     0.005586  p :     0.021996
      px      :     0.005864
      py      :     0.010546
  8 H s       :     0.854034  s :     0.854034
      pz      :     0.005889  p :     0.022728
      px      :     0.005993
      py      :     0.010846
  9 C s       :     3.321635  s :     3.321635
      pz      :     1.024762  p :     3.220608
      px      :     1.126326
      py      :     1.069520
      dz2     :     0.003894  d :     0.053554
      dxz     :     0.003169
      dyz     :     0.005507
      dx2y2   :     0.022963
      dxy     :     0.018020
 10 H s       :     0.825152  s :     0.825152
      pz      :     0.006607  p :     0.022186
      px      :     0.010701
      py      :     0.004877
 11 H s       :     0.826686  s :     0.826686
      pz      :     0.006174  p :     0.021769
      px      :     0.005647
      py      :     0.009948
 12 C s       :     3.252662  s :     3.252662
      pz      :     0.983901  p :     3.086890
      px      :     0.973489
      py      :     1.129500
[...]
B( 21-C , 23-H ) :   0.9591 B( 21-C , 24-C ) :   1.0159 B( 24-C , 25-H ) :   0.9590 
B( 24-C , 26-H ) :   0.9608 B( 24-C , 27-C ) :   0.9923 B( 27-C , 28-H ) :   0.9700 
B( 27-C , 29-H ) :   0.9712 B( 27-C , 30-C ) :   0.9530 B( 30-C , 31-H ) :   0.9735 
B( 30-C , 32-H ) :   0.9738 B( 30-C , 36-H ) :   0.9676 B( 33-C , 34-H ) :   0.9784 


-------
TIMINGS
-------

Total SCF time: 0 days 0 hours 1 min 20 sec 

Total time                  ....      80.735 sec
Sum of individual times     ....      79.455 sec  ( 98.4%)

Fock matrix formation       ....      73.967 sec  ( 91.6%)
  XC integration            ....       3.368 sec  (  4.6% of F)
    Basis function eval.    ....       0.406 sec  ( 12.1% of XC)
    Density eval.           ....       0.552 sec  ( 16.4% of XC)
    XC-Functional eval.     ....       0.083 sec  (  2.5% of XC)
    XC-Potential eval.      ....       0.843 sec  ( 25.0% of XC)
Diagonalization             ....       1.825 sec  (  2.3%)
Density matrix formation    ....       0.123 sec  (  0.2%)
Population analysis         ....       0.273 sec  (  0.3%)
Initial guess               ....       0.409 sec  (  0.5%)
Orbital Transformation      ....       0.000 sec  (  0.0%)
Orbital Orthonormalization  ....       0.000 sec  (  0.0%)
DIIS solution               ....       1.441 sec  (  1.8%)
Grid generation             ....       1.418 sec  (  1.8%)

-------------------------   --------------------
FINAL SINGLE POINT ENERGY      -621.920052254769
-------------------------   --------------------

   --->>> g-tensor requested, so NeedSOC=true

                            ***************************************
                            *     ORCA property calculations      *
                            ***************************************

                                    ---------------------
                                    Active property flags
                                    ---------------------
   (+) Dipole Moment
   (+) g-tensor
   (+) Nuclear properties (Hyperfine,Quadrupole)
   (+) Spin-Orbit Integrals are needed


------------------------------------------------------------------------------
                       ORCA ELECTRIC PROPERTIES CALCULATION
------------------------------------------------------------------------------

Dipole Moment Calculation                       ... on
Quadrupole Moment Calculation                   ... off
Polarizability Calculation                      ... off
GBWName                                         ... g-tensor_EPRII_invariant.gbw
Electron density file                           ... g-tensor_EPRII_invariant.scfp
The origin for moment calculation is the CENTER OF MASS  = ( 0.559569, -2.146441 -0.108350)

-------------
DIPOLE MOMENT
-------------
                                X             Y             Z
Electronic contribution:    -11.67087      14.76262      -1.68951
Nuclear contribution   :     11.94984     -15.09026       1.73111
                        -----------------------------------------
Total Dipole Moment    :      0.27897      -0.32764       0.04160
                        -----------------------------------------
Magnitude (a.u.)       :      0.43232
Magnitude (Debye)      :      1.09887



--------------------
Rotational spectrum 
--------------------
 
Rotational constants in cm-1:     0.018485     0.010277     0.006812 
Rotational constants in MHz :   554.171046   308.094263   204.210152 

 Dipole components along the rotational axes: 
x,y,z [a.u.] :    -0.011747     0.431544     0.023057 
x,y,z [Debye]:    -0.029859     1.096898     0.058605 

 


           ************************************************************
           *        Program running with 16 parallel MPI-processes    *
           *              working on a common directory               *
           ************************************************************
------------------------------------------------------------------------------
                         ORCA SPIN-ORBIT COUPLING CALCULATION
------------------------------------------------------------------------------

GBW file                                    ... g-tensor_EPRII_invariant.gbw
Input density                               ... g-tensor_EPRII_invariant.scfp
Output integrals                            ... g-tensor_EPRII_invariant
Operator type                               ... Mean-field/Effective potential
   One-Electron Terms                       ... 1
   Coulomb Contribution                     ... 2
   Exchange Contribution                    ... 3
   Correlation Contribution                 ... 0
   Maximum number of centers                ... 4
Setting up the integration grid             ... done
Evaluating density on the grid              ... (NumEl=  117.006235) done
Evaluating Coulomb term semi-analytically   ... done
One-Center Exchange (+SOO)                  ... done
Evaluating the spin-orbit operator          ... done
Total time for SOC: 13.174


           ************************************************************
           *        Program running with 16 parallel MPI-processes    *
           *              working on a common directory               *
           ************************************************************
------------------------------------------------------------------------------
                                ORCA EPR/NMR CALCULATION
------------------------------------------------------------------------------

GBWName                      ... g-tensor_EPRII_invariant.gbw
Electron density file        ... g-tensor_EPRII_invariant.scfp
Spin density file            ... g-tensor_EPRII_invariant.scfr
Spin-orbit integrals         ... g-tensor_EPRII_invariant
Treatment of gauge           ... GIAO (approximations 1/2el = 0,3)
Details of the CP(SCF) procedure:
       Solver   = POPLE   
       MaxIter  =    64   
       Tolerance=    1.000e-06
       Op-0     =   0- 58 =>  59-418
       Op-1     =   0- 57 =>  58-418
Multiplicity                 ... 2
g-tensor                     ... 1
NMR chemical shifts          ... 0
Number of nuclei for epr/nmr ... 21
   Nucleus:   7H 
       Hyperfine : Isotope=    1 I=   0.500 P= 533.551
       Quadrupole: Isotope=    2 I=   1.000 Q=   0.003
       Spin-Orbit: Zeff=   1.000
       Ncuelar Spin-Spin: Gn=   0.000
       rho(0)=N f(grad)=N a(iso)=Y a(dip)=Y a(orb)=Y sigma(nmr)=N spin-spin(nmr)=all-N,DSO-N,PSO-N,FC-N,SD-N
   Nucleus:   8H 
       Hyperfine : Isotope=    1 I=   0.500 P= 533.551
       Quadrupole: Isotope=    2 I=   1.000 Q=   0.003
       Spin-Orbit: Zeff=   1.000
       Ncuelar Spin-Spin: Gn=   0.000
       rho(0)=N f(grad)=N a(iso)=Y a(dip)=Y a(orb)=Y sigma(nmr)=N spin-spin(nmr)=all-N,DSO-N,PSO-N,FC-N,SD-N
   Nucleus:  10H 
       Hyperfine : Isotope=    1 I=   0.500 P= 533.551
       Quadrupole: Isotope=    2 I=   1.000 Q=   0.003
       Spin-Orbit: Zeff=   1.000
       Ncuelar Spin-Spin: Gn=   0.000
       rho(0)=N f(grad)=N a(iso)=Y a(dip)=Y a(orb)=Y sigma(nmr)=N spin-spin(nmr)=all-N,DSO-N,PSO-N,FC-N,SD-N
   Nucleus:  11H 
       Hyperfine : Isotope=    1 I=   0.500 P= 533.551
       Quadrupole: Isotope=    2 I=   1.000 Q=   0.003
       Spin-Orbit: Zeff=   1.000
       Ncuelar Spin-Spin: Gn=   0.000
       rho(0)=N f(grad)=N a(iso)=Y a(dip)=Y a(orb)=Y sigma(nmr)=N spin-spin(nmr)=all-N,DSO-N,PSO-N,FC-N,SD-N
   Nucleus:  13H 
       Hyperfine : Isotope=    1 I=   0.500 P= 533.551
       Quadrupole: Isotope=    2 I=   1.000 Q=   0.003
       Spin-Orbit: Zeff=   1.000
       Ncuelar Spin-Spin: Gn=   0.000
       rho(0)=N f(grad)=N a(iso)=Y a(dip)=Y a(orb)=Y sigma(nmr)=N spin-spin(nmr)=all-N,DSO-N,PSO-N,FC-N,SD-N
   Nucleus:  14H 
       Hyperfine : Isotope=    1 I=   0.500 P= 533.551
       Quadrupole: Isotope=    2 I=   1.000 Q=   0.003
       Spin-Orbit: Zeff=   1.000
       Ncuelar Spin-Spin: Gn=   0.000
       rho(0)=N f(grad)=N a(iso)=Y a(dip)=Y a(orb)=Y sigma(nmr)=N spin-spin(nmr)=all-N,DSO-N,PSO-N,FC-N,SD-N
   Nucleus:  16H 
       Hyperfine : Isotope=    1 I=   0.500 P= 533.551
       Quadrupole: Isotope=    2 I=   1.000 Q=   0.003
       Spin-Orbit: Zeff=   1.000
       Ncuelar Spin-Spin: Gn=   0.000
       rho(0)=N f(grad)=N a(iso)=Y a(dip)=Y a(orb)=Y sigma(nmr)=N spin-spin(nmr)=all-N,DSO-N,PSO-N,FC-N,SD-N
   Nucleus:  17H 
       Hyperfine : Isotope=    1 I=   0.500 P= 533.551
       Quadrupole: Isotope=    2 I=   1.000 Q=   0.003
       Spin-Orbit: Zeff=   1.000
       Ncuelar Spin-Spin: Gn=   0.000
       rho(0)=N f(grad)=N a(iso)=Y a(dip)=Y a(orb)=Y sigma(nmr)=N spin-spin(nmr)=all-N,DSO-N,PSO-N,FC-N,SD-N
   Nucleus:  19H 
       Hyperfine : Isotope=    1 I=   0.500 P= 533.551
       Quadrupole: Isotope=    2 I=   1.000 Q=   0.003
       Spin-Orbit: Zeff=   1.000
       Ncuelar Spin-Spin: Gn=   0.000
       rho(0)=N f(grad)=N a(iso)=Y a(dip)=Y a(orb)=Y sigma(nmr)=N spin-spin(nmr)=all-N,DSO-N,PSO-N,FC-N,SD-N
   Nucleus:  20H 
       Hyperfine : Isotope=    1 I=   0.500 P= 533.551
       Quadrupole: Isotope=    2 I=   1.000 Q=   0.003
       Spin-Orbit: Zeff=   1.000
       Ncuelar Spin-Spin: Gn=   0.000
       rho(0)=N f(grad)=N a(iso)=Y a(dip)=Y a(orb)=Y sigma(nmr)=N spin-spin(nmr)=all-N,DSO-N,PSO-N,FC-N,SD-N
   Nucleus:  22H 
       Hyperfine : Isotope=    1 I=   0.500 P= 533.551
       Quadrupole: Isotope=    2 I=   1.000 Q=   0.003
       Spin-Orbit: Zeff=   1.000
       Ncuelar Spin-Spin: Gn=   0.000
       rho(0)=N f(grad)=N a(iso)=Y a(dip)=Y a(orb)=Y sigma(nmr)=N spin-spin(nmr)=all-N,DSO-N,PSO-N,FC-N,SD-N
   Nucleus:  23H 
       Hyperfine : Isotope=    1 I=   0.500 P= 533.551
       Quadrupole: Isotope=    2 I=   1.000 Q=   0.003
       Spin-Orbit: Zeff=   1.000
       Ncuelar Spin-Spin: Gn=   0.000
       rho(0)=N f(grad)=N a(iso)=Y a(dip)=Y a(orb)=Y sigma(nmr)=N spin-spin(nmr)=all-N,DSO-N,PSO-N,FC-N,SD-N
   Nucleus:  25H 
       Hyperfine : Isotope=    1 I=   0.500 P= 533.551
       Quadrupole: Isotope=    2 I=   1.000 Q=   0.003
       Spin-Orbit: Zeff=   1.000
       Ncuelar Spin-Spin: Gn=   0.000
       rho(0)=N f(grad)=N a(iso)=Y a(dip)=Y a(orb)=Y sigma(nmr)=N spin-spin(nmr)=all-N,DSO-N,PSO-N,FC-N,SD-N
   Nucleus:  26H 
       Hyperfine : Isotope=    1 I=   0.500 P= 533.551
       Quadrupole: Isotope=    2 I=   1.000 Q=   0.003
       Spin-Orbit: Zeff=   1.000
       Ncuelar Spin-Spin: Gn=   0.000
       rho(0)=N f(grad)=N a(iso)=Y a(dip)=Y a(orb)=Y sigma(nmr)=N spin-spin(nmr)=all-N,DSO-N,PSO-N,FC-N,SD-N
   Nucleus:  28H 
       Hyperfine : Isotope=    1 I=   0.500 P= 533.551
       Quadrupole: Isotope=    2 I=   1.000 Q=   0.003
       Spin-Orbit: Zeff=   1.000
       Ncuelar Spin-Spin: Gn=   0.000
       rho(0)=N f(grad)=N a(iso)=Y a(dip)=Y a(orb)=Y sigma(nmr)=N spin-spin(nmr)=all-N,DSO-N,PSO-N,FC-N,SD-N
   Nucleus:  29H 
       Hyperfine : Isotope=    1 I=   0.500 P= 533.551
       Quadrupole: Isotope=    2 I=   1.000 Q=   0.003
       Spin-Orbit: Zeff=   1.000
       Ncuelar Spin-Spin: Gn=   0.000
       rho(0)=N f(grad)=N a(iso)=Y a(dip)=Y a(orb)=Y sigma(nmr)=N spin-spin(nmr)=all-N,DSO-N,PSO-N,FC-N,SD-N
   Nucleus:  31H 
       Hyperfine : Isotope=    1 I=   0.500 P= 533.551
       Quadrupole: Isotope=    2 I=   1.000 Q=   0.003
       Spin-Orbit: Zeff=   1.000
       Ncuelar Spin-Spin: Gn=   0.000
       rho(0)=N f(grad)=N a(iso)=Y a(dip)=Y a(orb)=Y sigma(nmr)=N spin-spin(nmr)=all-N,DSO-N,PSO-N,FC-N,SD-N
   Nucleus:  32H 
       Hyperfine : Isotope=    1 I=   0.500 P= 533.551
       Quadrupole: Isotope=    2 I=   1.000 Q=   0.003
       Spin-Orbit: Zeff=   1.000
       Ncuelar Spin-Spin: Gn=   0.000
       rho(0)=N f(grad)=N a(iso)=Y a(dip)=Y a(orb)=Y sigma(nmr)=N spin-spin(nmr)=all-N,DSO-N,PSO-N,FC-N,SD-N
   Nucleus:  34H 
       Hyperfine : Isotope=    1 I=   0.500 P= 533.551
       Quadrupole: Isotope=    2 I=   1.000 Q=   0.003
       Spin-Orbit: Zeff=   1.000
       Ncuelar Spin-Spin: Gn=   0.000
       rho(0)=N f(grad)=N a(iso)=Y a(dip)=Y a(orb)=Y sigma(nmr)=N spin-spin(nmr)=all-N,DSO-N,PSO-N,FC-N,SD-N
   Nucleus:  35H 
       Hyperfine : Isotope=    1 I=   0.500 P= 533.551
       Quadrupole: Isotope=    2 I=   1.000 Q=   0.003
       Spin-Orbit: Zeff=   1.000
       Ncuelar Spin-Spin: Gn=   0.000
       rho(0)=N f(grad)=N a(iso)=Y a(dip)=Y a(orb)=Y sigma(nmr)=N spin-spin(nmr)=all-N,DSO-N,PSO-N,FC-N,SD-N
   Nucleus:  36H 
       Hyperfine : Isotope=    1 I=   0.500 P= 533.551
       Quadrupole: Isotope=    2 I=   1.000 Q=   0.003
       Spin-Orbit: Zeff=   1.000
       Ncuelar Spin-Spin: Gn=   0.000
       rho(0)=N f(grad)=N a(iso)=Y a(dip)=Y a(orb)=Y sigma(nmr)=N spin-spin(nmr)=all-N,DSO-N,PSO-N,FC-N,SD-N
Forming RHS of the CP-SCF equations         ... 
Calculating right hand sides for GIAO treatment        ... 
  Entering RightHandSide GIAO. ScalHFX=    0.2000 NeedHFX=1
     -> 1-electron GIAO integrals will be done analytically
     -> SCF done analytically but RIJK chosen for GIAO calculation.
     Making grid for GIAO integrations   ... 
General Integration Accuracy     IntAcc      ...  4.340
Radial Grid Type                 RadialGrid  ... Gauss-Chebyshev
Angular Grid (max. acc.)         AngularGrid ... Lebedev-110
Angular grid pruning method      GridPruning ... 3 (G Style)
Weight generation scheme         WeightScheme... Becke
Basis function cutoff            BFCut       ...    1.0000e-10
Integration weight cutoff        WCut        ...    1.0000e-14
Grids for H and He will be reduced by one unit

# of grid points (after initial pruning)     ...  43170 (   0.0 sec)
# of grid points (after weights+screening)   ...  38696 (   0.1 sec)
nearest neighbour list constructed           ...    0.0 sec
Grid point re-assignment to atoms done       ...    0.0 sec
Grid point division into batches done        ...    0.0 sec
Reduced shell lists constructed in    0.1 sec

Total number of grid points                  ...    38696
Total number of batches                      ...      624
Average number of points per batch           ...       62
Average number of grid points per atom       ...     1046
Average number of shells per batch           ...   110.08 (44.21%)
Average number of basis functions per batch  ...   212.73 (50.77%)
Average number of large shells per batch     ...    80.15 (72.81%)
Average number of large basis fcns per batch ...   155.75 (73.22%)
Maximum spatial batch extension              ...   4.76,  4.80, 16.86 au
Average spatial batch extension              ...   0.12,  0.12,  0.17 au

done
  One-electron GIAO integrals             ... done
  Calculating G(B)[P]                     ... (RI-JK: P(aux)-ok JK-RI-ok) (add-J+K:ok) => dG/dB done
  DFT XC-terms                            ... done
  Extracting occupied and virtual blocks  ... 
  Operator  0  NO=  59 NV= 360 
  Operator  1  NO=  58 NV= 361 
  Transforming and RHS contribution       ... done
  Adding eps_i * S(B)_ai terms            ... done
  Projecting overlap derivatives          ... done
  Building G[dS/dB_ij] (Direct)           ... done
  Transforming to MO basis                ... done
  Summing G[dS/dB_ij] into RHS contribs.  ... done

  GIAO profiling information: 
    Total GIAO time               ...      81.0 sec
       GIAO 1-electron integrals  ...       0.1 sec (  0.1%)
       GIAO G(dS/dB) terms        ...      15.2 sec ( 18.7%)
       GIAO RI-JK                 ...      63.5 sec ( 78.3%)
       GIAO XC-terms              ...       1.2 sec (  1.5%)
       Right hand side assembly   ...       0.0 sec (  0.0%)

  GIAO right hand side done


------------------------------------------------------------------------------
                           ORCA CP-SCF CALCULATION
------------------------------------------------------------------------------

Input orbitals are from        ... g-tensor_EPRII_invariant.gbw
Input Perturbation             ... g-tensor_EPRII_invariant.pin.tmp
Wavefunction output            ... g-tensor_EPRII_invariant.pout.tmp
Perturbation mode              ... Imaginary perturbation
Solver                         ... POPLE
Max. number of iterations      ... 64
Convergence tolerance          ... 1.000e-06
Integral handling              ... Direct
Number of perturbations        ... 3
Number of operators            ... 2
Orbital ranges used for CP-SCF:
 Operator 0:  Orbitals   0... 58  to  59...418
 Operator 1:  Orbitals   0... 57  to  58...418
DFT calculation                         ... on
Variables per vector in CP-SCF ... 42178
Number of vectors sought       ... 3
     CP-SCF ITERATION   0: 
     CP-SCF ITERATION   1:      0.002095832571
     CP-SCF ITERATION   2:      0.000010777395
     CP-SCF ITERATION   3:      0.000000065783

Forming final perturbed densities           ... done
Transforming perturbed density to AO basis  ... done

Magnetic field perturbation calculated in 129.690 sec
GIAO: Doing diamagnetic term integrals analytically ...done
GIAO: Doing 1el-GIAO-SOC integrals analytically ... done

-------------------
ELECTRONIC G-MATRIX
-------------------

 The g-matrix: 
              2.0027349   -0.0000167   -0.0001042
             -0.0000127    2.0027811   -0.0000366
             -0.0001384   -0.0001002    2.0022493

 gel          2.0023193    2.0023193    2.0023193
 gRMC        -0.0001411   -0.0001411   -0.0001411
 gDSO(tot)    0.0000324    0.0000835    0.0000870
 gPSO(tot)    0.0000014    0.0005018    0.0005246
             ----------   ----------   ----------
 g(tot)       2.0022121    2.0027635    2.0027898 iso=  2.0025884
 Delta-g     -0.0001072    0.0004442    0.0004705 iso=  0.0002692
 Orientation: 
  X           0.2275264    0.9734629    0.0245292
  Y           0.1220141   -0.0534914    0.9910859
  Z           0.9660975   -0.2225053   -0.1309469

Notes:  (1) The g-matrix conforms to the "BgS" spin Hamiltonian convention. 
        (2) The principal values are square roots of the eigenvalues of g*gT.
        (3) Orientations are eigenvectors of g*gT written as column vectors.
        (4) Individual contributions are projections of the full matrices onto the eigenvectors of g*gT.
        (5) Tensor is right-handed.


-----------------------------------------
ELECTRIC AND MAGNETIC HYPERFINE STRUCTURE
-----------------------------------------

 -----------------------------------------------------------
 Nucleus   7H : A:ISTP=    1 I=  0.5 P=533.5514 MHz/au**3
                Q:ISTP=    2 I=  1.0 Q=  0.0029 barn     
 -----------------------------------------------------------
 Solving for nuclear perturbation:
Forming RHS of the CP-SCF equations         ... 
Using LibInt in CPSCF-CP

Calculating nucleus orbit integrals         ... done

------------------------------------------------------------------------------
                           ORCA CP-SCF CALCULATION
------------------------------------------------------------------------------

Input orbitals are from        ... g-tensor_EPRII_invariant.gbw
Input Perturbation             ... g-tensor_EPRII_invariant.pin.tmp
Wavefunction output            ... g-tensor_EPRII_invariant.pout.tmp
Perturbation mode              ... Imaginary perturbation
Solver                         ... POPLE
Max. number of iterations      ... 64
Convergence tolerance          ... 1.000e-06
Integral handling              ... Direct
Number of perturbations        ... 3
Number of operators            ... 2
Orbital ranges used for CP-SCF:
 Operator 0:  Orbitals   0... 58  to  59...418
 Operator 1:  Orbitals   0... 57  to  58...418
DFT calculation                         ... on
Variables per vector in CP-SCF ... 42178
Number of vectors sought       ... 3
     CP-SCF ITERATION   0: 
     CP-SCF ITERATION   1:      0.000004340562
     CP-SCF ITERATION   2:      0.000000019311

Forming final perturbed densities           ...
ORCA finished by error termination in EPR/NMR
Calling Command: mpirun -np 16  /hits/sw/ccc/ORCA421/orca_4_2_1_linux_x86-64_openmpi314/orca_eprnmr_mpi g-tensor_EPRII_invariant.eprnmr.inp g-tensor_EPRII_invariant 
[file orca_tools/qcmsg.cpp, line 458]: 
  .... aborting the run

