
                                 *****************
                                 * O   R   C   A *
                                 *****************

           --- An Ab Initio, DFT and Semiempirical electronic structure package ---

                  #######################################################
                  #                        -***-                        #
                  #          Department of theory and spectroscopy      #
                  #               Directorship: Frank Neese             #
                  #        Max Planck Institute fuer Kohlenforschung    #
                  #                Kaiser Wilhelm Platz 1               #
                  #                 D-45470 Muelheim/Ruhr               #
                  #                      Germany                        #
                  #                                                     #
                  #                  All rights reserved                #
                  #                        -***-                        #
                  #######################################################


                         Program Version 4.2.1 -  RELEASE  -


 With contributions from (in alphabetic order):
   Daniel Aravena         : Magnetic Suceptibility
   Michael Atanasov       : Ab Initio Ligand Field Theory (pilot matlab implementation)
   Alexander A. Auer      : GIAO ZORA, VPT2
   Ute Becker             : Parallelization
   Giovanni Bistoni       : ED, misc. LED, open-shell LED, HFLD
   Martin Brehm           : Molecular dynamics
   Dmytro Bykov           : SCF Hessian
   Vijay G. Chilkuri      : MRCI spin determinant printing, contributions to CSF-ICE
   Dipayan Datta          : RHF DLPNO-CCSD density
   Achintya Kumar Dutta   : EOM-CC, STEOM-CC
   Dmitry Ganyushin       : Spin-Orbit,Spin-Spin,Magnetic field MRCI
   Miquel Garcia          : C-PCM Hessian, Gaussian charge scheme
   Yang Guo               : DLPNO-NEVPT2, CIM, IAO-localization
   Andreas Hansen         : Spin unrestricted coupled pair/coupled cluster methods
   Benjamin Helmich-Paris : CASSCF linear response (MC-RPA)
   Lee Huntington         : MR-EOM, pCC
   Robert Izsak           : Overlap fitted RIJCOSX, COSX-SCS-MP3, EOM
   Christian Kollmar      : KDIIS, OOCD, Brueckner-CCSD(T), CCSD density
   Simone Kossmann        : Meta GGA functionals, TD-DFT gradient, OOMP2, MP2 Hessian
   Martin Krupicka        : AUTO-CI
   Lucas Lang             : DCDCAS
   Dagmar Lenk            : GEPOL surface, SMD
   Dimitrios Liakos       : Extrapolation schemes; Compound Job, initial MDCI parallelization
   Dimitrios Manganas     : Further ROCIS development; embedding schemes
   Dimitrios Pantazis     : SARC Basis sets
   Taras Petrenko         : DFT Hessian,TD-DFT gradient, ASA, ECA, R-Raman, ABS, FL, XAS/XES, NRVS
   Peter Pinski           : DLPNO-MP2, DLPNO-MP2 Gradient
   Christoph Reimann      : Effective Core Potentials
   Marius Retegan         : Local ZFS, SOC
   Christoph Riplinger    : Optimizer, TS searches, QM/MM, DLPNO-CCSD(T), (RO)-DLPNO pert. Triples
   Tobias Risthaus        : Range-separated hybrids, TD-DFT gradient, RPA, STAB
   Michael Roemelt        : Original ROCIS implementation
   Masaaki Saitow         : Open-shell DLPNO-CCSD energy and density
   Barbara Sandhoefer     : DKH picture change effects
   Avijit Sen             : IP-ROCIS
   Kantharuban Sivalingam : CASSCF convergence, NEVPT2, FIC-MRCI
   Bernardo de Souza      : ESD, SOC TD-DFT
   Georgi Stoychev        : AutoAux, RI-MP2 NMR
   Willem Van den Heuvel  : Paramagnetic NMR
   Boris Wezisla          : Elementary symmetry handling
   Frank Wennmohs         : Technical directorship


 We gratefully acknowledge several colleagues who have allowed us to
 interface, adapt or use parts of their codes:
   Stefan Grimme, W. Hujo, H. Kruse,             : VdW corrections, initial TS optimization,
                  C. Bannwarth                     DFT functionals, gCP, sTDA/sTD-DF
   Ed Valeev, F. Pavosevic, A. Kumar             : LibInt (2-el integral package), F12 methods
   Garnet Chan, S. Sharma, J. Yang, R. Olivares  : DMRG
   Ulf Ekstrom                                   : XCFun DFT Library
   Mihaly Kallay                                 : mrcc  (arbitrary order and MRCC methods)
   Andreas Klamt, Michael Diedenhofen            : otool_cosmo (COSMO solvation model)
   Jiri Pittner, Ondrej Demel                    : Mk-CCSD
   Frank Weinhold                                : gennbo (NPA and NBO analysis)
   Christopher J. Cramer and Donald G. Truhlar   : smd solvation model
   Lars Goerigk                                  : TD-DFT with DH, B97 family of functionals
   V. Asgeirsson, H. Jonsson                     : NEB implementation
   FAccTs GmbH                                   : IRC, NEB, NEB-TS, Multilevel, MM, QM/MM, CI optimization
   S Lehtola, MJT Oliveira, MAL Marques          : LibXC Library


 Your calculation uses the libint2 library for the computation of 2-el integrals
 For citations please refer to: http://libint.valeyev.net

 Your ORCA version has been built with support for libXC version: 4.2.3
 For citations please refer to: https://tddft.org/programs/libxc/

 This ORCA versions uses:
   CBLAS   interface :  Fast vector & matrix operations
   LAPACKE interface :  Fast linear algebra routines
   SCALAPACK package :  Parallel linear algebra routines




***************************************
The coordinates will be read from file: opt.xyz
***************************************


----- Orbital basis set information -----
Your calculation utilizes the basis: cc-pVDZ 
       H, B-Ne : Obtained from the ccRepo (grant-hill.group.shef.ac.uk/ccrepo) Feb. 2017
                 T. H. Dunning, Jr., J. Chem. Phys. 90, 1007 (1989)
            He : Obtained from the ccRepo (grant-hill.group.shef.ac.uk/ccrepo) Feb. 2017
                 D. E. Woon, T. H. Dunning, Jr., J. Chem. Phys. 100, 2975 (1994)
  Li-Be, Na-Mg : Obtained from the ccRepo (grant-hill.group.shef.ac.uk/ccrepo) Feb. 2017
                 B. P. Prascher, D. E. Woon, K. A. Peterson, T. H. Dunning, Jr., A. K. Wilson, Theor. Chem. Acc. 128, 69 (2011)
         Al-Ar : Obtained from the ccRepo (grant-hill.group.shef.ac.uk/ccrepo) Feb. 2017
                 D. E. Woon, T. H. Dunning, Jr., J. Chem. Phys. 98, 1358 (1993)
            Ca : Obtained from the Peterson Research Group Website (tyr0.chem.wsu.edu/~kipeters) Feb. 2017
                 J. Koput, K. A. Peterson, J. Phys. Chem. 106, 9595 (2002)
         Sc-Zn : Obtained from the ccRepo (grant-hill.group.shef.ac.uk/ccrepo) Feb. 2017
                 N. B. Balabanov, K. A. Peterson, J. Chem. Phys. 123, 064107 (2005)
                 N. B. Balabanov, K. A. Peterson, J. Chem. Phys. 125, 074110 (2006)
         Ga-Kr : Obtained from the ccRepo (grant-hill.group.shef.ac.uk/ccrepo) Feb. 2017
                 A. K. Wilson, D. E. Woon, K. A. Peterson, T. H. Dunning, Jr., J. Chem. Phys. 110, 7667 (1999)

----- AuxJ basis set information -----
Your calculation utilizes the AutoAux generation procedure.
  G. L. Stoychev, A. A. Auer, F. Neese, J. Chem. Theory Comput. 13, 554 (2017)

----- AuxC basis set information -----
Your calculation utilizes the AutoAux generation procedure.
  G. L. Stoychev, A. A. Auer, F. Neese, J. Chem. Theory Comput. 13, 554 (2017)

----- AuxJK basis set information -----
Your calculation utilizes the AutoAux generation procedure.
  G. L. Stoychev, A. A. Auer, F. Neese, J. Chem. Theory Comput. 13, 554 (2017)

================================================================================
                                        WARNINGS
                       Please study these warnings very carefully!
================================================================================


WARNING: your system is open-shell and RHF/RKS was chosen
  ===> : WILL SWITCH to UHF/UKS


INFO   : the flag for use of LIBINT has been found!

================================================================================
                                       INPUT FILE
================================================================================
NAME = g-tensor_cc-pVDZ_invariant.inp
|  1> ! B3LYP cc-pVDZ AUTOAUX
|  2> %pal nprocs 16 end
|  3> *XYZFile 0 2 opt.xyz
|  4> %EPRNMR
|  5>         GTENSOR   TRUE
|  6>         NUCLEI    = ALL H {AISO, ADIP, AORB}
|  7>         ORI       GIAO
|  8> END
|  9> 
| 10>                          ****END OF INPUT****
================================================================================

                       ****************************
                       * Single Point Calculation *
                       ****************************

---------------------------------
CARTESIAN COORDINATES (ANGSTROEM)
---------------------------------
  C     -2.629810    0.131627    0.162858
  C      1.575037   -0.216712   -0.510283
  C      0.963312    1.084335   -0.474588
  C     -0.443109    1.138937   -0.246461
  C     -1.220090   -0.004870   -0.065413
  C     -0.611482   -1.294297   -0.109269
  C      0.773237   -1.346173   -0.331260
  H     -0.931590    2.115353   -0.214935
  H      1.261625   -2.321838   -0.371309
  C      1.680391    2.283916   -0.657338
  H      2.751074    2.300061   -0.855192
  H      1.160107    3.242687   -0.621812
  C      3.065124   -0.387397   -0.702152
  H      3.260826   -1.402495   -1.088894
  H      3.434851    0.309876   -1.474304
  C      3.883125   -0.186945    0.590812
  H      3.684707    0.820809    0.995880
  H      3.520635   -0.898464    1.353970
  C      5.386267   -0.374945    0.375837
  H      5.780551    0.345274   -0.361788
  H      5.614618   -1.387734    0.000718
  C     -1.464926   -2.531794    0.074762
  H     -2.011807   -2.435387    1.031422
  H     -2.260385   -2.520141   -0.694845
  C     -0.748697   -3.884273    0.038120
  H     -0.216378   -4.002580   -0.923856
  H      0.026896   -3.920157    0.825892
  C     -1.709325   -5.064954    0.224713
  H     -2.249194   -4.946276    1.182636
  H     -2.483484   -5.031489   -0.564691
  C     -1.006992   -6.424449    0.197118
  H     -0.252756   -6.502888    0.999495
  H     -0.485018   -6.586611   -0.761904
  C     -3.823237    0.254311    0.360312
  H     -4.874141    0.369781    0.540099
  H      5.947470   -0.233864    1.313763
  H     -1.722967   -7.251389    0.330784

----------------------------
CARTESIAN COORDINATES (A.U.)
----------------------------
  NO LB      ZA    FRAG     MASS         X           Y           Z
   0 C     6.0000    0    12.011   -4.969620    0.248738    0.307757
   1 C     6.0000    0    12.011    2.976389   -0.409527   -0.964295
   2 C     6.0000    0    12.011    1.820396    2.049095   -0.896842
   3 C     6.0000    0    12.011   -0.837354    2.152279   -0.465743
   4 C     6.0000    0    12.011   -2.305636   -0.009203   -0.123613
   5 C     6.0000    0    12.011   -1.155534   -2.445868   -0.206488
   6 C     6.0000    0    12.011    1.461206   -2.543899   -0.625991
   7 H     1.0000    0     1.008   -1.760449    3.997437   -0.406167
   8 H     1.0000    0     1.008    2.384125   -4.387639   -0.701673
   9 C     6.0000    0    12.011    3.175479    4.315977   -1.242188
  10 H     1.0000    0     1.008    5.198776    4.346486   -1.616078
  11 H     1.0000    0     1.008    2.192284    6.127791   -1.175054
  12 C     6.0000    0    12.011    5.792245   -0.732074   -1.326875
  13 H     1.0000    0     1.008    6.162069   -2.650331   -2.057711
  14 H     1.0000    0     1.008    6.490927    0.585582   -2.786030
  15 C     6.0000    0    12.011    7.338042   -0.353275    1.116473
  16 H     1.0000    0     1.008    6.963088    1.551104    1.881941
  17 H     1.0000    0     1.008    6.653035   -1.697852    2.558632
  18 C     6.0000    0    12.011   10.178570   -0.708543    0.710229
  19 H     1.0000    0     1.008   10.923658    0.652474   -0.683679
  20 H     1.0000    0     1.008   10.610090   -2.622437    0.001358
  21 C     6.0000    0    12.011   -2.768309   -4.784397    0.141280
  22 H     1.0000    0     1.008   -3.801763   -4.602215    1.949104
  23 H     1.0000    0     1.008   -4.271508   -4.762377   -1.313067
  24 C     6.0000    0    12.011   -1.414833   -7.340213    0.072036
  25 H     1.0000    0     1.008   -0.408896   -7.563780   -1.745835
  26 H     1.0000    0     1.008    0.050826   -7.408022    1.560709
  27 C     6.0000    0    12.011   -3.230157   -9.571376    0.424647
  28 H     1.0000    0     1.008   -4.250361   -9.347107    2.234858
  29 H     1.0000    0     1.008   -4.693105   -9.508136   -1.067111
  30 C     6.0000    0    12.011   -1.902939  -12.140450    0.372498
  31 H     1.0000    0     1.008   -0.477639  -12.288677    1.888772
  32 H     1.0000    0     1.008   -0.916552  -12.446892   -1.439790
  33 C     6.0000    0    12.011   -7.224870    0.480578    0.680891
  34 H     1.0000    0     1.008   -9.210791    0.698784    1.020639
  35 H     1.0000    0     1.008   11.239090   -0.441938    2.482653
  36 H     1.0000    0     1.008   -3.255936  -13.703140    0.625092

--------------------------------
INTERNAL COORDINATES (ANGSTROEM)
--------------------------------
 C      0   0   0     0.000000000000     0.00000000     0.00000000
 C      1   0   0     4.272610240157     0.00000000     0.00000000
 C      2   1   0     1.438125324390    60.24552033     0.00000000
 C      3   2   1     1.425848293951   117.26990964     0.00000000
 C      4   3   2     1.394550728569   122.61055854   359.83785937
 C      5   4   3     1.426516485839   119.97887465   359.79624859
 C      2   1   3     1.396644556490    58.71813929   180.41905600
 H      4   3   2     1.092243355031   118.68444512   180.00508086
 H      7   2   1     1.091809868125   117.46229028   179.91337232
 C      3   2   1     1.409466609286   123.39034766   180.25391086
 H     10   3   2     1.088930012121   122.43963380     1.03031875
 H     10   3   2     1.091420817464   120.05965022   179.85206872
 C      2   1   3     1.512053481354   177.48621497   138.79855544
 H     13   2   7     1.103762637295   108.84475263    23.61736388
 H     13   2   7     1.104131283142   110.33115400   139.58705119
 C     13   2   7     1.543069080322   113.66706589   262.43995349
 H     16  13   2     1.104091011157   109.31232478   302.10998132
 H     16  13   2     1.104567095054   108.74019833    57.39727594
 C     16  13   2     1.530031484904   112.77443986   179.55202757
 H     19  16  13     1.103750832062   111.38687676    60.17487367
 H     19  16  13     1.103901864798   111.32750082   300.43251127
 C      6   5   4     1.514473940543   119.63223426   180.59990438
 H     22   6   5     1.106150845304   108.20894830   304.76341125
 H     22   6   5     1.106881284587   108.17289650    57.06993635
 C     22   6   5     1.530858015518   117.08692832   180.89650613
 H     25  22   6     1.105783574916   109.91168449   302.08501453
 H     25  22   6     1.106082018337   109.85747792    58.56124947
 C     25  22   6     1.533502635689   112.59519212   180.40380791
 H     28  25  22     1.105964893624   109.18126977   302.62769295
 H     28  25  22     1.106165189333   109.16458957    57.91587622
 C     28  25  22     1.530444509652   113.21970407   180.27451933
 H     31  28  25     1.104008538557   111.31679819    59.99337564
 H     31  28  25     1.103845782783   111.29473236   300.30012473
 C      1   2   3     1.215856577242   178.84603709   342.21745026
 H     34   1   5     1.072406703451   179.50064448   351.94937777
 H     19  16  13     1.102069744278   111.40579065   180.40040565
 H     31  28  25     1.101960317542   111.48462708   180.15533911

---------------------------
INTERNAL COORDINATES (A.U.)
---------------------------
 C      0   0   0     0.000000000000     0.00000000     0.00000000
 C      1   0   0     8.074063230885     0.00000000     0.00000000
 C      2   1   0     2.717663009354    60.24552033     0.00000000
 C      3   2   1     2.694462784087   117.26990964     0.00000000
 C      4   3   2     2.635318956856   122.61055854   359.83785937
 C      5   4   3     2.695725483759   119.97887465   359.79624859
 C      2   1   3     2.639275718198    58.71813929   180.41905600
 H      4   3   2     2.064040812604   118.68444512   180.00508086
 H      7   2   1     2.063221641068   117.46229028   179.91337232
 C      3   2   1     2.663505886458   123.39034766   180.25391086
 H     10   3   2     2.057779501917   122.43963380     1.03031875
 H     10   3   2     2.062486441868   120.05965022   179.85206872
 C      2   1   3     2.857366979601   177.48621497   138.79855544
 H     13   2   7     2.085809101342   108.84475263    23.61736388
 H     13   2   7     2.086505741034   110.33115400   139.58705119
 C     13   2   7     2.915977967531   113.66706589   262.43995349
 H     16  13   2     2.086429638010   109.31232478   302.10998132
 H     16  13   2     2.087329306194   108.74019833    57.39727594
 C     16  13   2     2.891340482745   112.77443986   179.55202757
 H     19  16  13     2.085786792686   111.38687676    60.17487367
 H     19  16  13     2.086072203193   111.32750082   300.43251127
 C      6   5   4     2.861940984587   119.63223426   180.59990438
 H     22   6   5     2.090322160429   108.20894830   304.76341125
 H     22   6   5     2.091702490632   108.17289650    57.06993635
 C     22   6   5     2.892902399246   117.08692832   180.89650613
 H     25  22   6     2.089628119979   109.91168449   302.08501453
 H     25  22   6     2.090192096312   109.85747792    58.56124947
 C     25  22   6     2.897900007099   112.59519212   180.40380791
 H     28  25  22     2.089970762680   109.18126977   302.62769295
 H     28  25  22     2.090349266716   109.16458957    57.91587622
 C     28  25  22     2.892120986405   113.21970407   180.27451933
 H     31  28  25     2.086273787383   111.31679819    59.99337564
 H     31  28  25     2.085966223544   111.29473236   300.30012473
 C      1   2   3     2.297635949114   178.84603709   342.21745026
 H     34   1   5     2.026554973704   179.50064448   351.94937777
 H     19  16  13     2.082609997167   111.40579065   180.40040565
 H     31  28  25     2.082403210602   111.48462708   180.15533911

---------------------
BASIS SET INFORMATION
---------------------
There are 2 groups of distinct atoms

 Group   1 Type C   : 17s4p1d contracted to 3s2p1d pattern {881/31/1}
 Group   2 Type H   : 4s1p contracted to 2s1p pattern {31/1}

Atom   0C    basis set group =>   1
Atom   1C    basis set group =>   1
Atom   2C    basis set group =>   1
Atom   3C    basis set group =>   1
Atom   4C    basis set group =>   1
Atom   5C    basis set group =>   1
Atom   6C    basis set group =>   1
Atom   7H    basis set group =>   2
Atom   8H    basis set group =>   2
Atom   9C    basis set group =>   1
Atom  10H    basis set group =>   2
Atom  11H    basis set group =>   2
Atom  12C    basis set group =>   1
Atom  13H    basis set group =>   2
Atom  14H    basis set group =>   2
Atom  15C    basis set group =>   1
Atom  16H    basis set group =>   2
Atom  17H    basis set group =>   2
Atom  18C    basis set group =>   1
Atom  19H    basis set group =>   2
Atom  20H    basis set group =>   2
Atom  21C    basis set group =>   1
Atom  22H    basis set group =>   2
Atom  23H    basis set group =>   2
Atom  24C    basis set group =>   1
Atom  25H    basis set group =>   2
Atom  26H    basis set group =>   2
Atom  27C    basis set group =>   1
Atom  28H    basis set group =>   2
Atom  29H    basis set group =>   2
Atom  30C    basis set group =>   1
Atom  31H    basis set group =>   2
Atom  32H    basis set group =>   2
Atom  33C    basis set group =>   1
Atom  34H    basis set group =>   2
Atom  35H    basis set group =>   2
Atom  36H    basis set group =>   2
---------------------------------
AUXILIARY/J BASIS SET INFORMATION
---------------------------------
There are 2 groups of distinct atoms

 Group   1 Type C   : 14s11p10d2f contracted to 14s11p10d2f pattern {11111111111111/11111111111/1111111111/11}
 Group   2 Type H   : 9s2p1d contracted to 9s2p1d pattern {111111111/11/1}

Atom   0C    basis set group =>   1
Atom   1C    basis set group =>   1
Atom   2C    basis set group =>   1
Atom   3C    basis set group =>   1
Atom   4C    basis set group =>   1
Atom   5C    basis set group =>   1
Atom   6C    basis set group =>   1
Atom   7H    basis set group =>   2
Atom   8H    basis set group =>   2
Atom   9C    basis set group =>   1
Atom  10H    basis set group =>   2
Atom  11H    basis set group =>   2
Atom  12C    basis set group =>   1
Atom  13H    basis set group =>   2
Atom  14H    basis set group =>   2
Atom  15C    basis set group =>   1
Atom  16H    basis set group =>   2
Atom  17H    basis set group =>   2
Atom  18C    basis set group =>   1
Atom  19H    basis set group =>   2
Atom  20H    basis set group =>   2
Atom  21C    basis set group =>   1
Atom  22H    basis set group =>   2
Atom  23H    basis set group =>   2
Atom  24C    basis set group =>   1
Atom  25H    basis set group =>   2
Atom  26H    basis set group =>   2
Atom  27C    basis set group =>   1
Atom  28H    basis set group =>   2
Atom  29H    basis set group =>   2
Atom  30C    basis set group =>   1
Atom  31H    basis set group =>   2
Atom  32H    basis set group =>   2
Atom  33C    basis set group =>   1
Atom  34H    basis set group =>   2
Atom  35H    basis set group =>   2
Atom  36H    basis set group =>   2
---------------------------------
AUXILIARY/C BASIS SET INFORMATION
---------------------------------
There are 2 groups of distinct atoms

 Group   1 Type C   : 14s11p10d2f contracted to 14s11p10d2f pattern {11111111111111/11111111111/1111111111/11}
 Group   2 Type H   : 9s2p1d contracted to 9s2p1d pattern {111111111/11/1}

Atom   0C    basis set group =>   1
Atom   1C    basis set group =>   1
Atom   2C    basis set group =>   1
Atom   3C    basis set group =>   1
Atom   4C    basis set group =>   1
Atom   5C    basis set group =>   1
Atom   6C    basis set group =>   1
Atom   7H    basis set group =>   2
Atom   8H    basis set group =>   2
Atom   9C    basis set group =>   1
Atom  10H    basis set group =>   2
Atom  11H    basis set group =>   2
Atom  12C    basis set group =>   1
Atom  13H    basis set group =>   2
Atom  14H    basis set group =>   2
Atom  15C    basis set group =>   1
Atom  16H    basis set group =>   2
Atom  17H    basis set group =>   2
Atom  18C    basis set group =>   1
Atom  19H    basis set group =>   2
Atom  20H    basis set group =>   2
Atom  21C    basis set group =>   1
Atom  22H    basis set group =>   2
Atom  23H    basis set group =>   2
Atom  24C    basis set group =>   1
Atom  25H    basis set group =>   2
Atom  26H    basis set group =>   2
Atom  27C    basis set group =>   1
Atom  28H    basis set group =>   2
Atom  29H    basis set group =>   2
Atom  30C    basis set group =>   1
Atom  31H    basis set group =>   2
Atom  32H    basis set group =>   2
Atom  33C    basis set group =>   1
Atom  34H    basis set group =>   2
Atom  35H    basis set group =>   2
Atom  36H    basis set group =>   2
----------------------------------
AUXILIARY/JK BASIS SET INFORMATION
----------------------------------
There are 2 groups of distinct atoms

 Group   1 Type C   : 14s11p10d2f contracted to 14s11p10d2f pattern {11111111111111/11111111111/1111111111/11}
 Group   2 Type H   : 9s2p1d contracted to 9s2p1d pattern {111111111/11/1}

Atom   0C    basis set group =>   1
Atom   1C    basis set group =>   1
Atom   2C    basis set group =>   1
Atom   3C    basis set group =>   1
Atom   4C    basis set group =>   1
Atom   5C    basis set group =>   1
Atom   6C    basis set group =>   1
Atom   7H    basis set group =>   2
Atom   8H    basis set group =>   2
Atom   9C    basis set group =>   1
Atom  10H    basis set group =>   2
Atom  11H    basis set group =>   2
Atom  12C    basis set group =>   1
Atom  13H    basis set group =>   2
Atom  14H    basis set group =>   2
Atom  15C    basis set group =>   1
Atom  16H    basis set group =>   2
Atom  17H    basis set group =>   2
Atom  18C    basis set group =>   1
Atom  19H    basis set group =>   2
Atom  20H    basis set group =>   2
Atom  21C    basis set group =>   1
Atom  22H    basis set group =>   2
Atom  23H    basis set group =>   2
Atom  24C    basis set group =>   1
Atom  25H    basis set group =>   2
Atom  26H    basis set group =>   2
Atom  27C    basis set group =>   1
Atom  28H    basis set group =>   2
Atom  29H    basis set group =>   2
Atom  30C    basis set group =>   1
Atom  31H    basis set group =>   2
Atom  32H    basis set group =>   2
Atom  33C    basis set group =>   1
Atom  34H    basis set group =>   2
Atom  35H    basis set group =>   2
Atom  36H    basis set group =>   2


           ************************************************************
           *        Program running with 16 parallel MPI-processes    *
           *              working on a common directory               *
           ************************************************************
------------------------------------------------------------------------------
                           ORCA GTO INTEGRAL CALCULATION
------------------------------------------------------------------------------

                         BASIS SET STATISTICS AND STARTUP INFO

 # of primitive gaussian shells          ...  457
 # of primitive gaussian functions       ...  691
 # of contracted shells                  ...  159
 # of contracted basis functions         ...  329
 Highest angular momentum                ...    2
 Maximum contraction depth               ...    8
 Integral package used                   ... LIBINT
 Integral threshhold            Thresh   ...  1.000e-10
 Primitive cut-off              TCut     ...  1.000e-11


------------------------------ INTEGRAL EVALUATION ----------------------------


 * One electron integrals 
 Pre-screening matrix                    ... done
 Shell pair data                         ... done (   0.006 sec)



           ************************************************************
           *        Program running with 16 parallel MPI-processes    *
           *              working on a common directory               *
           ************************************************************
-------------------------------------------------------------------------------
                                 ORCA SCF
-------------------------------------------------------------------------------

------------
SCF SETTINGS
------------
Hamiltonian:
 Density Functional     Method          .... DFT(GTOs)
 Exchange Functional    Exchange        .... B88
   X-Alpha parameter    XAlpha          ....  0.666667
   Becke's b parameter  XBeta           ....  0.004200
 Correlation Functional Correlation     .... LYP
 LDA part of GGA corr.  LDAOpt          .... VWN-5
 Gradients option       PostSCFGGA      .... off
 Hybrid DFT is turned on
   Fraction HF Exchange ScalHFX         ....  0.200000
   Scaling of DF-GGA-X  ScalDFX         ....  0.720000
   Scaling of DF-GGA-C  ScalDFC         ....  0.810000
   Scaling of DF-LDA-C  ScalLDAC        ....  1.000000
   Perturbative correction              ....  0.000000
   Density functional embedding theory  .... OFF
   NL short-range parameter             ....  4.800000


General Settings:
 Integral files         IntName         .... g-tensor_cc-pVDZ_invariant
 Hartree-Fock type      HFTyp           .... UHF
 Total Charge           Charge          ....    0
 Multiplicity           Mult            ....    2
 Number of Electrons    NEL             ....  117
 Basis Dimension        Dim             ....  329
 Nuclear Repulsion      ENuc            ....   1004.4709103533 Eh

Convergence Acceleration:
 DIIS                   CNVDIIS         .... on
   Start iteration      DIISMaxIt       ....    12
   Startup error        DIISStart       ....  0.200000
   # of expansion vecs  DIISMaxEq       ....     5
   Bias factor          DIISBfac        ....   1.050
   Max. coefficient     DIISMaxC        ....  10.000
 Newton-Raphson         CNVNR           .... off
 SOSCF                  CNVSOSCF        .... off
 Level Shifting         CNVShift        .... on
   Level shift para.    LevelShift      ....    0.2500
   Turn off err/grad.   ShiftErr        ....    0.0010
 Zerner damping         CNVZerner       .... off
 Static damping         CNVDamp         .... on
   Fraction old density DampFac         ....    0.7000
   Max. Damping (<1)    DampMax         ....    0.9800
   Min. Damping (>=0)   DampMin         ....    0.0000
   Turn off err/grad.   DampErr         ....    0.1000
 Fernandez-Rico         CNVRico         .... off

SCF Procedure:
 Maximum # iterations   MaxIter         ....   125
 SCF integral mode      SCFMode         .... Direct
   Integral package                     .... LIBINT
 Reset frequency        DirectResetFreq ....    20
 Integral Threshold     Thresh          ....  1.000e-10 Eh
 Primitive CutOff       TCut            ....  1.000e-11 Eh

Convergence Tolerance:
 Convergence Check Mode ConvCheckMode   .... Total+1el-Energy
 Convergence forced     ConvForced      .... 0
 Energy Change          TolE            ....  1.000e-06 Eh
 1-El. energy change                    ....  1.000e-03 Eh
 DIIS Error             TolErr          ....  1.000e-06


Diagonalization of the overlap matrix:
Smallest eigenvalue                        ... 1.517e-04
Time for diagonalization                   ...    0.023 sec
Threshold for overlap eigenvalues          ... 1.000e-08
Number of eigenvalues below threshold      ... 0
Time for construction of square roots      ...    0.021 sec
Total time needed                          ...    0.045 sec

-------------------
DFT GRID GENERATION
-------------------

General Integration Accuracy     IntAcc      ...  4.340
Radial Grid Type                 RadialGrid  ... Gauss-Chebyshev
Angular Grid (max. acc.)         AngularGrid ... Lebedev-110
Angular grid pruning method      GridPruning ... 3 (G Style)
Weight generation scheme         WeightScheme... Becke
Basis function cutoff            BFCut       ...    1.0000e-10
Integration weight cutoff        WCut        ...    1.0000e-14
Grids for H and He will be reduced by one unit

# of grid points (after initial pruning)     ...  43170 (   0.0 sec)
# of grid points (after weights+screening)   ...  38696 (   0.1 sec)
nearest neighbour list constructed           ...    0.0 sec
Grid point re-assignment to atoms done       ...    0.0 sec
Grid point division into batches done        ...    0.0 sec
Reduced shell lists constructed in    0.1 sec

Total number of grid points                  ...    38696
Total number of batches                      ...      624
Average number of points per batch           ...       62
Average number of grid points per atom       ...     1046
Average number of shells per batch           ...    96.50 (60.69%)
Average number of basis functions per batch  ...   193.45 (58.80%)
Average number of large shells per batch     ...    66.10 (68.50%)
Average number of large basis fcns per batch ...   136.50 (70.56%)
Maximum spatial batch extension              ...   4.76,  4.80, 16.86 au
Average spatial batch extension              ...   0.12,  0.12,  0.17 au

Time for grid setup =    0.233 sec

------------------------------
INITIAL GUESS: MODEL POTENTIAL
------------------------------
Loading Hartree-Fock densities                     ... done
Calculating cut-offs                               ... done
Setting up the integral package                    ... done
Initializing the effective Hamiltonian             ... done
Starting the Coulomb interaction                   ... done (   0.1 sec)
Reading the grid                                   ... done
Mapping shells                                     ... done
Starting the XC term evaluation                    ... done (   0.1 sec)
  promolecular density results
     # of electrons  =    116.992815324
     EX              =    -88.401180758
     EC              =     -3.814313634
     EX+EC           =    -92.215494392
Transforming the Hamiltonian                       ... done (   0.0 sec)
Diagonalizing the Hamiltonian                      ... done (   0.0 sec)
Back transforming the eigenvectors                 ... done (   0.0 sec)
Now organizing SCF variables                       ... done
                      ------------------
                      INITIAL GUESS DONE (   0.7 sec)
                      ------------------
--------------
SCF ITERATIONS
--------------
ITER       Energy         Delta-E        Max-DP      RMS-DP      [F,P]     Damp
               ***  Starting incremental Fock matrix formation  ***
  0   -621.4419666046   0.000000000000 0.06218669  0.00092469  0.1737548 0.7000
  1   -621.6269057352  -0.184939130635 0.04566206  0.00068037  0.0915243 0.7000
                               ***Turning on DIIS***
  2   -621.7091262653  -0.082220530107 0.09000092  0.00129222  0.0350154 0.0000
  3   -621.8239922752  -0.114866009880 0.01779837  0.00036615  0.0497879 0.0000
  4   -621.8554986978  -0.031506422638 0.00832613  0.00012838  0.0126446 0.0000
  5   -621.8575286678  -0.002029969988 0.00393924  0.00004559  0.0029147 0.0000
  6   -621.8578375824  -0.000308914523 0.00263307  0.00002478  0.0014158 0.0000
  7   -621.8579507384  -0.000113156072 0.00175838  0.00001613  0.0010013 0.0000
  8   -621.8580077860  -0.000057047572 0.00248392  0.00002828  0.0007269 0.0000
  9   -621.8580682951  -0.000060509119 0.00084869  0.00000888  0.0002000 0.0000
 10   -621.8580766287  -0.000008333549 0.00042845  0.00000475  0.0002779 0.0000
 11   -621.8580795009  -0.000002872235 0.00023911  0.00000225  0.0001414 0.0000
 12   -621.8580804231  -0.000000922190 0.00016786  0.00000165  0.0000746 0.0000
                 **** Energy Check signals convergence ****

               *****************************************************
               *                     SUCCESS                       *
               *           SCF CONVERGED AFTER  13 CYCLES          *
               *****************************************************

Setting up the final grid:

General Integration Accuracy     IntAcc      ...  4.670
Radial Grid Type                 RadialGrid  ... Gauss-Chebyshev
Angular Grid (max. acc.)         AngularGrid ... Lebedev-302
Angular grid pruning method      GridPruning ... 3 (G Style)
Weight generation scheme         WeightScheme... Becke
Basis function cutoff            BFCut       ...    1.0000e-10
Integration weight cutoff        WCut        ...    1.0000e-14
Grids for H and He will be reduced by one unit

# of grid points (after initial pruning)     ... 170666 (   0.0 sec)
# of grid points (after weights+screening)   ... 150009 (   0.2 sec)
nearest neighbour list constructed           ...    0.0 sec
Grid point re-assignment to atoms done       ...    0.0 sec
Grid point division into batches done        ...    0.5 sec
Reduced shell lists constructed in    0.7 sec

Total number of grid points                  ...   150009
Total number of batches                      ...     2358
Average number of points per batch           ...       63
Average number of grid points per atom       ...     4054
Average number of shells per batch           ...    91.84 (57.76%)
Average number of basis functions per batch  ...   183.93 (55.91%)
Average number of large shells per batch     ...    62.12 (67.64%)
Average number of large basis fcns per batch ...   128.70 (69.97%)
Maximum spatial batch extension              ...   5.77,  5.44, 17.10 au
Average spatial batch extension              ...   0.08,  0.09,  0.11 au

Final grid set up in    1.1 sec
Final integration                            ... done (   0.6 sec)
Change in XC energy                          ...     0.000706901
Integrated number of electrons               ...   117.000002465
Previous integrated no of electrons          ...   117.004660014

----------------
TOTAL SCF ENERGY
----------------

Total Energy       :         -621.85737406 Eh          -16921.59943 eV

Components:
Nuclear Repulsion  :         1004.47091035 Eh           27333.04306 eV
Electronic Energy  :        -1626.32828441 Eh          -44254.64248 eV
One Electron Energy:        -2831.05825564 Eh          -77037.01162 eV
Two Electron Energy:         1204.72997123 Eh           32782.36914 eV

Virial components:
Potential Energy   :        -1239.23413688 Eh          -33721.27522 eV
Kinetic Energy     :          617.37676282 Eh           16799.67580 eV
Virial Ratio       :            2.00725750


DFT components:
N(Alpha)           :       59.000002297433 electrons
N(Beta)            :       58.000000167728 electrons
N(Total)           :      117.000002465161 electrons
E(X)               :      -71.620473566135 Eh       
E(C)               :       -4.508340634802 Eh       
E(XC)              :      -76.128814200937 Eh       
DFET-embed. en.    :        0.000000000000 Eh       

---------------
SCF CONVERGENCE
---------------

  Last Energy change         ...   -5.3814e-07  Tolerance :   1.0000e-06
  Last MAX-Density change    ...    1.4079e-04  Tolerance :   1.0000e-05
  Last RMS-Density change    ...    1.4858e-06  Tolerance :   1.0000e-06
  Last DIIS Error            ...    2.5508e-05  Tolerance :   1.0000e-06

             **** THE GBW FILE WAS UPDATED (g-tensor_cc-pVDZ_invariant.gbw) ****
             **** DENSITY FILE WAS UPDATED (g-tensor_cc-pVDZ_invariant.scfp) ****
             **** ENERGY FILE WAS UPDATED (g-tensor_cc-pVDZ_invariant.en.tmp) ****
----------------------
UHF SPIN CONTAMINATION
----------------------

Warning: in a DFT calculation there is little theoretical justification to 
         calculate <S**2> as in Hartree-Fock theory. We will do it anyways
         but you should keep in mind that the values have only limited relevance

Expectation value of <S**2>     :     0.784554
Ideal value S*(S+1) for S=0.5   :     0.750000
Deviation                       :     0.034554

             **** THE GBW FILE WAS UPDATED (g-tensor_cc-pVDZ_invariant.gbw) ****
             **** DENSITY FILE WAS UPDATED (g-tensor_cc-pVDZ_invariant.scfp) ****
----------------
ORBITAL ENERGIES
----------------
                 SPIN UP ORBITALS
  NO   OCC          E(Eh)            E(eV) 
   0   1.0000     -10.206185      -277.7244 
   1   1.0000     -10.200965      -277.5824 
   2   1.0000     -10.196912      -277.4721 
   3   1.0000     -10.195055      -277.4215 
   4   1.0000     -10.192728      -277.3582 
   5   1.0000     -10.189949      -277.2826 
   6   1.0000     -10.188403      -277.2405 
   7   1.0000     -10.186274      -277.1826 
   8   1.0000     -10.185563      -277.1632 
   9   1.0000     -10.183988      -277.1204 
  10   1.0000     -10.182560      -277.0815 
  11   1.0000     -10.182434      -277.0781 
  12   1.0000     -10.181828      -277.0616 
  13   1.0000     -10.181658      -277.0570 
  14   1.0000     -10.177611      -276.9469 
  15   1.0000     -10.175944      -276.9015 
  16   1.0000      -0.869076       -23.6488 
  17   1.0000      -0.814451       -22.1623 
  18   1.0000      -0.797124       -21.6908 
  19   1.0000      -0.776574       -21.1317 
  20   1.0000      -0.764108       -20.7924 
  21   1.0000      -0.731985       -19.9183 
  22   1.0000      -0.723713       -19.6932 
  23   1.0000      -0.684580       -18.6284 
  24   1.0000      -0.669491       -18.2178 
  25   1.0000      -0.624302       -16.9881 
  26   1.0000      -0.611191       -16.6313 
  27   1.0000      -0.591225       -16.0880 
  28   1.0000      -0.576297       -15.6818 
  29   1.0000      -0.564779       -15.3684 
  30   1.0000      -0.524697       -14.2777 
  31   1.0000      -0.492841       -13.4109 
  32   1.0000      -0.489531       -13.3208 
  33   1.0000      -0.470419       -12.8007 
  34   1.0000      -0.457439       -12.4476 
  35   1.0000      -0.447695       -12.1824 
  36   1.0000      -0.427930       -11.6446 
  37   1.0000      -0.421832       -11.4786 
  38   1.0000      -0.421074       -11.4580 
  39   1.0000      -0.418230       -11.3806 
  40   1.0000      -0.411418       -11.1953 
  41   1.0000      -0.399809       -10.8793 
  42   1.0000      -0.387005       -10.5309 
  43   1.0000      -0.379686       -10.3318 
  44   1.0000      -0.374487       -10.1903 
  45   1.0000      -0.367263        -9.9937 
  46   1.0000      -0.351870        -9.5749 
  47   1.0000      -0.350770        -9.5449 
  48   1.0000      -0.339299        -9.2328 
  49   1.0000      -0.335229        -9.1220 
  50   1.0000      -0.328422        -8.9368 
  51   1.0000      -0.323349        -8.7988 
  52   1.0000      -0.322585        -8.7780 
  53   1.0000      -0.321244        -8.7415 
  54   1.0000      -0.305873        -8.3232 
  55   1.0000      -0.275793        -7.5047 
  56   1.0000      -0.271943        -7.4000 
  57   1.0000      -0.232980        -6.3397 
  58   1.0000      -0.177484        -4.8296 
  59   0.0000      -0.030445        -0.8284 
  60   0.0000       0.011640         0.3168 
  61   0.0000       0.047327         1.2878 
  62   0.0000       0.058859         1.6016 
  63   0.0000       0.062055         1.6886 
  64   0.0000       0.078665         2.1406 
  65   0.0000       0.085773         2.3340 
  66   0.0000       0.087656         2.3852 
  67   0.0000       0.088802         2.4164 
  68   0.0000       0.094435         2.5697 
  69   0.0000       0.098836         2.6895 
  70   0.0000       0.102427         2.7872 
  71   0.0000       0.108002         2.9389 
  72   0.0000       0.117547         3.1986 
  73   0.0000       0.133004         3.6192 
  74   0.0000       0.141341         3.8461 
  75   0.0000       0.144860         3.9418 
  76   0.0000       0.147721         4.0197 
  77   0.0000       0.150239         4.0882 
  78   0.0000       0.152432         4.1479 
  79   0.0000       0.161338         4.3902 
  80   0.0000       0.164230         4.4689 
  81   0.0000       0.166392         4.5278 
  82   0.0000       0.176155         4.7934 
  83   0.0000       0.186272         5.0687 
  84   0.0000       0.190293         5.1781 
  85   0.0000       0.211755         5.7621 
  86   0.0000       0.214608         5.8398 
  87   0.0000       0.230765         6.2794 
  88   0.0000       0.238327         6.4852 
  89   0.0000       0.247974         6.7477 
  90   0.0000       0.250753         6.8233 
  91   0.0000       0.260982         7.1017 
  92   0.0000       0.268875         7.3165 
  93   0.0000       0.297724         8.1015 
  94   0.0000       0.331302         9.0152 
  95   0.0000       0.331861         9.0304 
  96   0.0000       0.349126         9.5002 
  97   0.0000       0.358930         9.7670 
  98   0.0000       0.369122        10.0443 
  99   0.0000       0.406928        11.0731 
 100   0.0000       0.408938        11.1278 
 101   0.0000       0.412078        11.2132 
 102   0.0000       0.415745        11.3130 
 103   0.0000       0.419269        11.4089 
 104   0.0000       0.428042        11.6476 
 105   0.0000       0.437751        11.9118 
 106   0.0000       0.452511        12.3134 
 107   0.0000       0.458834        12.4855 
 108   0.0000       0.465711        12.6726 
 109   0.0000       0.473827        12.8935 
 110   0.0000       0.476680        12.9711 
 111   0.0000       0.484739        13.1904 
 112   0.0000       0.491232        13.3671 
 113   0.0000       0.502059        13.6617 
 114   0.0000       0.505044        13.7429 
 115   0.0000       0.514311        13.9951 
 116   0.0000       0.517238        14.0748 
 117   0.0000       0.533723        14.5233 
 118   0.0000       0.536738        14.6054 
 119   0.0000       0.544595        14.8192 
 120   0.0000       0.552577        15.0364 
 121   0.0000       0.565295        15.3824 
 122   0.0000       0.569451        15.4955 
 123   0.0000       0.580988        15.8095 
 124   0.0000       0.599533        16.3141 
 125   0.0000       0.606765        16.5109 
 126   0.0000       0.612135        16.6571 
 127   0.0000       0.615299        16.7431 
 128   0.0000       0.616744        16.7825 
 129   0.0000       0.627054        17.0630 
 130   0.0000       0.635116        17.2824 
 131   0.0000       0.637767        17.3545 
 132   0.0000       0.641294        17.4505 
 133   0.0000       0.643379        17.5072 
 134   0.0000       0.644971        17.5505 
 135   0.0000       0.651062        17.7163 
 136   0.0000       0.657329        17.8868 
 137   0.0000       0.657776        17.8990 
 138   0.0000       0.661521        18.0009 
 139   0.0000       0.663377        18.0514 
 140   0.0000       0.672583        18.3019 
 141   0.0000       0.679844        18.4995 
 142   0.0000       0.682392        18.5688 
 143   0.0000       0.686420        18.6784 
 144   0.0000       0.694874        18.9085 
 145   0.0000       0.699396        19.0315 
 146   0.0000       0.703724        19.1493 
 147   0.0000       0.708931        19.2910 
 148   0.0000       0.711892        19.3716 
 149   0.0000       0.715057        19.4577 
 150   0.0000       0.729243        19.8437 
 151   0.0000       0.733396        19.9567 
 152   0.0000       0.743351        20.2276 
 153   0.0000       0.747752        20.3474 
 154   0.0000       0.761161        20.7122 
 155   0.0000       0.772995        21.0343 
 156   0.0000       0.796031        21.6611 
 157   0.0000       0.799430        21.7536 
 158   0.0000       0.818348        22.2684 
 159   0.0000       0.833039        22.6682 
 160   0.0000       0.835932        22.7469 
 161   0.0000       0.838418        22.8145 
 162   0.0000       0.844687        22.9851 
 163   0.0000       0.872493        23.7417 
 164   0.0000       0.892206        24.2782 
 165   0.0000       0.903039        24.5729 
 166   0.0000       0.912920        24.8418 
 167   0.0000       0.935909        25.4674 
 168   0.0000       0.956831        26.0367 
 169   0.0000       0.962484        26.1905 
 170   0.0000       0.980890        26.6914 
 171   0.0000       0.987229        26.8639 
 172   0.0000       1.002415        27.2771 
 173   0.0000       1.012706        27.5571 
 174   0.0000       1.022117        27.8132 
 175   0.0000       1.034562        28.1519 
 176   0.0000       1.045341        28.4452 
 177   0.0000       1.064179        28.9578 
 178   0.0000       1.069577        29.1047 
 179   0.0000       1.080423        29.3998 
 180   0.0000       1.083147        29.4739 
 181   0.0000       1.105931        30.0939 
 182   0.0000       1.124018        30.5861 
 183   0.0000       1.146972        31.2107 
 184   0.0000       1.160363        31.5751 
 185   0.0000       1.180605        32.1259 
 186   0.0000       1.188508        32.3409 
 187   0.0000       1.193122        32.4665 
 188   0.0000       1.204316        32.7711 
 189   0.0000       1.215002        33.0619 
 190   0.0000       1.219911        33.1955 
 191   0.0000       1.223385        33.2900 
 192   0.0000       1.246274        33.9129 
 193   0.0000       1.251779        34.0626 
 194   0.0000       1.291390        35.1405 
 195   0.0000       1.301328        35.4109 
 196   0.0000       1.322382        35.9838 
 197   0.0000       1.332252        36.2524 
 198   0.0000       1.338674        36.4272 
 199   0.0000       1.345247        36.6060 
 200   0.0000       1.371910        37.3316 
 201   0.0000       1.392497        37.8918 
 202   0.0000       1.395883        37.9839 
 203   0.0000       1.412248        38.4292 
 204   0.0000       1.416814        38.5535 
 205   0.0000       1.425319        38.7849 
 206   0.0000       1.425968        38.8026 
 207   0.0000       1.431917        38.9644 
 208   0.0000       1.438301        39.1382 
 209   0.0000       1.448007        39.4023 
 210   0.0000       1.460758        39.7492 
 211   0.0000       1.463619        39.8271 
 212   0.0000       1.470816        40.0230 
 213   0.0000       1.488268        40.4978 
 214   0.0000       1.498147        40.7666 
 215   0.0000       1.521676        41.4069 
 216   0.0000       1.534666        41.7604 
 217   0.0000       1.543104        41.9900 
 218   0.0000       1.551902        42.2294 
 219   0.0000       1.563736        42.5514 
 220   0.0000       1.578429        42.9512 
 221   0.0000       1.600525        43.5525 
 222   0.0000       1.601145        43.5694 
 223   0.0000       1.607078        43.7308 
 224   0.0000       1.611273        43.8450 
 225   0.0000       1.622599        44.1532 
 226   0.0000       1.624341        44.2006 
 227   0.0000       1.629756        44.3479 
 228   0.0000       1.631759        44.4024 
 229   0.0000       1.635966        44.5169 
 230   0.0000       1.636860        44.5412 
 231   0.0000       1.645616        44.7795 
 232   0.0000       1.653932        45.0058 
 233   0.0000       1.658385        45.1270 
 234   0.0000       1.667365        45.3713 
 235   0.0000       1.673732        45.5446 
 236   0.0000       1.682100        45.7723 
 237   0.0000       1.687502        45.9193 
 238   0.0000       1.690683        46.0058 
 239   0.0000       1.696570        46.1660 
 240   0.0000       1.703229        46.3472 
 241   0.0000       1.705075        46.3975 
 242   0.0000       1.708643        46.4946 
 243   0.0000       1.716256        46.7017 
 244   0.0000       1.722316        46.8666 
 245   0.0000       1.732173        47.1348 
 246   0.0000       1.741871        47.3987 
 247   0.0000       1.744755        47.4772 
 248   0.0000       1.755352        47.7656 
 249   0.0000       1.766325        48.0641 
 250   0.0000       1.774893        48.2973 
 251   0.0000       1.781220        48.4695 
 252   0.0000       1.795444        48.8565 
 253   0.0000       1.808420        49.2096 
 254   0.0000       1.818556        49.4854 
 255   0.0000       1.833681        49.8970 
 256   0.0000       1.841176        50.1010 
 257   0.0000       1.845024        50.2057 
 258   0.0000       1.861767        50.6612 
 259   0.0000       1.875359        51.0311 
 260   0.0000       1.882365        51.2218 
 261   0.0000       1.904282        51.8181 
 262   0.0000       1.908536        51.9339 
 263   0.0000       1.915136        52.1135 
 264   0.0000       1.922953        52.3262 
 265   0.0000       1.932642        52.5899 
 266   0.0000       1.945608        52.9427 
 267   0.0000       1.961926        53.3867 
 268   0.0000       1.973806        53.7100 
 269   0.0000       1.991927        54.2031 
 270   0.0000       2.013352        54.7861 
 271   0.0000       2.019702        54.9589 
 272   0.0000       2.032328        55.3025 
 273   0.0000       2.043490        55.6062 
 274   0.0000       2.062373        56.1200 
 275   0.0000       2.070604        56.3440 
 276   0.0000       2.084998        56.7357 
 277   0.0000       2.095505        57.0216 
 278   0.0000       2.108633        57.3788 
 279   0.0000       2.114000        57.5249 
 280   0.0000       2.133126        58.0453 
 281   0.0000       2.156250        58.6746 
 282   0.0000       2.182617        59.3920 
 283   0.0000       2.190382        59.6033 
 284   0.0000       2.195499        59.7426 
 285   0.0000       2.202707        59.9387 
 286   0.0000       2.213184        60.2238 
 287   0.0000       2.219690        60.4008 
 288   0.0000       2.243027        61.0359 
 289   0.0000       2.253399        61.3181 
 290   0.0000       2.261295        61.5330 
 291   0.0000       2.274971        61.9051 
 292   0.0000       2.285494        62.1915 
 293   0.0000       2.290932        62.3394 
 294   0.0000       2.298527        62.5461 
 295   0.0000       2.306385        62.7599 
 296   0.0000       2.314688        62.9859 
 297   0.0000       2.320757        63.1510 
 298   0.0000       2.341885        63.7259 
 299   0.0000       2.362194        64.2786 
 300   0.0000       2.403453        65.4013 
 301   0.0000       2.410348        65.5889 
 302   0.0000       2.411711        65.6260 
 303   0.0000       2.417101        65.7727 
 304   0.0000       2.424544        65.9752 
 305   0.0000       2.463034        67.0226 
 306   0.0000       2.469513        67.1989 
 307   0.0000       2.480263        67.4914 
 308   0.0000       2.487349        67.6842 
 309   0.0000       2.508379        68.2565 
 310   0.0000       2.534317        68.9623 
 311   0.0000       2.543687        69.2172 
 312   0.0000       2.556042        69.5534 
 313   0.0000       2.584561        70.3295 
 314   0.0000       2.604021        70.8590 
 315   0.0000       2.611493        71.0623 
 316   0.0000       2.616841        71.2079 
 317   0.0000       2.673890        72.7602 
 318   0.0000       2.686967        73.1161 
 319   0.0000       2.714247        73.8584 
 320   0.0000       2.721625        74.0592 
 321   0.0000       2.776977        75.5654 
 322   0.0000       2.784942        75.7821 
 323   0.0000       2.810960        76.4901 
 324   0.0000       2.866148        77.9918 
 325   0.0000       2.918927        79.4280 
 326   0.0000       3.008211        81.8576 
 327   0.0000       3.193203        86.8915 
 328   0.0000       3.359144        91.4070 

                 SPIN DOWN ORBITALS
  NO   OCC          E(Eh)            E(eV) 
   0   1.0000     -10.207756      -277.7671 
   1   1.0000     -10.197541      -277.4892 
   2   1.0000     -10.197188      -277.4796 
   3   1.0000     -10.193331      -277.3746 
   4   1.0000     -10.189435      -277.2686 
   5   1.0000     -10.188072      -277.2315 
   6   1.0000     -10.186503      -277.1888 
   7   1.0000     -10.185783      -277.1693 
   8   1.0000     -10.184159      -277.1251 
   9   1.0000     -10.183717      -277.1130 
  10   1.0000     -10.182982      -277.0930 
  11   1.0000     -10.181827      -277.0616 
  12   1.0000     -10.181657      -277.0570 
  13   1.0000     -10.179854      -277.0079 
  14   1.0000     -10.177597      -276.9465 
  15   1.0000     -10.175946      -276.9016 
  16   1.0000      -0.865363       -23.5477 
  17   1.0000      -0.811325       -22.0773 
  18   1.0000      -0.796253       -21.6672 
  19   1.0000      -0.773207       -21.0400 
  20   1.0000      -0.762633       -20.7523 
  21   1.0000      -0.729747       -19.8574 
  22   1.0000      -0.720311       -19.6007 
  23   1.0000      -0.682282       -18.5658 
  24   1.0000      -0.662263       -18.0211 
  25   1.0000      -0.617864       -16.8129 
  26   1.0000      -0.608664       -16.5626 
  27   1.0000      -0.589527       -16.0418 
  28   1.0000      -0.575411       -15.6577 
  29   1.0000      -0.563257       -15.3270 
  30   1.0000      -0.522726       -14.2241 
  31   1.0000      -0.491279       -13.3684 
  32   1.0000      -0.487635       -13.2692 
  33   1.0000      -0.469521       -12.7763 
  34   1.0000      -0.455337       -12.3904 
  35   1.0000      -0.447115       -12.1666 
  36   1.0000      -0.426484       -11.6052 
  37   1.0000      -0.420065       -11.4305 
  38   1.0000      -0.418639       -11.3917 
  39   1.0000      -0.416184       -11.3250 
  40   1.0000      -0.409455       -11.1418 
  41   1.0000      -0.396525       -10.7900 
  42   1.0000      -0.384171       -10.4538 
  43   1.0000      -0.377224       -10.2648 
  44   1.0000      -0.371813       -10.1175 
  45   1.0000      -0.366006        -9.9595 
  46   1.0000      -0.350813        -9.5461 
  47   1.0000      -0.347576        -9.4580 
  48   1.0000      -0.337811        -9.1923 
  49   1.0000      -0.334568        -9.1041 
  50   1.0000      -0.327813        -8.9202 
  51   1.0000      -0.322559        -8.7773 
  52   1.0000      -0.321786        -8.7562 
  53   1.0000      -0.320312        -8.7161 
  54   1.0000      -0.301191        -8.1958 
  55   1.0000      -0.271854        -7.3975 
  56   1.0000      -0.257843        -7.0163 
  57   1.0000      -0.224792        -6.1169 
  58   0.0000      -0.081222        -2.2101 
  59   0.0000      -0.019930        -0.5423 
  60   0.0000       0.028403         0.7729 
  61   0.0000       0.047852         1.3021 
  62   0.0000       0.059694         1.6243 
  63   0.0000       0.062294         1.6951 
  64   0.0000       0.079405         2.1607 
  65   0.0000       0.086798         2.3619 
  66   0.0000       0.089168         2.4264 
  67   0.0000       0.091567         2.4917 
  68   0.0000       0.094626         2.5749 
  69   0.0000       0.100460         2.7336 
  70   0.0000       0.103292         2.8107 
  71   0.0000       0.108479         2.9519 
  72   0.0000       0.118644         3.2285 
  73   0.0000       0.134823         3.6687 
  74   0.0000       0.142136         3.8677 
  75   0.0000       0.145293         3.9536 
  76   0.0000       0.148885         4.0514 
  77   0.0000       0.151470         4.1217 
  78   0.0000       0.153811         4.1854 
  79   0.0000       0.161802         4.4029 
  80   0.0000       0.164740         4.4828 
  81   0.0000       0.167602         4.5607 
  82   0.0000       0.178309         4.8520 
  83   0.0000       0.187321         5.0973 
  84   0.0000       0.193366         5.2617 
  85   0.0000       0.212916         5.7937 
  86   0.0000       0.215143         5.8543 
  87   0.0000       0.231581         6.3016 
  88   0.0000       0.240365         6.5407 
  89   0.0000       0.248689         6.7672 
  90   0.0000       0.252295         6.8653 
  91   0.0000       0.261250         7.1090 
  92   0.0000       0.270115         7.3502 
  93   0.0000       0.299409         8.1473 
  94   0.0000       0.332660         9.0521 
  95   0.0000       0.333121         9.0647 
  96   0.0000       0.350038         9.5250 
  97   0.0000       0.360761         9.8168 
  98   0.0000       0.369837        10.0638 
  99   0.0000       0.408005        11.1024 
 100   0.0000       0.409409        11.1406 
 101   0.0000       0.412448        11.2233 
 102   0.0000       0.416146        11.3239 
 103   0.0000       0.420412        11.4400 
 104   0.0000       0.430432        11.7126 
 105   0.0000       0.441123        12.0036 
 106   0.0000       0.454270        12.3613 
 107   0.0000       0.464071        12.6280 
 108   0.0000       0.467852        12.7309 
 109   0.0000       0.475320        12.9341 
 110   0.0000       0.482010        13.1162 
 111   0.0000       0.493561        13.4305 
 112   0.0000       0.500186        13.6107 
 113   0.0000       0.506301        13.7772 
 114   0.0000       0.510000        13.8778 
 115   0.0000       0.516652        14.0588 
 116   0.0000       0.520522        14.1641 
 117   0.0000       0.541444        14.7334 
 118   0.0000       0.545056        14.8317 
 119   0.0000       0.547078        14.8867 
 120   0.0000       0.555808        15.1243 
 121   0.0000       0.566745        15.4219 
 122   0.0000       0.575215        15.6524 
 123   0.0000       0.584954        15.9174 
 124   0.0000       0.601740        16.3742 
 125   0.0000       0.608480        16.5576 
 126   0.0000       0.612307        16.6617 
 127   0.0000       0.616338        16.7714 
 128   0.0000       0.620919        16.8961 
 129   0.0000       0.628839        17.1116 
 130   0.0000       0.637580        17.3494 
 131   0.0000       0.639352        17.3976 
 132   0.0000       0.641395        17.4532 
 133   0.0000       0.644684        17.5428 
 134   0.0000       0.645911        17.5761 
 135   0.0000       0.651587        17.7306 
 136   0.0000       0.657847        17.9009 
 137   0.0000       0.658108        17.9080 
 138   0.0000       0.661851        18.0099 
 139   0.0000       0.663649        18.0588 
 140   0.0000       0.673385        18.3237 
 141   0.0000       0.679333        18.4856 
 142   0.0000       0.683470        18.5982 
 143   0.0000       0.687460        18.7067 
 144   0.0000       0.695878        18.9358 
 145   0.0000       0.700662        19.0660 
 146   0.0000       0.704153        19.1610 
 147   0.0000       0.709765        19.3137 
 148   0.0000       0.713750        19.4221 
 149   0.0000       0.716488        19.4966 
 150   0.0000       0.731472        19.9044 
 151   0.0000       0.734998        20.0003 
 152   0.0000       0.742868        20.2145 
 153   0.0000       0.748578        20.3698 
 154   0.0000       0.765462        20.8293 
 155   0.0000       0.773479        21.0474 
 156   0.0000       0.800094        21.7717 
 157   0.0000       0.802305        21.8318 
 158   0.0000       0.819193        22.2914 
 159   0.0000       0.834035        22.6952 
 160   0.0000       0.837166        22.7805 
 161   0.0000       0.840290        22.8655 
 162   0.0000       0.845386        23.0041 
 163   0.0000       0.874294        23.7908 
 164   0.0000       0.895971        24.3806 
 165   0.0000       0.907181        24.6857 
 166   0.0000       0.914663        24.8892 
 167   0.0000       0.940384        25.5891 
 168   0.0000       0.961685        26.1688 
 169   0.0000       0.969867        26.3914 
 170   0.0000       0.984533        26.7905 
 171   0.0000       0.999561        27.1994 
 172   0.0000       1.005728        27.3673 
 173   0.0000       1.020433        27.7674 
 174   0.0000       1.025693        27.9105 
 175   0.0000       1.036260        28.1981 
 176   0.0000       1.050822        28.5943 
 177   0.0000       1.065634        28.9974 
 178   0.0000       1.070701        29.1352 
 179   0.0000       1.082019        29.4432 
 180   0.0000       1.085673        29.5427 
 181   0.0000       1.110016        30.2051 
 182   0.0000       1.124651        30.6033 
 183   0.0000       1.151546        31.3352 
 184   0.0000       1.160839        31.5880 
 185   0.0000       1.181373        32.1468 
 186   0.0000       1.190714        32.4010 
 187   0.0000       1.194408        32.5015 
 188   0.0000       1.204663        32.7805 
 189   0.0000       1.215355        33.0715 
 190   0.0000       1.220627        33.2149 
 191   0.0000       1.223880        33.3035 
 192   0.0000       1.246625        33.9224 
 193   0.0000       1.253044        34.0971 
 194   0.0000       1.293367        35.1943 
 195   0.0000       1.302442        35.4412 
 196   0.0000       1.324245        36.0345 
 197   0.0000       1.332866        36.2691 
 198   0.0000       1.340645        36.4808 
 199   0.0000       1.346072        36.6285 
 200   0.0000       1.373442        37.3733 
 201   0.0000       1.393904        37.9300 
 202   0.0000       1.399584        38.0846 
 203   0.0000       1.415259        38.5112 
 204   0.0000       1.418619        38.6026 
 205   0.0000       1.425987        38.8031 
 206   0.0000       1.426229        38.8097 
 207   0.0000       1.436092        39.0781 
 208   0.0000       1.440619        39.2012 
 209   0.0000       1.452639        39.5283 
 210   0.0000       1.461906        39.7805 
 211   0.0000       1.465351        39.8742 
 212   0.0000       1.471732        40.0479 
 213   0.0000       1.489165        40.5222 
 214   0.0000       1.499864        40.8134 
 215   0.0000       1.524043        41.4713 
 216   0.0000       1.534937        41.7678 
 217   0.0000       1.545612        42.0582 
 218   0.0000       1.554084        42.2888 
 219   0.0000       1.565594        42.6020 
 220   0.0000       1.579107        42.9697 
 221   0.0000       1.601650        43.5831 
 222   0.0000       1.602717        43.6122 
 223   0.0000       1.608556        43.7710 
 224   0.0000       1.612397        43.8756 
 225   0.0000       1.624849        44.2144 
 226   0.0000       1.626448        44.2579 
 227   0.0000       1.630493        44.3680 
 228   0.0000       1.633530        44.4506 
 229   0.0000       1.636963        44.5440 
 230   0.0000       1.637552        44.5600 
 231   0.0000       1.646740        44.8101 
 232   0.0000       1.654865        45.0312 
 233   0.0000       1.659194        45.1490 
 234   0.0000       1.668304        45.3969 
 235   0.0000       1.674913        45.5767 
 236   0.0000       1.683395        45.8075 
 237   0.0000       1.688272        45.9402 
 238   0.0000       1.691485        46.0277 
 239   0.0000       1.697913        46.2026 
 240   0.0000       1.703548        46.3559 
 241   0.0000       1.706307        46.4310 
 242   0.0000       1.710361        46.5413 
 243   0.0000       1.717111        46.7250 
 244   0.0000       1.723023        46.8858 
 245   0.0000       1.733211        47.1631 
 246   0.0000       1.745740        47.5040 
 247   0.0000       1.749105        47.5956 
 248   0.0000       1.756229        47.7894 
 249   0.0000       1.767167        48.0871 
 250   0.0000       1.775908        48.3249 
 251   0.0000       1.783276        48.5254 
 252   0.0000       1.796426        48.8832 
 253   0.0000       1.809936        49.2509 
 254   0.0000       1.822045        49.5804 
 255   0.0000       1.838228        50.0207 
 256   0.0000       1.842040        50.1245 
 257   0.0000       1.846373        50.2424 
 258   0.0000       1.863934        50.7202 
 259   0.0000       1.877154        51.0799 
 260   0.0000       1.889851        51.4254 
 261   0.0000       1.905275        51.8452 
 262   0.0000       1.912596        52.0444 
 263   0.0000       1.923037        52.3285 
 264   0.0000       1.930172        52.5227 
 265   0.0000       1.937105        52.7113 
 266   0.0000       1.946767        52.9742 
 267   0.0000       1.964849        53.4663 
 268   0.0000       1.980822        53.9009 
 269   0.0000       1.994749        54.2799 
 270   0.0000       2.014050        54.8051 
 271   0.0000       2.021541        55.0089 
 272   0.0000       2.035507        55.3890 
 273   0.0000       2.044271        55.6274 
 274   0.0000       2.063307        56.1454 
 275   0.0000       2.072523        56.3962 
 276   0.0000       2.086109        56.7659 
 277   0.0000       2.097294        57.0703 
 278   0.0000       2.109679        57.4073 
 279   0.0000       2.117329        57.6154 
 280   0.0000       2.134394        58.0798 
 281   0.0000       2.158059        58.7238 
 282   0.0000       2.182926        59.4004 
 283   0.0000       2.192522        59.6615 
 284   0.0000       2.196346        59.7656 
 285   0.0000       2.204449        59.9861 
 286   0.0000       2.214571        60.2615 
 287   0.0000       2.220022        60.4099 
 288   0.0000       2.246523        61.1310 
 289   0.0000       2.254687        61.3531 
 290   0.0000       2.262678        61.5706 
 291   0.0000       2.275696        61.9248 
 292   0.0000       2.286689        62.2240 
 293   0.0000       2.291887        62.3654 
 294   0.0000       2.299142        62.5628 
 295   0.0000       2.307802        62.7985 
 296   0.0000       2.315653        63.0121 
 297   0.0000       2.320933        63.1558 
 298   0.0000       2.344119        63.7867 
 299   0.0000       2.365465        64.3676 
 300   0.0000       2.404237        65.4226 
 301   0.0000       2.410601        65.5958 
 302   0.0000       2.411768        65.6276 
 303   0.0000       2.417535        65.7845 
 304   0.0000       2.425049        65.9889 
 305   0.0000       2.463441        67.0336 
 306   0.0000       2.470418        67.2235 
 307   0.0000       2.480968        67.5106 
 308   0.0000       2.487989        67.7016 
 309   0.0000       2.509085        68.2757 
 310   0.0000       2.534981        68.9804 
 311   0.0000       2.544062        69.2274 
 312   0.0000       2.558052        69.6081 
 313   0.0000       2.585705        70.3606 
 314   0.0000       2.604270        70.8658 
 315   0.0000       2.612429        71.0878 
 316   0.0000       2.618080        71.2416 
 317   0.0000       2.675212        72.7962 
 318   0.0000       2.687760        73.1377 
 319   0.0000       2.714619        73.8685 
 320   0.0000       2.722251        74.0762 
 321   0.0000       2.778487        75.6065 
 322   0.0000       2.786218        75.8168 
 323   0.0000       2.811941        76.5168 
 324   0.0000       2.868532        78.0567 
 325   0.0000       2.919439        79.4420 
 326   0.0000       3.011416        81.9448 
 327   0.0000       3.192685        86.8774 
 328   0.0000       3.360932        91.4556 

                    ********************************
                    * MULLIKEN POPULATION ANALYSIS *
                    ********************************

--------------------------------------------
MULLIKEN ATOMIC CHARGES AND SPIN POPULATIONS
--------------------------------------------
   0 C :    0.608774    0.025789
   1 C :   -0.066550    0.243055
   2 C :   -0.043827   -0.169117
   3 C :    0.024068    0.224193
   4 C :   -0.049152   -0.109276
   5 C :   -0.072498    0.259933
   6 C :    0.034678   -0.123274
   7 H :   -0.051570   -0.009285
   8 H :   -0.061787    0.004363
   9 C :    0.038843    0.749010
  10 H :    0.014359   -0.029805
  11 H :    0.007126   -0.029471
  12 C :    0.053164   -0.017911
  13 H :   -0.003291    0.002412
  14 H :    0.009678    0.006659
  15 C :   -0.032006    0.011820
  16 H :    0.011000   -0.000674
  17 H :    0.008590   -0.000264
  18 C :   -0.000628    0.001047
  19 H :    0.016353   -0.000028
  20 H :    0.014198    0.000232
  21 C :    0.042445   -0.020502
  22 H :    0.031012    0.010963
  23 H :    0.034735    0.011472
  24 C :   -0.037513    0.000955
  25 H :    0.013986    0.000200
  26 H :    0.016362    0.000226
  27 C :   -0.025844    0.000028
  28 H :    0.003923    0.000063
  29 H :    0.009117    0.000063
  30 C :    0.003550   -0.000089
  31 H :    0.017221    0.000027
  32 H :    0.015235    0.000025
  33 C :   -0.583275   -0.044811
  34 H :   -0.028575    0.001653
  35 H :    0.014590    0.000326
  36 H :    0.013510   -0.000006
Sum of atomic charges         :   -0.0000000
Sum of atomic spin populations:    1.0000000

-----------------------------------------------------
MULLIKEN REDUCED ORBITAL CHARGES AND SPIN POPULATIONS
-----------------------------------------------------
CHARGE
  0 C s       :     3.122374  s :     3.122374
      pz      :     0.942909  p :     2.214200
      px      :     0.334035
      py      :     0.937255
      dz2     :     0.004690  d :     0.054652
      dxz     :     0.020487
      dyz     :     0.000788
      dx2y2   :     0.009546
      dxy     :     0.019142
  1 C s       :     3.161105  s :     3.161105
      pz      :     0.937664  p :     2.822492
      px      :     0.913169
      py      :     0.971659
      dz2     :     0.004857  d :     0.082954
      dxz     :     0.011991
      dyz     :     0.012926
      dx2y2   :     0.026685
      dxy     :     0.026495
  2 C s       :     3.129093  s :     3.129093
      pz      :     0.955336  p :     2.828621
      px      :     0.914049
      py      :     0.959237
      dz2     :     0.005532  d :     0.086113
      dxz     :     0.012066
      dyz     :     0.014651
      dx2y2   :     0.027976
      dxy     :     0.025886
  3 C s       :     3.211510  s :     3.211510
      pz      :     0.973925  p :     2.700124
      px      :     0.887413
      py      :     0.838785
      dz2     :     0.004157  d :     0.064299
      dxz     :     0.011167
      dyz     :     0.006623
      dx2y2   :     0.020237
      dxy     :     0.022114
  4 C s       :     3.221513  s :     3.221513
      pz      :     1.001421  p :     2.739609
      px      :     0.792395
      py      :     0.945793
      dz2     :     0.005342  d :     0.088031
      dxz     :     0.012487
      dyz     :     0.013854
      dx2y2   :     0.029197
      dxy     :     0.027151
  5 C s       :     3.174831  s :     3.174831
      pz      :     0.947636  p :     2.813671
      px      :     0.924038
      py      :     0.941997
      dz2     :     0.005453  d :     0.083995
      dxz     :     0.014249
      dyz     :     0.012457
      dx2y2   :     0.024754
      dxy     :     0.027083
  6 C s       :     3.183813  s :     3.183813
      pz      :     1.008987  p :     2.717293
      px      :     0.879771
      py      :     0.828536
      dz2     :     0.003907  d :     0.064216
      dxz     :     0.011278
      dyz     :     0.005994
      dx2y2   :     0.020636
      dxy     :     0.022402
  7 H s       :     1.023364  s :     1.023364
      pz      :     0.005945  p :     0.028206
      px      :     0.007125
      py      :     0.015137
  8 H s       :     1.033131  s :     1.033131
      pz      :     0.006176  p :     0.028656
      px      :     0.007269
      py      :     0.015211
  9 C s       :     3.038755  s :     3.038755
      pz      :     1.008136  p :     2.882710
      px      :     0.894982
      py      :     0.979592
      dz2     :     0.001409  d :     0.039692
      dxz     :     0.002743
      dyz     :     0.005778
      dx2y2   :     0.016950
      dxy     :     0.012811
 10 H s       :     0.955518  s :     0.955518
      pz      :     0.006957  p :     0.030123
      px      :     0.018009
      py      :     0.005157
 11 H s       :     0.963131  s :     0.963131
      pz      :     0.006305  p :     0.029743
      px      :     0.007999
      py      :     0.015439
 12 C s       :     3.003418  s :     3.003418
      pz      :     0.976208  p :     2.877155
      px      :     0.959559
      py      :     0.941387
      dz2     :     0.011372  d :     0.066263
      dxz     :     0.015612
      dyz     :     0.014119
      dx2y2   :     0.016417
      dxy     :     0.008743
 13 H s       :     0.975548  s :     0.975548
      pz      :     0.007072  p :     0.027743
      px      :     0.005053
      py      :     0.015618
 14 H s       :     0.962312  s :     0.962312
      pz      :     0.011226  p :     0.028010
      px      :     0.005921
      py      :     0.010863
 15 C s       :     3.087340  s :     3.087340
      pz      :     0.961835  p :     2.875299
      px      :     0.937602
      py      :     0.975862
      dz2     :     0.011290  d :     0.069367
      dxz     :     0.016823
      dyz     :     0.014778
      dx2y2   :     0.015825
      dxy     :     0.010651
 16 H s       :     0.961430  s :     0.961430
      pz      :     0.006961  p :     0.027570
      px      :     0.005224
      py      :     0.015384
 17 H s       :     0.964125  s :     0.964125
      pz      :     0.010691  p :     0.027284
      px      :     0.005965
      py      :     0.010629
 18 C s       :     3.028727  s :     3.028727
      pz      :     0.967028  p :     2.924042
      px      :     0.970922
      py      :     0.986092
      dz2     :     0.005708  d :     0.047858
      dxz     :     0.012973
      dyz     :     0.007362
      dx2y2   :     0.011920
      dxy     :     0.009896
 19 H s       :     0.955174  s :     0.955174
      pz      :     0.011057  p :     0.028473
      px      :     0.006619
      py      :     0.010797
 20 H s       :     0.957346  s :     0.957346
      pz      :     0.007605  p :     0.028456
      px      :     0.005510
      py      :     0.015341
 21 C s       :     2.966067  s :     2.966067
      pz      :     0.974597  p :     2.924389
      px      :     1.025325
      py      :     0.924466
      dz2     :     0.009365  d :     0.067100
      dxz     :     0.016027
      dyz     :     0.010211
      dx2y2   :     0.015182
      dxy     :     0.016315
 22 H s       :     0.940835  s :     0.940835
      pz      :     0.014686  p :     0.028153
      px      :     0.008681
      py      :     0.004786
 23 H s       :     0.937162  s :     0.937162
      pz      :     0.011746  p :     0.028102
      px      :     0.011669
      py      :     0.004688
 24 C s       :     3.072981  s :     3.072981
      pz      :     0.960198  p :     2.895996
      px      :     0.984536
      py      :     0.951261
      dz2     :     0.009348  d :     0.068536
      dxz     :     0.018608
      dyz     :     0.009238
      dx2y2   :     0.014723
      dxy     :     0.016619
 25 H s       :     0.958692  s :     0.958692
      pz      :     0.014311  p :     0.027321
      px      :     0.008117
      py      :     0.004893
 26 H s       :     0.956403  s :     0.956403
      pz      :     0.011622  p :     0.027236
      px      :     0.010889
      py      :     0.004725
 27 C s       :     3.069819  s :     3.069819
      pz      :     0.965620  p :     2.886570
      px      :     0.977144
      py      :     0.943806
      dz2     :     0.009519  d :     0.069455
      dxz     :     0.018255
      dyz     :     0.009177
      dx2y2   :     0.015470
      dxy     :     0.017035
 28 H s       :     0.968727  s :     0.968727
      pz      :     0.014376  p :     0.027350
      px      :     0.008218
      py      :     0.004756
 29 H s       :     0.963564  s :     0.963564
      pz      :     0.011675  p :     0.027319
      px      :     0.010938
      py      :     0.004706
 30 C s       :     3.015738  s :     3.015738
      pz      :     0.985836  p :     2.932580
      px      :     0.970599
      py      :     0.976144
      dz2     :     0.007585  d :     0.048132
      dxz     :     0.012883
      dyz     :     0.006014
      dx2y2   :     0.008253
      dxy     :     0.013396
 31 H s       :     0.954392  s :     0.954392
      pz      :     0.011933  p :     0.028387
      px      :     0.011181
      py      :     0.005273
 32 H s       :     0.956383  s :     0.956383
      pz      :     0.014303  p :     0.028381
      px      :     0.008533
      py      :     0.005545
 33 C s       :     3.680031  s :     3.680031
      pz      :     1.011158  p :     2.874449
      px      :     0.847375
      py      :     1.015915
      dz2     :     0.002419  d :     0.028796
      dxz     :     0.009892
      dyz     :     0.000383
      dx2y2   :     0.005970
      dxy     :     0.010132
 34 H s       :     0.995946  s :     0.995946
      pz      :     0.007487  p :     0.032630
      px      :     0.018141
      py      :     0.007003
 35 H s       :     0.956949  s :     0.956949
      pz      :     0.013975  p :     0.028461
      px      :     0.008082
      py      :     0.006404
 36 H s       :     0.958122  s :     0.958122
      pz      :     0.006415  p :     0.028368
      px      :     0.010257
      py      :     0.011695

SPIN
  0 C s       :     0.005476  s :     0.005476
      pz      :     0.016449  p :     0.022751
      px      :     0.001558
      py      :     0.004743
      dz2     :    -0.000206  d :    -0.002438
      dxz     :    -0.001964
      dyz     :     0.000019
      dx2y2   :    -0.000109
      dxy     :    -0.000178
  1 C s       :     0.016278  s :     0.016278
      pz      :     0.196195  p :     0.229243
      px      :     0.018651
      py      :     0.014398
      dz2     :    -0.000727  d :    -0.002467
      dxz     :     0.000007
      dyz     :    -0.001552
      dx2y2   :    -0.000114
      dxy     :    -0.000081
  2 C s       :    -0.021060  s :    -0.021060
      pz      :    -0.119465  p :    -0.162335
      px      :    -0.023261
      py      :    -0.019609
      dz2     :     0.001014  d :     0.014278
      dxz     :     0.003675
      dyz     :     0.008838
      dx2y2   :     0.000262
      dxy     :     0.000490
  3 C s       :     0.018577  s :     0.018577
      pz      :     0.186380  p :     0.208398
      px      :     0.014204
      py      :     0.007813
      dz2     :    -0.000779  d :    -0.002782
      dxz     :    -0.001293
      dyz     :    -0.000391
      dx2y2   :    -0.000053
      dxy     :    -0.000265
  4 C s       :    -0.009141  s :    -0.009141
      pz      :    -0.081037  p :    -0.106401
      px      :    -0.013030
      py      :    -0.012334
      dz2     :     0.000371  d :     0.006267
      dxz     :     0.000532
      dyz     :     0.005040
      dx2y2   :     0.000050
      dxy     :     0.000273
  5 C s       :     0.016041  s :     0.016041
      pz      :     0.208752  p :     0.245909
      px      :     0.021177
      py      :     0.015980
      dz2     :    -0.000785  d :    -0.002016
      dxz     :    -0.000783
      dyz     :    -0.000446
      dx2y2   :     0.000001
      dxy     :    -0.000003
  6 C s       :    -0.015041  s :    -0.015041
      pz      :    -0.089631  p :    -0.114576
[...]
B( 27-C , 28-H ) :   0.9408 B( 27-C , 29-H ) :   0.9415 B( 27-C , 30-C ) :   1.1055 
B( 30-C , 31-H ) :   0.9663 B( 30-C , 32-H ) :   0.9661 B( 30-C , 36-H ) :   0.9620 
B( 33-C , 34-H ) :   1.1113 

-------
TIMINGS
-------

Total SCF time: 0 days 0 hours 0 min 50 sec 

Total time                  ....      50.986 sec
Sum of individual times     ....      49.944 sec  ( 98.0%)

Fock matrix formation       ....      46.037 sec  ( 90.3%)
  XC integration            ....       3.021 sec  (  6.6% of F)
    Basis function eval.    ....       0.483 sec  ( 16.0% of XC)
    Density eval.           ....       0.427 sec  ( 14.1% of XC)
    XC-Functional eval.     ....       0.086 sec  (  2.8% of XC)
    XC-Potential eval.      ....       0.634 sec  ( 21.0% of XC)
Diagonalization             ....       1.077 sec  (  2.1%)
Density matrix formation    ....       0.072 sec  (  0.1%)
Population analysis         ....       0.164 sec  (  0.3%)
Initial guess               ....       0.425 sec  (  0.8%)
Orbital Transformation      ....       0.000 sec  (  0.0%)
Orbital Orthonormalization  ....       0.000 sec  (  0.0%)
DIIS solution               ....       0.817 sec  (  1.6%)
Grid generation             ....       1.353 sec  (  2.7%)

-------------------------   --------------------
FINAL SINGLE POINT ENERGY      -621.857374059915
-------------------------   --------------------

   --->>> g-tensor requested, so NeedSOC=true

                            ***************************************
                            *     ORCA property calculations      *
                            ***************************************

                                    ---------------------
                                    Active property flags
                                    ---------------------
   (+) Dipole Moment
   (+) g-tensor
   (+) Nuclear properties (Hyperfine,Quadrupole)
   (+) Spin-Orbit Integrals are needed


------------------------------------------------------------------------------
                       ORCA ELECTRIC PROPERTIES CALCULATION
------------------------------------------------------------------------------

Dipole Moment Calculation                       ... on
Quadrupole Moment Calculation                   ... off
Polarizability Calculation                      ... off
GBWName                                         ... g-tensor_cc-pVDZ_invariant.gbw
Electron density file                           ... g-tensor_cc-pVDZ_invariant.scfp
The origin for moment calculation is the CENTER OF MASS  = ( 0.559569, -2.146441 -0.108350)

-------------
DIPOLE MOMENT
-------------
                                X             Y             Z
Electronic contribution:    -11.72649      14.81699      -1.70325
Nuclear contribution   :     11.94984     -15.09026       1.73111
                        -----------------------------------------
Total Dipole Moment    :      0.22335      -0.27327       0.02786
                        -----------------------------------------
Magnitude (a.u.)       :      0.35403
Magnitude (Debye)      :      0.89988



--------------------
Rotational spectrum 
--------------------
 
Rotational constants in cm-1:     0.018485     0.010277     0.006812 
Rotational constants in MHz :   554.171046   308.094263   204.210152 

 Dipole components along the rotational axes: 
x,y,z [a.u.] :    -0.016425     0.353434     0.012341 
x,y,z [Debye]:    -0.041749     0.898359     0.031369 

 


           ************************************************************
           *        Program running with 16 parallel MPI-processes    *
           *              working on a common directory               *
           ************************************************************
------------------------------------------------------------------------------
                         ORCA SPIN-ORBIT COUPLING CALCULATION
------------------------------------------------------------------------------

GBW file                                    ... g-tensor_cc-pVDZ_invariant.gbw
Input density                               ... g-tensor_cc-pVDZ_invariant.scfp
Output integrals                            ... g-tensor_cc-pVDZ_invariant
Operator type                               ... Mean-field/Effective potential
   One-Electron Terms                       ... 1
   Coulomb Contribution                     ... 2
   Exchange Contribution                    ... 3
   Correlation Contribution                 ... 0
   Maximum number of centers                ... 4
Setting up the integration grid             ... done
Evaluating density on the grid              ... (NumEl=  117.004660) done
Evaluating Coulomb term semi-analytically   ... done
One-Center Exchange (+SOO)                  ... done
Evaluating the spin-orbit operator          ... done
Total time for SOC: 15.011


           ************************************************************
           *        Program running with 16 parallel MPI-processes    *
           *              working on a common directory               *
           ************************************************************
------------------------------------------------------------------------------
                                ORCA EPR/NMR CALCULATION
------------------------------------------------------------------------------

GBWName                      ... g-tensor_cc-pVDZ_invariant.gbw
Electron density file        ... g-tensor_cc-pVDZ_invariant.scfp
Spin density file            ... g-tensor_cc-pVDZ_invariant.scfr
Spin-orbit integrals         ... g-tensor_cc-pVDZ_invariant
Treatment of gauge           ... GIAO (approximations 1/2el = 0,3)
Details of the CP(SCF) procedure:
       Solver   = POPLE   
       MaxIter  =    64   
       Tolerance=    1.000e-06
       Op-0     =   0- 58 =>  59-328
       Op-1     =   0- 57 =>  58-328
Multiplicity                 ... 2
g-tensor                     ... 1
NMR chemical shifts          ... 0
Number of nuclei for epr/nmr ... 21
   Nucleus:   7H 
       Hyperfine : Isotope=    1 I=   0.500 P= 533.551
       Quadrupole: Isotope=    2 I=   1.000 Q=   0.003
       Spin-Orbit: Zeff=   1.000
       Ncuelar Spin-Spin: Gn=   0.000
       rho(0)=N f(grad)=N a(iso)=Y a(dip)=Y a(orb)=Y sigma(nmr)=N spin-spin(nmr)=all-N,DSO-N,PSO-N,FC-N,SD-N
   Nucleus:   8H 
       Hyperfine : Isotope=    1 I=   0.500 P= 533.551
       Quadrupole: Isotope=    2 I=   1.000 Q=   0.003
       Spin-Orbit: Zeff=   1.000
       Ncuelar Spin-Spin: Gn=   0.000
       rho(0)=N f(grad)=N a(iso)=Y a(dip)=Y a(orb)=Y sigma(nmr)=N spin-spin(nmr)=all-N,DSO-N,PSO-N,FC-N,SD-N
   Nucleus:  10H 
       Hyperfine : Isotope=    1 I=   0.500 P= 533.551
       Quadrupole: Isotope=    2 I=   1.000 Q=   0.003
       Spin-Orbit: Zeff=   1.000
       Ncuelar Spin-Spin: Gn=   0.000
       rho(0)=N f(grad)=N a(iso)=Y a(dip)=Y a(orb)=Y sigma(nmr)=N spin-spin(nmr)=all-N,DSO-N,PSO-N,FC-N,SD-N
   Nucleus:  11H 
       Hyperfine : Isotope=    1 I=   0.500 P= 533.551
       Quadrupole: Isotope=    2 I=   1.000 Q=   0.003
       Spin-Orbit: Zeff=   1.000
       Ncuelar Spin-Spin: Gn=   0.000
       rho(0)=N f(grad)=N a(iso)=Y a(dip)=Y a(orb)=Y sigma(nmr)=N spin-spin(nmr)=all-N,DSO-N,PSO-N,FC-N,SD-N
   Nucleus:  13H 
       Hyperfine : Isotope=    1 I=   0.500 P= 533.551
       Quadrupole: Isotope=    2 I=   1.000 Q=   0.003
       Spin-Orbit: Zeff=   1.000
       Ncuelar Spin-Spin: Gn=   0.000
       rho(0)=N f(grad)=N a(iso)=Y a(dip)=Y a(orb)=Y sigma(nmr)=N spin-spin(nmr)=all-N,DSO-N,PSO-N,FC-N,SD-N
   Nucleus:  14H 
       Hyperfine : Isotope=    1 I=   0.500 P= 533.551
       Quadrupole: Isotope=    2 I=   1.000 Q=   0.003
       Spin-Orbit: Zeff=   1.000
       Ncuelar Spin-Spin: Gn=   0.000
       rho(0)=N f(grad)=N a(iso)=Y a(dip)=Y a(orb)=Y sigma(nmr)=N spin-spin(nmr)=all-N,DSO-N,PSO-N,FC-N,SD-N
   Nucleus:  16H 
       Hyperfine : Isotope=    1 I=   0.500 P= 533.551
       Quadrupole: Isotope=    2 I=   1.000 Q=   0.003
       Spin-Orbit: Zeff=   1.000
       Ncuelar Spin-Spin: Gn=   0.000
       rho(0)=N f(grad)=N a(iso)=Y a(dip)=Y a(orb)=Y sigma(nmr)=N spin-spin(nmr)=all-N,DSO-N,PSO-N,FC-N,SD-N
   Nucleus:  17H 
       Hyperfine : Isotope=    1 I=   0.500 P= 533.551
       Quadrupole: Isotope=    2 I=   1.000 Q=   0.003
       Spin-Orbit: Zeff=   1.000
       Ncuelar Spin-Spin: Gn=   0.000
       rho(0)=N f(grad)=N a(iso)=Y a(dip)=Y a(orb)=Y sigma(nmr)=N spin-spin(nmr)=all-N,DSO-N,PSO-N,FC-N,SD-N
   Nucleus:  19H 
       Hyperfine : Isotope=    1 I=   0.500 P= 533.551
       Quadrupole: Isotope=    2 I=   1.000 Q=   0.003
       Spin-Orbit: Zeff=   1.000
       Ncuelar Spin-Spin: Gn=   0.000
       rho(0)=N f(grad)=N a(iso)=Y a(dip)=Y a(orb)=Y sigma(nmr)=N spin-spin(nmr)=all-N,DSO-N,PSO-N,FC-N,SD-N
   Nucleus:  20H 
       Hyperfine : Isotope=    1 I=   0.500 P= 533.551
       Quadrupole: Isotope=    2 I=   1.000 Q=   0.003
       Spin-Orbit: Zeff=   1.000
       Ncuelar Spin-Spin: Gn=   0.000
       rho(0)=N f(grad)=N a(iso)=Y a(dip)=Y a(orb)=Y sigma(nmr)=N spin-spin(nmr)=all-N,DSO-N,PSO-N,FC-N,SD-N
   Nucleus:  22H 
       Hyperfine : Isotope=    1 I=   0.500 P= 533.551
       Quadrupole: Isotope=    2 I=   1.000 Q=   0.003
       Spin-Orbit: Zeff=   1.000
       Ncuelar Spin-Spin: Gn=   0.000
       rho(0)=N f(grad)=N a(iso)=Y a(dip)=Y a(orb)=Y sigma(nmr)=N spin-spin(nmr)=all-N,DSO-N,PSO-N,FC-N,SD-N
   Nucleus:  23H 
       Hyperfine : Isotope=    1 I=   0.500 P= 533.551
       Quadrupole: Isotope=    2 I=   1.000 Q=   0.003
       Spin-Orbit: Zeff=   1.000
       Ncuelar Spin-Spin: Gn=   0.000
       rho(0)=N f(grad)=N a(iso)=Y a(dip)=Y a(orb)=Y sigma(nmr)=N spin-spin(nmr)=all-N,DSO-N,PSO-N,FC-N,SD-N
   Nucleus:  25H 
       Hyperfine : Isotope=    1 I=   0.500 P= 533.551
       Quadrupole: Isotope=    2 I=   1.000 Q=   0.003
       Spin-Orbit: Zeff=   1.000
       Ncuelar Spin-Spin: Gn=   0.000
       rho(0)=N f(grad)=N a(iso)=Y a(dip)=Y a(orb)=Y sigma(nmr)=N spin-spin(nmr)=all-N,DSO-N,PSO-N,FC-N,SD-N
   Nucleus:  26H 
       Hyperfine : Isotope=    1 I=   0.500 P= 533.551
       Quadrupole: Isotope=    2 I=   1.000 Q=   0.003
       Spin-Orbit: Zeff=   1.000
       Ncuelar Spin-Spin: Gn=   0.000
       rho(0)=N f(grad)=N a(iso)=Y a(dip)=Y a(orb)=Y sigma(nmr)=N spin-spin(nmr)=all-N,DSO-N,PSO-N,FC-N,SD-N
   Nucleus:  28H 
       Hyperfine : Isotope=    1 I=   0.500 P= 533.551
       Quadrupole: Isotope=    2 I=   1.000 Q=   0.003
       Spin-Orbit: Zeff=   1.000
       Ncuelar Spin-Spin: Gn=   0.000
       rho(0)=N f(grad)=N a(iso)=Y a(dip)=Y a(orb)=Y sigma(nmr)=N spin-spin(nmr)=all-N,DSO-N,PSO-N,FC-N,SD-N
   Nucleus:  29H 
       Hyperfine : Isotope=    1 I=   0.500 P= 533.551
       Quadrupole: Isotope=    2 I=   1.000 Q=   0.003
       Spin-Orbit: Zeff=   1.000
       Ncuelar Spin-Spin: Gn=   0.000
       rho(0)=N f(grad)=N a(iso)=Y a(dip)=Y a(orb)=Y sigma(nmr)=N spin-spin(nmr)=all-N,DSO-N,PSO-N,FC-N,SD-N
   Nucleus:  31H 
       Hyperfine : Isotope=    1 I=   0.500 P= 533.551
       Quadrupole: Isotope=    2 I=   1.000 Q=   0.003
       Spin-Orbit: Zeff=   1.000
       Ncuelar Spin-Spin: Gn=   0.000
       rho(0)=N f(grad)=N a(iso)=Y a(dip)=Y a(orb)=Y sigma(nmr)=N spin-spin(nmr)=all-N,DSO-N,PSO-N,FC-N,SD-N
   Nucleus:  32H 
       Hyperfine : Isotope=    1 I=   0.500 P= 533.551
       Quadrupole: Isotope=    2 I=   1.000 Q=   0.003
       Spin-Orbit: Zeff=   1.000
       Ncuelar Spin-Spin: Gn=   0.000
       rho(0)=N f(grad)=N a(iso)=Y a(dip)=Y a(orb)=Y sigma(nmr)=N spin-spin(nmr)=all-N,DSO-N,PSO-N,FC-N,SD-N
   Nucleus:  34H 
       Hyperfine : Isotope=    1 I=   0.500 P= 533.551
       Quadrupole: Isotope=    2 I=   1.000 Q=   0.003
       Spin-Orbit: Zeff=   1.000
       Ncuelar Spin-Spin: Gn=   0.000
       rho(0)=N f(grad)=N a(iso)=Y a(dip)=Y a(orb)=Y sigma(nmr)=N spin-spin(nmr)=all-N,DSO-N,PSO-N,FC-N,SD-N
   Nucleus:  35H 
       Hyperfine : Isotope=    1 I=   0.500 P= 533.551
       Quadrupole: Isotope=    2 I=   1.000 Q=   0.003
       Spin-Orbit: Zeff=   1.000
       Ncuelar Spin-Spin: Gn=   0.000
       rho(0)=N f(grad)=N a(iso)=Y a(dip)=Y a(orb)=Y sigma(nmr)=N spin-spin(nmr)=all-N,DSO-N,PSO-N,FC-N,SD-N
   Nucleus:  36H 
       Hyperfine : Isotope=    1 I=   0.500 P= 533.551
       Quadrupole: Isotope=    2 I=   1.000 Q=   0.003
       Spin-Orbit: Zeff=   1.000
       Ncuelar Spin-Spin: Gn=   0.000
       rho(0)=N f(grad)=N a(iso)=Y a(dip)=Y a(orb)=Y sigma(nmr)=N spin-spin(nmr)=all-N,DSO-N,PSO-N,FC-N,SD-N
Forming RHS of the CP-SCF equations         ... 
Calculating right hand sides for GIAO treatment        ... 
  Entering RightHandSide GIAO. ScalHFX=    0.2000 NeedHFX=1
     -> 1-electron GIAO integrals will be done analytically
     -> SCF done analytically but RIJK chosen for GIAO calculation.
     Making grid for GIAO integrations   ... 
General Integration Accuracy     IntAcc      ...  4.340
Radial Grid Type                 RadialGrid  ... Gauss-Chebyshev
Angular Grid (max. acc.)         AngularGrid ... Lebedev-110
Angular grid pruning method      GridPruning ... 3 (G Style)
Weight generation scheme         WeightScheme... Becke
Basis function cutoff            BFCut       ...    1.0000e-10
Integration weight cutoff        WCut        ...    1.0000e-14
Grids for H and He will be reduced by one unit

# of grid points (after initial pruning)     ...  43170 (   0.0 sec)
# of grid points (after weights+screening)   ...  38696 (   0.1 sec)
nearest neighbour list constructed           ...    0.0 sec
Grid point re-assignment to atoms done       ...    0.0 sec
Grid point division into batches done        ...    0.0 sec
Reduced shell lists constructed in    0.1 sec

Total number of grid points                  ...    38696
Total number of batches                      ...      624
Average number of points per batch           ...       62
Average number of grid points per atom       ...     1046
Average number of shells per batch           ...    96.50 (60.69%)
Average number of basis functions per batch  ...   193.45 (58.80%)
Average number of large shells per batch     ...    66.10 (68.50%)
Average number of large basis fcns per batch ...   136.50 (70.56%)
Maximum spatial batch extension              ...   4.76,  4.80, 16.86 au
Average spatial batch extension              ...   0.12,  0.12,  0.17 au

done
  One-electron GIAO integrals             ... done
  Calculating G(B)[P]                     ... (RI-JK: P(aux)-ok JK-RI-ok) (add-J+K:ok) => dG/dB done
  DFT XC-terms                            ... done
  Extracting occupied and virtual blocks  ... 
  Operator  0  NO=  59 NV= 270 
  Operator  1  NO=  58 NV= 271 
  Transforming and RHS contribution       ... done
  Adding eps_i * S(B)_ai terms            ... done
  Projecting overlap derivatives          ... done
  Building G[dS/dB_ij] (Direct)           ... done
  Transforming to MO basis                ... done
  Summing G[dS/dB_ij] into RHS contribs.  ... done

  GIAO profiling information: 
    Total GIAO time               ...      33.7 sec
       GIAO 1-electron integrals  ...       0.1 sec (  0.2%)
       GIAO G(dS/dB) terms        ...       7.0 sec ( 20.7%)
       GIAO RI-JK                 ...      24.9 sec ( 73.8%)
       GIAO XC-terms              ...       0.9 sec (  2.7%)
       Right hand side assembly   ...       0.0 sec (  0.1%)

  GIAO right hand side done


------------------------------------------------------------------------------
                           ORCA CP-SCF CALCULATION
------------------------------------------------------------------------------

Input orbitals are from        ... g-tensor_cc-pVDZ_invariant.gbw
Input Perturbation             ... g-tensor_cc-pVDZ_invariant.pin.tmp
Wavefunction output            ... g-tensor_cc-pVDZ_invariant.pout.tmp
Perturbation mode              ... Imaginary perturbation
Solver                         ... POPLE
Max. number of iterations      ... 64
Convergence tolerance          ... 1.000e-06
Integral handling              ... Direct
Number of perturbations        ... 3
Number of operators            ... 2
Orbital ranges used for CP-SCF:
 Operator 0:  Orbitals   0... 58  to  59...328
 Operator 1:  Orbitals   0... 57  to  58...328
DFT calculation                         ... on
Variables per vector in CP-SCF ... 31648
Number of vectors sought       ... 3
     CP-SCF ITERATION   0: 
     CP-SCF ITERATION   1:      0.001588624013
     CP-SCF ITERATION   2:      0.000007681748
     CP-SCF ITERATION   3:      0.000000056703

Forming final perturbed densities           ... done
Transforming perturbed density to AO basis  ... done

Magnetic field perturbation calculated in 57.891 sec
GIAO: Doing diamagnetic term integrals analytically ...done
GIAO: Doing 1el-GIAO-SOC integrals analytically ... done

-------------------
ELECTRONIC G-MATRIX
-------------------

 The g-matrix: 
              2.0027370   -0.0000174   -0.0001023
             -0.0000166    2.0027752   -0.0000335
             -0.0001153   -0.0000883    2.0022483

 gel          2.0023193    2.0023193    2.0023193
 gRMC        -0.0001430   -0.0001430   -0.0001430
 gDSO(tot)    0.0000304    0.0000839    0.0000846
 gPSO(tot)    0.0000113    0.0004992    0.0005221
             ----------   ----------   ----------
 g(tot)       2.0022180    2.0027595    2.0027830 iso=  2.0025868
 Delta-g     -0.0001013    0.0004402    0.0004637 iso=  0.0002675
 Orientation: 
  X           0.2073710    0.9596020   -0.1901612
  Y           0.1125317    0.1696970    0.9790503
  Z           0.9717684   -0.2244258   -0.0727954

Notes:  (1) The g-matrix conforms to the "BgS" spin Hamiltonian convention. 
        (2) The principal values are square roots of the eigenvalues of g*gT.
        (3) Orientations are eigenvectors of g*gT written as column vectors.
        (4) Individual contributions are projections of the full matrices onto the eigenvectors of g*gT.
        (5) Tensor is right-handed.


-----------------------------------------
ELECTRIC AND MAGNETIC HYPERFINE STRUCTURE
-----------------------------------------

 -----------------------------------------------------------
 Nucleus   7H : A:ISTP=    1 I=  0.5 P=533.5514 MHz/au**3
                Q:ISTP=    2 I=  1.0 Q=  0.0029 barn     
 -----------------------------------------------------------
 Solving for nuclear perturbation:
Forming RHS of the CP-SCF equations         ... 
Using LibInt in CPSCF-CP

Calculating nucleus orbit integrals         ... done

------------------------------------------------------------------------------
                           ORCA CP-SCF CALCULATION
------------------------------------------------------------------------------

Input orbitals are from        ... g-tensor_cc-pVDZ_invariant.gbw
Input Perturbation             ... g-tensor_cc-pVDZ_invariant.pin.tmp
Wavefunction output            ... g-tensor_cc-pVDZ_invariant.pout.tmp
Perturbation mode              ... Imaginary perturbation
Solver                         ... POPLE
Max. number of iterations      ... 64
Convergence tolerance          ... 1.000e-06
Integral handling              ... Direct
Number of perturbations        ... 3
Number of operators            ... 2
Orbital ranges used for CP-SCF:
 Operator 0:  Orbitals   0... 58  to  59...328
 Operator 1:  Orbitals   0... 57  to  58...328
DFT calculation                         ... on
Variables per vector in CP-SCF ... 31648
Number of vectors sought       ... 3
     CP-SCF ITERATION   0: 
     CP-SCF ITERATION   1:      0.000004204806
     CP-SCF ITERATION   2:      0.000000019225

Forming final perturbed densities           ...2 total processes killed (some possibly by mpirun during cleanup)

ORCA finished by error termination in EPR/NMR
Calling Command: mpirun -np 16  /hits/sw/ccc/ORCA421/orca_4_2_1_linux_x86-64_openmpi314/orca_eprnmr_mpi g-tensor_cc-pVDZ_invariant.eprnmr.inp g-tensor_cc-pVDZ_invariant 
[file orca_tools/qcmsg.cpp, line 458]: 
  .... aborting the run

