 Entering Gaussian System, Link 0=g09
 Input=g09BDE.com
 Output=g09BDE.log
 Initial command:
 /hits/basement/its/doserbd/software/gaussian/g09d1/g09/l1.exe "/hits/basement/mbm/sucerquia/gaussian_scratch/Gau-2361527.inp" -scrdir="/hits/basement/mbm/sucerquia/gaussian_scratch/"
 Entering Link 1 = /hits/basement/its/doserbd/software/gaussian/g09d1/g09/l1.exe PID=   2361528.
  
 Copyright (c) 1988,1990,1992,1993,1995,1998,2003,2009,2013,
            Gaussian, Inc.  All Rights Reserved.
  
 This is part of the Gaussian(R) 09 program.  It is based on
 the Gaussian(R) 03 system (copyright 2003, Gaussian, Inc.),
 the Gaussian(R) 98 system (copyright 1998, Gaussian, Inc.),
 the Gaussian(R) 94 system (copyright 1995, Gaussian, Inc.),
 the Gaussian 92(TM) system (copyright 1992, Gaussian, Inc.),
 the Gaussian 90(TM) system (copyright 1990, Gaussian, Inc.),
 the Gaussian 88(TM) system (copyright 1988, Gaussian, Inc.),
 the Gaussian 86(TM) system (copyright 1986, Carnegie Mellon
 University), and the Gaussian 82(TM) system (copyright 1983,
 Carnegie Mellon University). Gaussian is a federally registered
 trademark of Gaussian, Inc.
  
 This software contains proprietary and confidential information,
 including trade secrets, belonging to Gaussian, Inc.
  
 This software is provided under written license and may be
 used, copied, transmitted, or stored only in accord with that
 written license.
  
 The following legend is applicable only to US Government
 contracts under FAR:
  
                    RESTRICTED RIGHTS LEGEND
  
 Use, reproduction and disclosure by the US Government is
 subject to restrictions as set forth in subparagraphs (a)
 and (c) of the Commercial Computer Software - Restricted
 Rights clause in FAR 52.227-19.
  
 Gaussian, Inc.
 340 Quinnipiac St., Bldg. 40, Wallingford CT 06492
  
  
 ---------------------------------------------------------------
 Warning -- This program may not be used in any manner that
 competes with the business of Gaussian, Inc. or will provide
 assistance to any competitor of Gaussian, Inc.  The licensee
 of this program is prohibited from giving any competitor of
 Gaussian, Inc. access to this program.  By using this program,
 the user acknowledges that Gaussian, Inc. is engaged in the
 business of creating and licensing software in the field of
 computational chemistry and represents and warrants to the
 licensee that it is not a competitor of Gaussian, Inc. and that
 it will not use this program in any manner prohibited above.
 ---------------------------------------------------------------
  

 Cite this work as:
 Gaussian 09, Revision D.01,
 M. J. Frisch, G. W. Trucks, H. B. Schlegel, G. E. Scuseria, 
 M. A. Robb, J. R. Cheeseman, G. Scalmani, V. Barone, B. Mennucci, 
 G. A. Petersson, H. Nakatsuji, M. Caricato, X. Li, H. P. Hratchian, 
 A. F. Izmaylov, J. Bloino, G. Zheng, J. L. Sonnenberg, M. Hada, 
 M. Ehara, K. Toyota, R. Fukuda, J. Hasegawa, M. Ishida, T. Nakajima, 
 Y. Honda, O. Kitao, H. Nakai, T. Vreven, J. A. Montgomery, Jr., 
 J. E. Peralta, F. Ogliaro, M. Bearpark, J. J. Heyd, E. Brothers, 
 K. N. Kudin, V. N. Staroverov, T. Keith, R. Kobayashi, J. Normand, 
 K. Raghavachari, A. Rendell, J. C. Burant, S. S. Iyengar, J. Tomasi, 
 M. Cossi, N. Rega, J. M. Millam, M. Klene, J. E. Knox, J. B. Cross, 
 V. Bakken, C. Adamo, J. Jaramillo, R. Gomperts, R. E. Stratmann, 
 O. Yazyev, A. J. Austin, R. Cammi, C. Pomelli, J. W. Ochterski, 
 R. L. Martin, K. Morokuma, V. G. Zakrzewski, G. A. Voth, 
 P. Salvador, J. J. Dannenberg, S. Dapprich, A. D. Daniels, 
 O. Farkas, J. B. Foresman, J. V. Ortiz, J. Cioslowski, 
 and D. J. Fox, Gaussian, Inc., Wallingford CT, 2013.
 
 ******************************************
 Gaussian 09:  ES64L-G09RevD.01 24-Apr-2013
                15-May-2024 
 ******************************************
 %chk=g09BDE
 %NProcShared=8
 Will use up to    8 processors via shared memory.
 ----------------------
 #P bmk/6-31+g opt freq
 ----------------------
 1/14=-1,18=20,19=15,26=3,38=1/1,3;
 2/9=110,12=2,17=6,18=5,40=1/2;
 3/5=1,6=6,7=10,11=2,16=1,25=1,30=1,71=1,74=-34/1,2,3;
 4//1;
 5/5=2,38=5/2;
 6/7=2,8=2,9=2,10=2,28=1/1;
 7//1,2,3,16;
 1/14=-1,18=20,19=15,26=3/3(2);
 2/9=110/2;
 99//99;
 2/9=110/2;
 3/5=1,6=6,7=10,11=2,16=1,25=1,30=1,71=1,74=-34/1,2,3;
 4/5=5,16=3,69=1/1;
 5/5=2,38=5/2;
 7//1,2,3,16;
 1/14=-1,18=20,19=15,26=3/3(-5);
 2/9=110/2;
 6/7=2,8=2,9=2,10=2,19=2,28=1/1;
 99/9=1/99;
 Leave Link    1 at Wed May 15 11:07:13 2024, MaxMem=           0 cpu:         0.7
 (Enter /hits/basement/its/doserbd/software/gaussian/g09d1/g09/l101.exe)
 ------------------------------
 Gaussian input prepared by ASE
 ------------------------------
 Symbolic Z-matrix:
 Charge =  0 Multiplicity = 1
 C                     5.56517   0.07975   0.00194 
 C                     1.42      0.        0. 
 C                     2.05163  -1.2345    0.00063 
 C                     3.45358  -1.15381   0.00144 
 C                     4.13545   0.08468   0.00155 
 C                     3.42047   1.31296   0.00109 
 C                     2.0132    1.24279   0.00023 
 H                     4.05382  -2.06541   0.0019 
 H                     1.41174   2.15353  -0.00024 
 C                     1.26837  -2.53644   0.00064 
 H                     0.59512  -2.53224  -0.87608 
 H                     0.59761  -2.53369   0.87932 
 C                     2.09219  -3.82677  -0.00148 
 H                     2.75542  -3.84504  -0.88596 
 H                     2.75623  -3.84741   0.88236 
 C                     1.2193   -5.08737  -0.00267 
 H                     0.55296  -5.06965   0.87979 
 H                     0.55303  -5.068    -0.88515 
 C                     2.03358  -6.38359  -0.00387 
 H                     2.68374  -6.44916   0.88566 
 H                     2.68427  -6.44716  -0.89316 
 C                     4.1731    2.62941   0.00137 
 H                     4.84952   2.6389    0.87611 
 H                     4.8491    2.63951  -0.87369 
 C                     3.32999   3.90723   0.002 
 H                     2.66677   3.9201   -0.88269 
 H                     2.66634   3.91895   0.88638 
 C                     4.18649   5.17932   0.00298 
 H                     4.85258   5.16838   0.88569 
 H                     4.85333   5.16922  -0.87916 
 C                     3.3561    6.46521   0.00326 
 H                     2.70434   6.52115   0.89228 
 H                     2.70547   6.52227  -0.88651 
 C                     6.78709   0.06503   0.00014 
 H                     1.38013  -7.27109  -0.00507 
 H                     3.99822   7.36095   0.00424 
 C                     8.21549   0.04359   0.0001 
 C                     8.91627  -1.18233   0.00007 
 C                     10.31078  -1.19891   0.00004 
 C                     11.03269   0.        0. 
 C                     10.34836   1.22085  -0.00002 
 C                     8.95405   1.24716   0. 
 H                     12.12507  -0.01721  -0.00003 
 H                     10.90587   2.16068  -0.00006 
 H                     8.35161  -2.11661   0.00008 
 H                     8.4187    2.19856  -0.00003 
 H                     10.83919  -2.15541   0.00003 
 C                     0.        0.        0. 
 C                    -1.28456   0.00768   0.00503 
 C                    -6.90598  -0.08363   0.00468 
 C                    -2.67786   0.0101    0.0048 
 C                    -3.42349   1.24554   0. 
 C                    -4.80598   1.1591    0.00033 
 C                    -5.49045  -0.08554   0.00498 
 C                    -4.7609   -1.31923   0.00977 
 C                    -3.38066  -1.23587   0.00946 
 H                    -5.41257   2.06435  -0.00312 
 H                    -2.77042  -2.13845   0.01286 
 C                    -2.68149   2.5628   -0.0051 
 H                    -2.00038   2.56504  -0.87499 
 H                    -2.00075   2.57196   0.86504 
 C                    -3.5311    3.83579  -0.01027 
 H                    -4.1946    3.84311  -0.89507 
 H                    -4.19453   3.8503    0.87451 
 C                    -2.67724   5.10986  -0.01548 
 H                    -2.01051   5.10362   0.86627 
 H                    -2.01085   5.09664  -0.89741 
 C                    -3.51168   6.39297  -0.02041 
 H                    -4.16239   6.45186   0.8693 
 H                    -4.16306   6.44457  -0.91009 
 C                    -5.51201  -2.63502   0.01478 
 H                    -6.18787  -2.64135   0.88995 
 H                    -6.18763  -2.64811  -0.86051 
 C                    -4.66489  -3.9101    0.0198 
 H                    -4.00164  -3.9232   -0.86432 
 H                    -4.00142  -3.91614   0.90382 
 C                    -5.51903  -5.18383   0.02499 
 H                    -6.18502  -5.1717    0.90789 
 H                    -6.18552  -5.17854  -0.8576 
 C                    -4.6841   -6.46676   0.02974 
 H                    -4.0325   -6.51708   0.91892 
 H                    -4.03341  -6.52428  -0.85967 
 C                    -8.13143  -0.06592   0.00239 
 H                    -2.87142   7.2898   -0.02434 
 H                    -5.32385  -7.36397   0.0337 
 C                    -9.55503  -0.04412   0.00155 
 C                    -10.25275   1.18501  -0.00303 
 C                    -11.64618   1.20106  -0.00376 
 C                    -12.36574   0.        0. 
 C                    -11.68431  -1.22319   0.00451 
 C                    -10.29111  -1.25071   0.00527 
 H                    -13.45803   0.01736  -0.00059 
 H                    -12.24387  -2.16133   0.00743 
 H                    -9.68673   2.11823  -0.00595 
 H                    -9.75476  -2.2013    0.00876 
 H                    -12.17619   2.15621  -0.00729 
 
 NAtoms=     96 NQM=       96 NQMF=       0 NMMI=      0 NMMIF=      0
                NMic=       0 NMicF=      0.
                    Isotopes and Nuclear Properties:
 (Nuclear quadrupole moments (NQMom) in fm**2, nuclear magnetic moments (NMagM)
  in nuclear magnetons)

  Atom         1           2           3           4           5           6           7           8           9          10
 IAtWgt=          12          12          12          12          12          12          12           1           1          12
 AtmWgt=  12.0000000  12.0000000  12.0000000  12.0000000  12.0000000  12.0000000  12.0000000   1.0078250   1.0078250  12.0000000
 NucSpn=           0           0           0           0           0           0           0           1           1           0
 AtZEff=   0.0000000   0.0000000   0.0000000   0.0000000   0.0000000   0.0000000   0.0000000   0.0000000   0.0000000   0.0000000
 NQMom=    0.0000000   0.0000000   0.0000000   0.0000000   0.0000000   0.0000000   0.0000000   0.0000000   0.0000000   0.0000000
 NMagM=    0.0000000   0.0000000   0.0000000   0.0000000   0.0000000   0.0000000   0.0000000   2.7928460   2.7928460   0.0000000
 AtZNuc=   6.0000000   6.0000000   6.0000000   6.0000000   6.0000000   6.0000000   6.0000000   1.0000000   1.0000000   6.0000000

  Atom        11          12          13          14          15          16          17          18          19          20
 IAtWgt=           1           1          12           1           1          12           1           1          12           1
 AtmWgt=   1.0078250   1.0078250  12.0000000   1.0078250   1.0078250  12.0000000   1.0078250   1.0078250  12.0000000   1.0078250
 NucSpn=           1           1           0           1           1           0           1           1           0           1
 AtZEff=   0.0000000   0.0000000   0.0000000   0.0000000   0.0000000   0.0000000   0.0000000   0.0000000   0.0000000   0.0000000
 NQMom=    0.0000000   0.0000000   0.0000000   0.0000000   0.0000000   0.0000000   0.0000000   0.0000000   0.0000000   0.0000000
 NMagM=    2.7928460   2.7928460   0.0000000   2.7928460   2.7928460   0.0000000   2.7928460   2.7928460   0.0000000   2.7928460
 AtZNuc=   1.0000000   1.0000000   6.0000000   1.0000000   1.0000000   6.0000000   1.0000000   1.0000000   6.0000000   1.0000000

  Atom        21          22          23          24          25          26          27          28          29          30
 IAtWgt=           1          12           1           1          12           1           1          12           1           1
 AtmWgt=   1.0078250  12.0000000   1.0078250   1.0078250  12.0000000   1.0078250   1.0078250  12.0000000   1.0078250   1.0078250
 NucSpn=           1           0           1           1           0           1           1           0           1           1
 AtZEff=   0.0000000   0.0000000   0.0000000   0.0000000   0.0000000   0.0000000   0.0000000   0.0000000   0.0000000   0.0000000
 NQMom=    0.0000000   0.0000000   0.0000000   0.0000000   0.0000000   0.0000000   0.0000000   0.0000000   0.0000000   0.0000000
 NMagM=    2.7928460   0.0000000   2.7928460   2.7928460   0.0000000   2.7928460   2.7928460   0.0000000   2.7928460   2.7928460
 AtZNuc=   1.0000000   6.0000000   1.0000000   1.0000000   6.0000000   1.0000000   1.0000000   6.0000000   1.0000000   1.0000000

  Atom        31          32          33          34          35          36          37          38          39          40
 IAtWgt=          12           1           1          12           1           1          12          12          12          12
 AtmWgt=  12.0000000   1.0078250   1.0078250  12.0000000   1.0078250   1.0078250  12.0000000  12.0000000  12.0000000  12.0000000
 NucSpn=           0           1           1           0           1           1           0           0           0           0
 AtZEff=   0.0000000   0.0000000   0.0000000   0.0000000   0.0000000   0.0000000   0.0000000   0.0000000   0.0000000   0.0000000
 NQMom=    0.0000000   0.0000000   0.0000000   0.0000000   0.0000000   0.0000000   0.0000000   0.0000000   0.0000000   0.0000000
 NMagM=    0.0000000   2.7928460   2.7928460   0.0000000   2.7928460   2.7928460   0.0000000   0.0000000   0.0000000   0.0000000
 AtZNuc=   6.0000000   1.0000000   1.0000000   6.0000000   1.0000000   1.0000000   6.0000000   6.0000000   6.0000000   6.0000000

  Atom        41          42          43          44          45          46          47          48          49          50
 IAtWgt=          12          12           1           1           1           1           1          12          12          12
 AtmWgt=  12.0000000  12.0000000   1.0078250   1.0078250   1.0078250   1.0078250   1.0078250  12.0000000  12.0000000  12.0000000
 NucSpn=           0           0           1           1           1           1           1           0           0           0
 AtZEff=   0.0000000   0.0000000   0.0000000   0.0000000   0.0000000   0.0000000   0.0000000   0.0000000   0.0000000   0.0000000
 NQMom=    0.0000000   0.0000000   0.0000000   0.0000000   0.0000000   0.0000000   0.0000000   0.0000000   0.0000000   0.0000000
 NMagM=    0.0000000   0.0000000   2.7928460   2.7928460   2.7928460   2.7928460   2.7928460   0.0000000   0.0000000   0.0000000
 AtZNuc=   6.0000000   6.0000000   1.0000000   1.0000000   1.0000000   1.0000000   1.0000000   6.0000000   6.0000000   6.0000000

  Atom        51          52          53          54          55          56          57          58          59          60
 IAtWgt=          12          12          12          12          12          12           1           1          12           1
 AtmWgt=  12.0000000  12.0000000  12.0000000  12.0000000  12.0000000  12.0000000   1.0078250   1.0078250  12.0000000   1.0078250
 NucSpn=           0           0           0           0           0           0           1           1           0           1
 AtZEff=   0.0000000   0.0000000   0.0000000   0.0000000   0.0000000   0.0000000   0.0000000   0.0000000   0.0000000   0.0000000
 NQMom=    0.0000000   0.0000000   0.0000000   0.0000000   0.0000000   0.0000000   0.0000000   0.0000000   0.0000000   0.0000000
 NMagM=    0.0000000   0.0000000   0.0000000   0.0000000   0.0000000   0.0000000   2.7928460   2.7928460   0.0000000   2.7928460
 AtZNuc=   6.0000000   6.0000000   6.0000000   6.0000000   6.0000000   6.0000000   1.0000000   1.0000000   6.0000000   1.0000000

  Atom        61          62          63          64          65          66          67          68          69          70
 IAtWgt=           1          12           1           1          12           1           1          12           1           1
 AtmWgt=   1.0078250  12.0000000   1.0078250   1.0078250  12.0000000   1.0078250   1.0078250  12.0000000   1.0078250   1.0078250
 NucSpn=           1           0           1           1           0           1           1           0           1           1
 AtZEff=   0.0000000   0.0000000   0.0000000   0.0000000   0.0000000   0.0000000   0.0000000   0.0000000   0.0000000   0.0000000
 NQMom=    0.0000000   0.0000000   0.0000000   0.0000000   0.0000000   0.0000000   0.0000000   0.0000000   0.0000000   0.0000000
 NMagM=    2.7928460   0.0000000   2.7928460   2.7928460   0.0000000   2.7928460   2.7928460   0.0000000   2.7928460   2.7928460
 AtZNuc=   1.0000000   6.0000000   1.0000000   1.0000000   6.0000000   1.0000000   1.0000000   6.0000000   1.0000000   1.0000000

  Atom        71          72          73          74          75          76          77          78          79          80
 IAtWgt=          12           1           1          12           1           1          12           1           1          12
 AtmWgt=  12.0000000   1.0078250   1.0078250  12.0000000   1.0078250   1.0078250  12.0000000   1.0078250   1.0078250  12.0000000
 NucSpn=           0           1           1           0           1           1           0           1           1           0
 AtZEff=   0.0000000   0.0000000   0.0000000   0.0000000   0.0000000   0.0000000   0.0000000   0.0000000   0.0000000   0.0000000
 NQMom=    0.0000000   0.0000000   0.0000000   0.0000000   0.0000000   0.0000000   0.0000000   0.0000000   0.0000000   0.0000000
 NMagM=    0.0000000   2.7928460   2.7928460   0.0000000   2.7928460   2.7928460   0.0000000   2.7928460   2.7928460   0.0000000
 AtZNuc=   6.0000000   1.0000000   1.0000000   6.0000000   1.0000000   1.0000000   6.0000000   1.0000000   1.0000000   6.0000000

  Atom        81          82          83          84          85          86          87          88          89          90
 IAtWgt=           1           1          12           1           1          12          12          12          12          12
 AtmWgt=   1.0078250   1.0078250  12.0000000   1.0078250   1.0078250  12.0000000  12.0000000  12.0000000  12.0000000  12.0000000
 NucSpn=           1           1           0           1           1           0           0           0           0           0
 AtZEff=   0.0000000   0.0000000   0.0000000   0.0000000   0.0000000   0.0000000   0.0000000   0.0000000   0.0000000   0.0000000
 NQMom=    0.0000000   0.0000000   0.0000000   0.0000000   0.0000000   0.0000000   0.0000000   0.0000000   0.0000000   0.0000000
 NMagM=    2.7928460   2.7928460   0.0000000   2.7928460   2.7928460   0.0000000   0.0000000   0.0000000   0.0000000   0.0000000
 AtZNuc=   1.0000000   1.0000000   6.0000000   1.0000000   1.0000000   6.0000000   6.0000000   6.0000000   6.0000000   6.0000000

  Atom        91          92          93          94          95          96
 IAtWgt=          12           1           1           1           1           1
 AtmWgt=  12.0000000   1.0078250   1.0078250   1.0078250   1.0078250   1.0078250
 NucSpn=           0           1           1           1           1           1
 AtZEff=   0.0000000   0.0000000   0.0000000   0.0000000   0.0000000   0.0000000
 NQMom=    0.0000000   0.0000000   0.0000000   0.0000000   0.0000000   0.0000000
 NMagM=    0.0000000   2.7928460   2.7928460   2.7928460   2.7928460   2.7928460
 AtZNuc=   6.0000000   1.0000000   1.0000000   1.0000000   1.0000000   1.0000000
 Leave Link  101 at Wed May 15 11:07:13 2024, MaxMem=    33554432 cpu:         0.7
 (Enter /hits/basement/its/doserbd/software/gaussian/g09d1/g09/l103.exe)

 GradGradGradGradGradGradGradGradGradGradGradGradGradGradGradGradGradGrad
 Berny optimization.
 Initialization pass.
                           ----------------------------
                           !    Initial Parameters    !
                           ! (Angstroms and Degrees)  !
 --------------------------                            --------------------------
 ! Name  Definition              Value          Derivative Info.                !
 --------------------------------------------------------------------------------
 ! R1    R(1,5)                  1.4297         estimate D2E/DX2                !
 ! R2    R(1,34)                 1.222          estimate D2E/DX2                !
 ! R3    R(2,3)                  1.3867         estimate D2E/DX2                !
 ! R4    R(2,7)                  1.3771         estimate D2E/DX2                !
 ! R5    R(2,48)                 1.42           estimate D2E/DX2                !
 ! R6    R(3,4)                  1.4043         estimate D2E/DX2                !
 ! R7    R(3,10)                 1.5194         estimate D2E/DX2                !
 ! R8    R(4,5)                  1.4138         estimate D2E/DX2                !
 ! R9    R(4,8)                  1.0915         estimate D2E/DX2                !
 ! R10   R(5,6)                  1.4212         estimate D2E/DX2                !
 ! R11   R(6,7)                  1.409          estimate D2E/DX2                !
 ! R12   R(6,22)                 1.5164         estimate D2E/DX2                !
 ! R13   R(7,9)                  1.0914         estimate D2E/DX2                !
 ! R14   R(10,11)                1.1054         estimate D2E/DX2                !
 ! R15   R(10,12)                1.1054         estimate D2E/DX2                !
 ! R16   R(10,13)                1.5309         estimate D2E/DX2                !
 ! R17   R(13,14)                1.1057         estimate D2E/DX2                !
 ! R18   R(13,15)                1.1057         estimate D2E/DX2                !
 ! R19   R(13,16)                1.5333         estimate D2E/DX2                !
 ! R20   R(16,17)                1.1059         estimate D2E/DX2                !
 ! R21   R(16,18)                1.1059         estimate D2E/DX2                !
 ! R22   R(16,19)                1.5308         estimate D2E/DX2                !
 ! R23   R(19,20)                1.1038         estimate D2E/DX2                !
 ! R24   R(19,21)                1.1038         estimate D2E/DX2                !
 ! R25   R(19,35)                1.1021         estimate D2E/DX2                !
 ! R26   R(22,23)                1.1058         estimate D2E/DX2                !
 ! R27   R(22,24)                1.1058         estimate D2E/DX2                !
 ! R28   R(22,25)                1.5309         estimate D2E/DX2                !
 ! R29   R(25,26)                1.1058         estimate D2E/DX2                !
 ! R30   R(25,27)                1.1058         estimate D2E/DX2                !
 ! R31   R(25,28)                1.5336         estimate D2E/DX2                !
 ! R32   R(28,29)                1.1059         estimate D2E/DX2                !
 ! R33   R(28,30)                1.1059         estimate D2E/DX2                !
 ! R34   R(28,31)                1.5307         estimate D2E/DX2                !
 ! R35   R(31,32)                1.1038         estimate D2E/DX2                !
 ! R36   R(31,33)                1.1038         estimate D2E/DX2                !
 ! R37   R(31,36)                1.1021         estimate D2E/DX2                !
 ! R38   R(34,37)                1.4286         estimate D2E/DX2                !
 ! R39   R(37,38)                1.4121         estimate D2E/DX2                !
 ! R40   R(37,42)                1.4121         estimate D2E/DX2                !
 ! R41   R(38,39)                1.3946         estimate D2E/DX2                !
 ! R42   R(38,45)                1.0917         estimate D2E/DX2                !
 ! R43   R(39,40)                1.3995         estimate D2E/DX2                !
 ! R44   R(39,47)                1.0928         estimate D2E/DX2                !
 ! R45   R(40,41)                1.3996         estimate D2E/DX2                !
 ! R46   R(40,43)                1.0925         estimate D2E/DX2                !
 ! R47   R(41,42)                1.3946         estimate D2E/DX2                !
 ! R48   R(41,44)                1.0927         estimate D2E/DX2                !
 ! R49   R(42,46)                1.0917         estimate D2E/DX2                !
 ! R50   R(48,49)                1.2846         estimate D2E/DX2                !
 ! R51   R(49,51)                1.3933         estimate D2E/DX2                !
 ! R52   R(50,54)                1.4155         estimate D2E/DX2                !
 ! R53   R(50,83)                1.2256         estimate D2E/DX2                !
 ! R54   R(51,52)                1.443          estimate D2E/DX2                !
 ! R55   R(51,56)                1.4305         estimate D2E/DX2                !
 ! R56   R(52,53)                1.3852         estimate D2E/DX2                !
 ! R57   R(52,59)                1.5119         estimate D2E/DX2                !
 ! R58   R(53,54)                1.4204         estimate D2E/DX2                !
 ! R59   R(53,57)                1.0897         estimate D2E/DX2                !
 ! R60   R(54,55)                1.4333         estimate D2E/DX2                !
 ! R61   R(55,56)                1.3828         estimate D2E/DX2                !
 ! R62   R(55,71)                1.5151         estimate D2E/DX2                !
 ! R63   R(56,58)                1.0895         estimate D2E/DX2                !
 ! R64   R(59,60)                1.1048         estimate D2E/DX2                !
 ! R65   R(59,61)                1.1048         estimate D2E/DX2                !
 ! R66   R(59,62)                1.5305         estimate D2E/DX2                !
 ! R67   R(62,63)                1.106          estimate D2E/DX2                !
 ! R68   R(62,64)                1.106          estimate D2E/DX2                !
 ! R69   R(62,65)                1.5337         estimate D2E/DX2                !
 ! R70   R(65,66)                1.1055         estimate D2E/DX2                !
 ! R71   R(65,67)                1.1055         estimate D2E/DX2                !
 ! R72   R(65,68)                1.5306         estimate D2E/DX2                !
 ! R73   R(68,69)                1.1038         estimate D2E/DX2                !
 ! R74   R(68,70)                1.1038         estimate D2E/DX2                !
 ! R75   R(68,84)                1.1019         estimate D2E/DX2                !
 ! R76   R(71,72)                1.1058         estimate D2E/DX2                !
 ! R77   R(71,73)                1.1058         estimate D2E/DX2                !
 ! R78   R(71,74)                1.5308         estimate D2E/DX2                !
 ! R79   R(74,75)                1.1053         estimate D2E/DX2                !
 ! R80   R(74,76)                1.1053         estimate D2E/DX2                !
 ! R81   R(74,77)                1.5336         estimate D2E/DX2                !
 ! R82   R(77,78)                1.106          estimate D2E/DX2                !
 ! R83   R(77,79)                1.106          estimate D2E/DX2                !
 ! R84   R(77,80)                1.5307         estimate D2E/DX2                !
 ! R85   R(80,81)                1.1035         estimate D2E/DX2                !
 ! R86   R(80,82)                1.1035         estimate D2E/DX2                !
 ! R87   R(80,85)                1.102          estimate D2E/DX2                !
 ! R88   R(83,86)                1.4238         estimate D2E/DX2                !
 ! R89   R(86,87)                1.4134         estimate D2E/DX2                !
 ! R90   R(86,91)                1.4134         estimate D2E/DX2                !
 ! R91   R(87,88)                1.3935         estimate D2E/DX2                !
 ! R92   R(87,94)                1.0915         estimate D2E/DX2                !
 ! R93   R(88,89)                1.4001         estimate D2E/DX2                !
 ! R94   R(88,96)                1.0923         estimate D2E/DX2                !
 ! R95   R(89,90)                1.4002         estimate D2E/DX2                !
 ! R96   R(89,92)                1.0924         estimate D2E/DX2                !
 ! R97   R(90,91)                1.3935         estimate D2E/DX2                !
 ! R98   R(90,93)                1.0923         estimate D2E/DX2                !
 ! R99   R(91,95)                1.0915         estimate D2E/DX2                !
 ! A1    A(3,2,7)              127.3878         estimate D2E/DX2                !
 ! A2    A(3,2,48)             117.0963         estimate D2E/DX2                !
 ! A3    A(7,2,48)             115.5159         estimate D2E/DX2                !
 ! A4    A(2,3,4)              113.8023         estimate D2E/DX2                !
 ! A5    A(2,3,10)             121.8724         estimate D2E/DX2                !
 ! A6    A(4,3,10)             124.3253         estimate D2E/DX2                !
 ! A7    A(3,4,5)              122.1296         estimate D2E/DX2                !
 ! A8    A(3,4,8)              120.0691         estimate D2E/DX2                !
 ! A9    A(5,4,8)              117.8013         estimate D2E/DX2                !
 ! A10   A(1,5,4)              118.6382         estimate D2E/DX2                !
 ! A11   A(1,5,6)              120.4007         estimate D2E/DX2                !
 ! A12   A(4,5,6)              120.9611         estimate D2E/DX2                !
 ! A13   A(5,6,7)              117.3488         estimate D2E/DX2                !
 ! A14   A(5,6,22)             120.0396         estimate D2E/DX2                !
 ! A15   A(7,6,22)             122.6116         estimate D2E/DX2                !
 ! A16   A(2,7,6)              118.3705         estimate D2E/DX2                !
 ! A17   A(2,7,9)              121.0427         estimate D2E/DX2                !
 ! A18   A(6,7,9)              120.5869         estimate D2E/DX2                !
 ! A19   A(3,10,11)            108.1014         estimate D2E/DX2                !
 ! A20   A(3,10,12)            108.1            estimate D2E/DX2                !
 ! A21   A(3,10,13)            116.4122         estimate D2E/DX2                !
 ! A22   A(11,10,12)           105.1207         estimate D2E/DX2                !
 ! A23   A(11,10,13)           109.2601         estimate D2E/DX2                !
 ! A24   A(12,10,13)           109.2522         estimate D2E/DX2                !
 ! A25   A(10,13,14)           109.7444         estimate D2E/DX2                !
 ! A26   A(10,13,15)           109.7434         estimate D2E/DX2                !
 ! A27   A(10,13,16)           112.7435         estimate D2E/DX2                !
 ! A28   A(14,13,15)           106.1939         estimate D2E/DX2                !
 ! A29   A(14,13,16)           109.1032         estimate D2E/DX2                !
 ! A30   A(15,13,16)           109.0972         estimate D2E/DX2                !
 ! A31   A(13,16,17)           109.2206         estimate D2E/DX2                !
 ! A32   A(13,16,18)           109.22           estimate D2E/DX2                !
 ! A33   A(13,16,19)           113.1632         estimate D2E/DX2                !
 ! A34   A(17,16,18)           105.8695         estimate D2E/DX2                !
 ! A35   A(17,16,19)           109.5542         estimate D2E/DX2                !
 ! A36   A(18,16,19)           109.553          estimate D2E/DX2                !
 ! A37   A(16,19,20)           111.2848         estimate D2E/DX2                !
 ! A38   A(16,19,21)           111.2842         estimate D2E/DX2                !
 ! A39   A(16,19,35)           111.4996         estimate D2E/DX2                !
 ! A40   A(20,19,21)           107.3762         estimate D2E/DX2                !
 ! A41   A(20,19,35)           107.5954         estimate D2E/DX2                !
 ! A42   A(21,19,35)           107.5944         estimate D2E/DX2                !
 ! A43   A(6,22,23)            108.1312         estimate D2E/DX2                !
 ! A44   A(6,22,24)            108.131          estimate D2E/DX2                !
 ! A45   A(6,22,25)            116.8257         estimate D2E/DX2                !
 ! A46   A(23,22,24)           104.5937         estimate D2E/DX2                !
 ! A47   A(23,22,25)           109.2321         estimate D2E/DX2                !
 ! A48   A(24,22,25)           109.2307         estimate D2E/DX2                !
 ! A49   A(22,25,26)           109.8591         estimate D2E/DX2                !
 ! A50   A(22,25,27)           109.8595         estimate D2E/DX2                !
 ! A51   A(22,25,28)           112.6306         estimate D2E/DX2                !
 ! A52   A(26,25,27)           106.248          estimate D2E/DX2                !
 ! A53   A(26,25,28)           109.0164         estimate D2E/DX2                !
 ! A54   A(27,25,28)           109.0196         estimate D2E/DX2                !
 ! A55   A(25,28,29)           109.1895         estimate D2E/DX2                !
 ! A56   A(25,28,30)           109.1892         estimate D2E/DX2                !
 ! A57   A(25,28,31)           113.1947         estimate D2E/DX2                !
 ! A58   A(29,28,30)           105.8679         estimate D2E/DX2                !
 ! A59   A(29,28,31)           109.5677         estimate D2E/DX2                !
 ! A60   A(30,28,31)           109.569          estimate D2E/DX2                !
 ! A61   A(28,31,32)           111.2879         estimate D2E/DX2                !
 ! A62   A(28,31,33)           111.2886         estimate D2E/DX2                !
 ! A63   A(28,31,36)           111.5115         estimate D2E/DX2                !
 ! A64   A(32,31,33)           107.3733         estimate D2E/DX2                !
 ! A65   A(32,31,36)           107.5858         estimate D2E/DX2                !
 ! A66   A(33,31,36)           107.5864         estimate D2E/DX2                !
 ! A67   A(34,37,38)           120.6139         estimate D2E/DX2                !
 ! A68   A(34,37,42)           120.6749         estimate D2E/DX2                !
 ! A69   A(38,37,42)           118.7112         estimate D2E/DX2                !
 ! A70   A(37,38,39)           120.4352         estimate D2E/DX2                !
 ! A71   A(37,38,45)           119.0986         estimate D2E/DX2                !
 ! A72   A(39,38,45)           120.4662         estimate D2E/DX2                !
 ! A73   A(38,39,40)           120.3722         estimate D2E/DX2                !
 ! A74   A(38,39,47)           119.5996         estimate D2E/DX2                !
 ! A75   A(40,39,47)           120.0282         estimate D2E/DX2                !
 ! A76   A(39,40,41)           119.6743         estimate D2E/DX2                !
 ! A77   A(39,40,43)           120.1508         estimate D2E/DX2                !
 ! A78   A(41,40,43)           120.1749         estimate D2E/DX2                !
 ! A79   A(40,41,42)           120.3528         estimate D2E/DX2                !
 ! A80   A(40,41,44)           120.0514         estimate D2E/DX2                !
 ! A81   A(42,41,44)           119.5958         estimate D2E/DX2                !
 ! A82   A(37,42,41)           120.4542         estimate D2E/DX2                !
 ! A83   A(37,42,46)           119.099          estimate D2E/DX2                !
 ! A84   A(41,42,46)           120.4467         estimate D2E/DX2                !
 ! A85   A(49,51,52)           121.2114         estimate D2E/DX2                !
 ! A86   A(49,51,56)           119.3258         estimate D2E/DX2                !
 ! A87   A(52,51,56)           119.4628         estimate D2E/DX2                !
 ! A88   A(51,52,53)           117.5343         estimate D2E/DX2                !
 ! A89   A(51,52,59)           119.4962         estimate D2E/DX2                !
 ! A90   A(53,52,59)           122.9695         estimate D2E/DX2                !
 ! A91   A(52,53,54)           122.3854         estimate D2E/DX2                !
 ! A92   A(52,53,57)           120.2474         estimate D2E/DX2                !
 ! A93   A(54,53,57)           117.3672         estimate D2E/DX2                !
 ! A94   A(50,54,53)           118.7304         estimate D2E/DX2                !
 ! A95   A(50,54,55)           120.6751         estimate D2E/DX2                !
 ! A96   A(53,54,55)           120.5945         estimate D2E/DX2                !
 ! A97   A(54,55,56)           117.1417         estimate D2E/DX2                !
 ! A98   A(54,55,71)           119.6828         estimate D2E/DX2                !
 ! A99   A(56,55,71)           123.1755         estimate D2E/DX2                !
 ! A100  A(51,56,55)           122.8813         estimate D2E/DX2                !
 ! A101  A(51,56,58)           116.5122         estimate D2E/DX2                !
 ! A102  A(55,56,58)           120.6065         estimate D2E/DX2                !
 ! A103  A(52,59,60)           107.8773         estimate D2E/DX2                !
 ! A104  A(52,59,61)           107.8763         estimate D2E/DX2                !
 ! A105  A(52,59,62)           116.8887         estimate D2E/DX2                !
 ! A106  A(60,59,61)           103.9009         estimate D2E/DX2                !
 ! A107  A(60,59,62)           109.748          estimate D2E/DX2                !
 ! A108  A(61,59,62)           109.7434         estimate D2E/DX2                !
 ! A109  A(59,62,63)           109.952          estimate D2E/DX2                !
 ! A110  A(59,62,64)           109.9504         estimate D2E/DX2                !
 ! A111  A(59,62,65)           112.4512         estimate D2E/DX2                !
 ! A112  A(63,62,64)           106.2644         estimate D2E/DX2                !
 ! A113  A(63,62,65)           109.0127         estimate D2E/DX2                !
 ! A114  A(64,62,65)           109.0126         estimate D2E/DX2                !
 ! A115  A(62,65,66)           109.1694         estimate D2E/DX2                !
 ! A116  A(62,65,67)           109.1698         estimate D2E/DX2                !
 ! A117  A(62,65,68)           113.1338         estimate D2E/DX2                !
 ! A118  A(66,65,67)           105.8255         estimate D2E/DX2                !
 ! A119  A(66,65,68)           109.6404         estimate D2E/DX2                !
 ! A120  A(67,65,68)           109.6395         estimate D2E/DX2                !
 ! A121  A(65,68,69)           111.3155         estimate D2E/DX2                !
 ! A122  A(65,68,70)           111.3149         estimate D2E/DX2                !
 ! A123  A(65,68,84)           111.4399         estimate D2E/DX2                !
 ! A124  A(69,68,70)           107.4137         estimate D2E/DX2                !
 ! A125  A(69,68,84)           107.5757         estimate D2E/DX2                !
 ! A126  A(70,68,84)           107.5752         estimate D2E/DX2                !
 ! A127  A(55,71,72)           108.0946         estimate D2E/DX2                !
 ! A128  A(55,71,73)           108.0929         estimate D2E/DX2                !
 ! A129  A(55,71,74)           116.6819         estimate D2E/DX2                !
 ! A130  A(72,71,73)           104.6532         estimate D2E/DX2                !
 ! A131  A(72,71,74)           109.3215         estimate D2E/DX2                !
 ! A132  A(73,71,74)           109.32           estimate D2E/DX2                !
 ! A133  A(71,74,75)           109.8343         estimate D2E/DX2                !
 ! A134  A(71,74,76)           109.8366         estimate D2E/DX2                !
 ! A135  A(71,74,77)           112.5565         estimate D2E/DX2                !
 ! A136  A(75,74,76)           106.2296         estimate D2E/DX2                !
 ! A137  A(75,74,77)           109.0904         estimate D2E/DX2                !
 ! A138  A(76,74,77)           109.0904         estimate D2E/DX2                !
 ! A139  A(74,77,78)           109.2061         estimate D2E/DX2                !
 ! A140  A(74,77,79)           109.2055         estimate D2E/DX2                !
 ! A141  A(74,77,80)           113.0993         estimate D2E/DX2                !
 ! A142  A(78,77,79)           105.9093         estimate D2E/DX2                !
 ! A143  A(78,77,80)           109.5828         estimate D2E/DX2                !
 ! A144  A(79,77,80)           109.5841         estimate D2E/DX2                !
 ! A145  A(77,80,81)           111.2725         estimate D2E/DX2                !
 ! A146  A(77,80,82)           111.2732         estimate D2E/DX2                !
 ! A147  A(77,80,85)           111.4537         estimate D2E/DX2                !
 ! A148  A(81,80,82)           107.3905         estimate D2E/DX2                !
 ! A149  A(81,80,85)           107.6244         estimate D2E/DX2                !
 ! A150  A(82,80,85)           107.6249         estimate D2E/DX2                !
 ! A151  A(83,86,87)           120.459          estimate D2E/DX2                !
 ! A152  A(83,86,91)           120.5076         estimate D2E/DX2                !
 ! A153  A(87,86,91)           119.0334         estimate D2E/DX2                !
 ! A154  A(86,87,88)           120.2418         estimate D2E/DX2                !
 ! A155  A(86,87,94)           119.1806         estimate D2E/DX2                !
 ! A156  A(88,87,94)           120.5776         estimate D2E/DX2                !
 ! A157  A(87,88,89)           120.2655         estimate D2E/DX2                !
 ! A158  A(87,88,96)           119.6856         estimate D2E/DX2                !
 ! A159  A(89,88,96)           120.0489         estimate D2E/DX2                !
 ! A160  A(88,89,90)           119.9527         estimate D2E/DX2                !
 ! A161  A(88,89,92)           120.015          estimate D2E/DX2                !
 ! A162  A(90,89,92)           120.0323         estimate D2E/DX2                !
 ! A163  A(89,90,91)           120.2533         estimate D2E/DX2                !
 ! A164  A(89,90,93)           120.0643         estimate D2E/DX2                !
 ! A165  A(91,90,93)           119.6824         estimate D2E/DX2                !
 ! A166  A(86,91,90)           120.2532         estimate D2E/DX2                !
 ! A167  A(86,91,95)           119.1819         estimate D2E/DX2                !
 ! A168  A(90,91,95)           120.5649         estimate D2E/DX2                !
 ! A169  L(5,1,34,23,-1)       180.4987         estimate D2E/DX2                !
 ! A170  L(1,34,37,29,-1)      180.1531         estimate D2E/DX2                !
 ! A171  L(2,48,49,11,-1)      180.3972         estimate D2E/DX2                !
 ! A172  L(48,49,51,17,-1)     179.8002         estimate D2E/DX2                !
 ! A173  L(54,50,83,72,-1)     180.7409         estimate D2E/DX2                !
 ! A174  L(50,83,86,78,-1)     180.0354         estimate D2E/DX2                !
 ! A175  L(5,1,34,23,-2)       179.9329         estimate D2E/DX2                !
 ! A176  L(1,34,37,29,-2)      179.8813         estimate D2E/DX2                !
 ! A177  L(2,48,49,11,-2)      179.8974         estimate D2E/DX2                !
 ! A178  L(48,49,51,17,-2)     180.2892         estimate D2E/DX2                !
 ! A179  L(54,50,83,72,-2)     179.8386         estimate D2E/DX2                !
 ! A180  L(50,83,86,78,-2)     179.9128         estimate D2E/DX2                !
 ! D1    D(3,2,51,52)         -179.8003         estimate D2E/DX2                !
 ! D2    D(3,2,51,56)            0.1127         estimate D2E/DX2                !
 ! D3    D(7,2,51,52)            0.3059         estimate D2E/DX2                !
 ! D4    D(7,2,51,56)         -179.7811         estimate D2E/DX2                !
 ! D5    D(4,5,37,38)           -0.0265         estimate D2E/DX2                !
 ! D6    D(4,5,37,42)          179.9919         estimate D2E/DX2                !
 ! D7    D(6,5,37,38)         -179.9772         estimate D2E/DX2                !
 ! D8    D(6,5,37,42)            0.0411         estimate D2E/DX2                !
 ! D9    D(7,2,3,4)             -0.0073         estimate D2E/DX2                !
 ! D10   D(7,2,3,10)           179.9835         estimate D2E/DX2                !
 ! D11   D(48,2,3,4)          -179.962          estimate D2E/DX2                !
 ! D12   D(48,2,3,10)            0.0288         estimate D2E/DX2                !
 ! D13   D(3,2,7,6)              0.0055         estimate D2E/DX2                !
 ! D14   D(3,2,7,9)           -179.9947         estimate D2E/DX2                !
 ! D15   D(48,2,7,6)           179.9608         estimate D2E/DX2                !
 ! D16   D(48,2,7,9)            -0.0394         estimate D2E/DX2                !
 ! D17   D(2,3,4,5)             -0.0019         estimate D2E/DX2                !
 ! D18   D(2,3,4,8)           -179.9949         estimate D2E/DX2                !
 ! D19   D(10,3,4,5)          -179.9924         estimate D2E/DX2                !
 ! D20   D(10,3,4,8)             0.0145         estimate D2E/DX2                !
 ! D21   D(2,3,10,11)           56.5256         estimate D2E/DX2                !
 ! D22   D(2,3,10,12)          -56.7755         estimate D2E/DX2                !
 ! D23   D(2,3,10,13)          179.8809         estimate D2E/DX2                !
 ! D24   D(4,3,10,11)         -123.4846         estimate D2E/DX2                !
 ! D25   D(4,3,10,12)          123.2143         estimate D2E/DX2                !
 ! D26   D(4,3,10,13)           -0.1293         estimate D2E/DX2                !
 ! D27   D(3,4,5,1)           -179.9792         estimate D2E/DX2                !
 ! D28   D(3,4,5,6)              0.0125         estimate D2E/DX2                !
 ! D29   D(8,4,5,1)              0.014          estimate D2E/DX2                !
 ! D30   D(8,4,5,6)           -179.9943         estimate D2E/DX2                !
 ! D31   D(1,5,6,7)            179.9775         estimate D2E/DX2                !
 ! D32   D(1,5,6,22)            -0.0153         estimate D2E/DX2                !
 ! D33   D(4,5,6,7)             -0.014          estimate D2E/DX2                !
 ! D34   D(4,5,6,22)           179.9931         estimate D2E/DX2                !
 ! D35   D(5,6,7,2)              0.0055         estimate D2E/DX2                !
 ! D36   D(5,6,7,9)           -179.9943         estimate D2E/DX2                !
 ! D37   D(22,6,7,2)           179.9982         estimate D2E/DX2                !
 ! D38   D(22,6,7,9)            -0.0017         estimate D2E/DX2                !
 ! D39   D(5,6,22,23)          -56.3101         estimate D2E/DX2                !
 ! D40   D(5,6,22,24)           56.4085         estimate D2E/DX2                !
 ! D41   D(5,6,22,25)         -179.9519         estimate D2E/DX2                !
 ! D42   D(7,6,22,23)          123.6975         estimate D2E/DX2                !
 ! D43   D(7,6,22,24)         -123.584          estimate D2E/DX2                !
 ! D44   D(7,6,22,25)            0.0557         estimate D2E/DX2                !
 ! D45   D(3,10,13,14)         -58.1085         estimate D2E/DX2                !
 ! D46   D(3,10,13,15)          58.2277         estimate D2E/DX2                !
 ! D47   D(3,10,13,16)        -179.9446         estimate D2E/DX2                !
 ! D48   D(11,10,13,14)         64.6448         estimate D2E/DX2                !
 ! D49   D(11,10,13,15)       -179.0191         estimate D2E/DX2                !
 ! D50   D(11,10,13,16)        -57.1914         estimate D2E/DX2                !
 ! D51   D(12,10,13,14)        179.1466         estimate D2E/DX2                !
 ! D52   D(12,10,13,15)        -64.5172         estimate D2E/DX2                !
 ! D53   D(12,10,13,16)         57.3105         estimate D2E/DX2                !
 ! D54   D(10,13,16,17)        -57.639          estimate D2E/DX2                !
 ! D55   D(10,13,16,18)         57.7163         estimate D2E/DX2                !
 ! D56   D(10,13,16,19)       -179.9623         estimate D2E/DX2                !
 ! D57   D(14,13,16,17)       -179.8367         estimate D2E/DX2                !
 ! D58   D(14,13,16,18)        -64.4814         estimate D2E/DX2                !
 ! D59   D(14,13,16,19)         57.8399         estimate D2E/DX2                !
 ! D60   D(15,13,16,17)         64.5533         estimate D2E/DX2                !
 ! D61   D(15,13,16,18)        179.9085         estimate D2E/DX2                !
 ! D62   D(15,13,16,19)        -57.7701         estimate D2E/DX2                !
 ! D63   D(13,16,19,20)         59.8782         estimate D2E/DX2                !
 ! D64   D(13,16,19,21)        -59.84           estimate D2E/DX2                !
 ! D65   D(13,16,19,35)       -179.98           estimate D2E/DX2                !
 ! D66   D(17,16,19,20)        -62.259          estimate D2E/DX2                !
 ! D67   D(17,16,19,21)        178.0228         estimate D2E/DX2                !
 ! D68   D(17,16,19,35)         57.8828         estimate D2E/DX2                !
 ! D69   D(18,16,19,20)       -177.9863         estimate D2E/DX2                !
 ! D70   D(18,16,19,21)         62.2955         estimate D2E/DX2                !
 ! D71   D(18,16,19,35)        -57.8445         estimate D2E/DX2                !
 ! D72   D(6,22,25,26)         -58.3            estimate D2E/DX2                !
 ! D73   D(6,22,25,27)          58.2359         estimate D2E/DX2                !
 ! D74   D(6,22,25,28)         179.9701         estimate D2E/DX2                !
 ! D75   D(23,22,25,26)        178.6237         estimate D2E/DX2                !
 ! D76   D(23,22,25,27)        -64.8405         estimate D2E/DX2                !
 ! D77   D(23,22,25,28)         56.8938         estimate D2E/DX2                !
 ! D78   D(24,22,25,26)         64.7749         estimate D2E/DX2                !
 ! D79   D(24,22,25,27)       -178.6892         estimate D2E/DX2                !
 ! D80   D(24,22,25,28)        -56.955          estimate D2E/DX2                !
 ! D81   D(22,25,28,29)        -57.6748         estimate D2E/DX2                !
 ! D82   D(22,25,28,30)         57.6445         estimate D2E/DX2                !
 ! D83   D(22,25,28,31)        179.9855         estimate D2E/DX2                !
 ! D84   D(26,25,28,29)       -179.8813         estimate D2E/DX2                !
 ! D85   D(26,25,28,30)        -64.562          estimate D2E/DX2                !
 ! D86   D(26,25,28,31)         57.7791         estimate D2E/DX2                !
 ! D87   D(27,25,28,29)         64.5343         estimate D2E/DX2                !
 ! D88   D(27,25,28,30)        179.8536         estimate D2E/DX2                !
 ! D89   D(27,25,28,31)        -57.8053         estimate D2E/DX2                !
 ! D90   D(25,28,31,32)         59.8449         estimate D2E/DX2                !
 ! D91   D(25,28,31,33)        -59.8746         estimate D2E/DX2                !
 ! D92   D(25,28,31,36)        179.9846         estimate D2E/DX2                !
 ! D93   D(29,28,31,32)        -62.2838         estimate D2E/DX2                !
 ! D94   D(29,28,31,33)        177.9967         estimate D2E/DX2                !
 ! D95   D(29,28,31,36)         57.8559         estimate D2E/DX2                !
 ! D96   D(30,28,31,32)       -178.0258         estimate D2E/DX2                !
 ! D97   D(30,28,31,33)         62.2547         estimate D2E/DX2                !
 ! D98   D(30,28,31,36)        -57.8862         estimate D2E/DX2                !
 ! D99   D(34,37,38,39)       -179.9993         estimate D2E/DX2                !
 ! D100  D(34,37,38,45)          0.0            estimate D2E/DX2                !
 ! D101  D(42,37,38,39)          0.0044         estimate D2E/DX2                !
 ! D102  D(42,37,38,45)       -179.9964         estimate D2E/DX2                !
 ! D103  D(34,37,42,41)        179.9991         estimate D2E/DX2                !
 ! D104  D(34,37,42,46)          0.0004         estimate D2E/DX2                !
 ! D105  D(38,37,42,41)         -0.0046         estimate D2E/DX2                !
 ! D106  D(38,37,42,46)        179.9968         estimate D2E/DX2                !
 ! D107  D(37,38,39,40)         -0.0019         estimate D2E/DX2                !
 ! D108  D(37,38,39,47)        179.9991         estimate D2E/DX2                !
 ! D109  D(45,38,39,40)        179.9988         estimate D2E/DX2                !
 ! D110  D(45,38,39,47)         -0.0001         estimate D2E/DX2                !
 ! D111  D(38,39,40,41)         -0.0004         estimate D2E/DX2                !
 ! D112  D(38,39,40,43)       -179.9997         estimate D2E/DX2                !
 ! D113  D(47,39,40,41)        179.9985         estimate D2E/DX2                !
 ! D114  D(47,39,40,43)         -0.0008         estimate D2E/DX2                !
 ! D115  D(39,40,41,42)          0.0002         estimate D2E/DX2                !
 ! D116  D(39,40,41,44)       -179.9994         estimate D2E/DX2                !
 ! D117  D(43,40,41,42)        179.9995         estimate D2E/DX2                !
 ! D118  D(43,40,41,44)         -0.0001         estimate D2E/DX2                !
 ! D119  D(40,41,42,37)          0.0024         estimate D2E/DX2                !
 ! D120  D(40,41,42,46)       -179.999          estimate D2E/DX2                !
 ! D121  D(44,41,42,37)       -179.9981         estimate D2E/DX2                !
 ! D122  D(44,41,42,46)          0.0006         estimate D2E/DX2                !
 ! D123  D(53,54,86,87)         -0.0517         estimate D2E/DX2                !
 ! D124  D(53,54,86,91)        179.9659         estimate D2E/DX2                !
 ! D125  D(55,54,86,87)        179.9916         estimate D2E/DX2                !
 ! D126  D(55,54,86,91)          0.0093         estimate D2E/DX2                !
 ! D127  D(49,51,52,53)       -179.9893         estimate D2E/DX2                !
 ! D128  D(49,51,52,59)          0.0101         estimate D2E/DX2                !
 ! D129  D(56,51,52,53)          0.0081         estimate D2E/DX2                !
 ! D130  D(56,51,52,59)       -179.9926         estimate D2E/DX2                !
 ! D131  D(49,51,56,55)        179.9892         estimate D2E/DX2                !
 ! D132  D(49,51,56,58)         -0.0088         estimate D2E/DX2                !
 ! D133  D(52,51,56,55)         -0.0082         estimate D2E/DX2                !
 ! D134  D(52,51,56,58)        179.9938         estimate D2E/DX2                !
 ! D135  D(51,52,53,54)         -0.0091         estimate D2E/DX2                !
 ! D136  D(51,52,53,57)        179.9966         estimate D2E/DX2                !
 ! D137  D(59,52,53,54)        179.9915         estimate D2E/DX2                !
 ! D138  D(59,52,53,57)         -0.0027         estimate D2E/DX2                !
 ! D139  D(51,52,59,60)         55.8224         estimate D2E/DX2                !
 ! D140  D(51,52,59,61)        -55.8483         estimate D2E/DX2                !
 ! D141  D(51,52,59,62)        179.9906         estimate D2E/DX2                !
 ! D142  D(53,52,59,60)       -124.1782         estimate D2E/DX2                !
 ! D143  D(53,52,59,61)        124.1511         estimate D2E/DX2                !
 ! D144  D(53,52,59,62)         -0.01           estimate D2E/DX2                !
 ! D145  D(52,53,54,50)       -179.9863         estimate D2E/DX2                !
 ! D146  D(52,53,54,55)          0.0098         estimate D2E/DX2                !
 ! D147  D(57,53,54,50)          0.0082         estimate D2E/DX2                !
 ! D148  D(57,53,54,55)       -179.9957         estimate D2E/DX2                !
 ! D149  D(50,54,55,56)        179.987          estimate D2E/DX2                !
 ! D150  D(50,54,55,71)         -0.0084         estimate D2E/DX2                !
 ! D151  D(53,54,55,56)         -0.009          estimate D2E/DX2                !
 ! D152  D(53,54,55,71)        179.9955         estimate D2E/DX2                !
 ! D153  D(54,55,56,51)          0.0085         estimate D2E/DX2                !
 ! D154  D(54,55,56,58)       -179.9936         estimate D2E/DX2                !
 ! D155  D(71,55,56,51)       -179.9963         estimate D2E/DX2                !
 ! D156  D(71,55,56,58)          0.0017         estimate D2E/DX2                !
 ! D157  D(54,55,71,72)        -56.3716         estimate D2E/DX2                !
 ! D158  D(54,55,71,73)         56.3793         estimate D2E/DX2                !
 ! D159  D(54,55,71,74)       -179.9978         estimate D2E/DX2                !
 ! D160  D(56,55,71,72)        123.6333         estimate D2E/DX2                !
 ! D161  D(56,55,71,73)       -123.6159         estimate D2E/DX2                !
 ! D162  D(56,55,71,74)          0.0071         estimate D2E/DX2                !
 ! D163  D(52,59,62,63)        -58.3188         estimate D2E/DX2                !
 ! D164  D(52,59,62,64)         58.3447         estimate D2E/DX2                !
 ! D165  D(52,59,62,65)       -179.9877         estimate D2E/DX2                !
 ! D166  D(60,59,62,63)         64.8934         estimate D2E/DX2                !
 ! D167  D(60,59,62,64)       -178.4431         estimate D2E/DX2                !
 ! D168  D(60,59,62,65)        -56.7755         estimate D2E/DX2                !
 ! D169  D(61,59,62,63)        178.4744         estimate D2E/DX2                !
 ! D170  D(61,59,62,64)        -64.8621         estimate D2E/DX2                !
 ! D171  D(61,59,62,65)         56.8055         estimate D2E/DX2                !
 ! D172  D(59,62,65,66)        -57.6119         estimate D2E/DX2                !
 ! D173  D(59,62,65,67)         57.6352         estimate D2E/DX2                !
 ! D174  D(59,62,65,68)       -179.9888         estimate D2E/DX2                !
 ! D175  D(63,62,65,66)       -179.8139         estimate D2E/DX2                !
 ! D176  D(63,62,65,67)        -64.5669         estimate D2E/DX2                !
 ! D177  D(63,62,65,68)         57.8091         estimate D2E/DX2                !
 ! D178  D(64,62,65,66)         64.588          estimate D2E/DX2                !
 ! D179  D(64,62,65,67)        179.8351         estimate D2E/DX2                !
 ! D180  D(64,62,65,68)        -57.7889         estimate D2E/DX2                !
 ! D181  D(62,65,68,69)         59.9167         estimate D2E/DX2                !
 ! D182  D(62,65,68,70)        -59.8904         estimate D2E/DX2                !
 ! D183  D(62,65,68,84)       -179.9864         estimate D2E/DX2                !
 ! D184  D(66,65,68,69)        -62.1973         estimate D2E/DX2                !
 ! D185  D(66,65,68,70)        177.9957         estimate D2E/DX2                !
 ! D186  D(66,65,68,84)         57.8997         estimate D2E/DX2                !
 ! D187  D(67,65,68,69)       -177.9696         estimate D2E/DX2                !
 ! D188  D(67,65,68,70)         62.2234         estimate D2E/DX2                !
 ! D189  D(67,65,68,84)        -57.8726         estimate D2E/DX2                !
 ! D190  D(55,71,74,75)        -58.2581         estimate D2E/DX2                !
 ! D191  D(55,71,74,76)         58.2275         estimate D2E/DX2                !
 ! D192  D(55,71,74,77)        179.9855         estimate D2E/DX2                !
 ! D193  D(72,71,74,75)        178.7479         estimate D2E/DX2                !
 ! D194  D(72,71,74,76)        -64.7665         estimate D2E/DX2                !
 ! D195  D(72,71,74,77)         56.9915         estimate D2E/DX2                !
 ! D196  D(73,71,74,75)         64.7324         estimate D2E/DX2                !
 ! D197  D(73,71,74,76)       -178.782          estimate D2E/DX2                !
 ! D198  D(73,71,74,77)        -57.024          estimate D2E/DX2                !
 ! D199  D(71,74,77,78)        -57.706          estimate D2E/DX2                !
 ! D200  D(71,74,77,79)         57.6807         estimate D2E/DX2                !
 ! D201  D(71,74,77,80)        179.9879         estimate D2E/DX2                !
 ! D202  D(75,74,77,78)       -179.8837         estimate D2E/DX2                !
 ! D203  D(75,74,77,79)        -64.4969         estimate D2E/DX2                !
 ! D204  D(75,74,77,80)         57.8103         estimate D2E/DX2                !
 ! D205  D(76,74,77,78)         64.4745         estimate D2E/DX2                !
 ! D206  D(76,74,77,79)        179.8613         estimate D2E/DX2                !
 ! D207  D(76,74,77,80)        -57.8316         estimate D2E/DX2                !
 ! D208  D(74,77,80,81)         59.8443         estimate D2E/DX2                !
 ! D209  D(74,77,80,82)        -59.8764         estimate D2E/DX2                !
 ! D210  D(74,77,80,85)        179.9834         estimate D2E/DX2                !
 ! D211  D(78,77,80,81)        -62.2511         estimate D2E/DX2                !
 ! D212  D(78,77,80,82)        178.0281         estimate D2E/DX2                !
 ! D213  D(78,77,80,85)         57.8879         estimate D2E/DX2                !
 ! D214  D(79,77,80,81)       -178.0601         estimate D2E/DX2                !
 ! D215  D(79,77,80,82)         62.2191         estimate D2E/DX2                !
 ! D216  D(79,77,80,85)        -57.9211         estimate D2E/DX2                !
 ! D217  D(83,86,87,88)       -179.9967         estimate D2E/DX2                !
 ! D218  D(83,86,87,94)          0.0019         estimate D2E/DX2                !
 ! D219  D(91,86,87,88)          0.0041         estimate D2E/DX2                !
 ! D220  D(91,86,87,94)       -179.9974         estimate D2E/DX2                !
 ! D221  D(83,86,91,90)        179.9964         estimate D2E/DX2                !
 ! D222  D(83,86,91,95)         -0.002          estimate D2E/DX2                !
 ! D223  D(87,86,91,90)         -0.0044         estimate D2E/DX2                !
 ! D224  D(87,86,91,95)        179.9972         estimate D2E/DX2                !
 ! D225  D(86,87,88,89)         -0.0018         estimate D2E/DX2                !
 ! D226  D(86,87,88,96)        179.9987         estimate D2E/DX2                !
 ! D227  D(94,87,88,89)        179.9997         estimate D2E/DX2                !
 ! D228  D(94,87,88,96)          0.0001         estimate D2E/DX2                !
 ! D229  D(87,88,89,90)         -0.0003         estimate D2E/DX2                !
 ! D230  D(87,88,89,92)       -179.9997         estimate D2E/DX2                !
 ! D231  D(96,88,89,90)        179.9993         estimate D2E/DX2                !
 ! D232  D(96,88,89,92)         -0.0001         estimate D2E/DX2                !
 ! D233  D(88,89,90,91)          0.0            estimate D2E/DX2                !
 ! D234  D(88,89,90,93)       -179.9995         estimate D2E/DX2                !
 ! D235  D(92,89,90,91)        179.9994         estimate D2E/DX2                !
 ! D236  D(92,89,90,93)         -0.0001         estimate D2E/DX2                !
 ! D237  D(89,90,91,86)          0.0024         estimate D2E/DX2                !
 ! D238  D(89,90,91,95)       -179.9992         estimate D2E/DX2                !
 ! D239  D(93,90,91,86)       -179.9981         estimate D2E/DX2                !
 ! D240  D(93,90,91,95)          0.0002         estimate D2E/DX2                !
 --------------------------------------------------------------------------------
 Trust Radius=3.00D-01 FncErr=1.00D-07 GrdErr=1.00D-06
 Number of steps in this run=    529 maximum allowed number of steps=    576.
 GradGradGradGradGradGradGradGradGradGradGradGradGradGradGradGradGradGrad

 Leave Link  103 at Wed May 15 11:07:14 2024, MaxMem=    33554432 cpu:         0.2
 (Enter /hits/basement/its/doserbd/software/gaussian/g09d1/g09/l202.exe)
 Stoichiometry    C46H50
 Framework group  C1[X(C46H50)]
 Deg. of freedom   282
 Full point group                 C1      NOp   1
 Largest Abelian subgroup         C1      NOp   1
 Largest concise Abelian subgroup C1      NOp   1
                         Standard orientation:                         
 ---------------------------------------------------------------------
 Center     Atomic      Atomic             Coordinates (Angstroms)
 Number     Number       Type             X           Y           Z
 ---------------------------------------------------------------------
      1          6           0        6.235543   -0.338064    0.000963
      2          6           0        2.094258   -0.141655   -0.001728
      3          6           0        2.642291   -1.415471   -0.003088
      4          6           0        4.046503   -1.428303   -0.001932
      5          6           0        4.809315   -0.237959    0.000365
      6          6           0        4.177706    1.035197    0.001878
      7          6           0        2.768888    1.058879    0.000688
      8          1           0        4.584722   -2.377839   -0.002921
      9          1           0        2.229392    2.007641    0.001663
     10          6           0        1.774094   -2.662373   -0.005386
     11          1           0        1.102845   -2.611884   -0.882207
     12          1           0        1.104775   -2.616440    0.873189
     13          6           0        2.510175   -4.004679   -0.009561
     14          1           0        3.170952   -4.065582   -0.893979
     15          1           0        3.171135   -4.070962    0.874336
     16          6           0        1.555298   -5.204365   -0.013017
     17          1           0        0.891383   -5.143796    0.869377
     18          1           0        0.892020   -5.139204   -0.895562
     19          6           0        2.281467   -6.551920   -0.016280
     20          1           0        2.925584   -6.662114    0.873237
     21          1           0        2.926714   -6.657184   -0.905575
     22          6           0        5.016313    2.298617    0.004492
     23          1           0        5.691630    2.261585    0.879346
     24          1           0        5.691714    2.265150   -0.870456
     25          6           0        4.260143    3.629730    0.007149
     26          1           0        3.599483    3.688208   -0.877617
     27          1           0        3.598517    3.684135    0.891449
     28          6           0        5.199434    4.841976    0.010404
     29          1           0        5.863089    4.785227    0.893193
     30          1           0        5.864361    4.788973   -0.871659
     31          6           0        4.456505    6.180293    0.012729
     32          1           0        3.809678    6.278009    0.901744
     33          1           0        3.811345    6.282038   -0.877045
     34          6           0        7.453766   -0.434102   -0.000681
     35          1           0        1.570376   -7.393938   -0.019077
     36          1           0        5.156840    7.031287    0.015319
     37          6           0        8.877570   -0.550599   -0.000548
     38          6           0        9.495173   -1.820449   -0.002539
     39          6           0       10.885490   -1.929842   -0.002386
     40          6           0       11.685617   -0.781655   -0.000297
     41          6           0       11.084088    0.482050    0.001639
     42          6           0        9.694621    0.601126    0.001498
     43          1           0       12.774433   -0.871561   -0.000189
     44          1           0       11.702930    1.382670    0.003266
     45          1           0        8.869572   -2.715059   -0.004187
     46          1           0        9.223807    1.586058    0.002990
     47          1           0       11.349047   -2.919397   -0.003928
     48          6           0        0.677408   -0.047114   -0.001940
     49          6           0       -0.603788    0.046069    0.002912
     50          6           0       -6.218815    0.329223    0.001574
     51          6           0       -1.993841    0.141244    0.002475
     52          6           0       -2.655555    1.423592   -0.000348
     53          6           0       -4.040738    1.429389   -0.000365
     54          6           0       -4.806555    0.233075    0.002074
     55          6           0       -4.160767   -1.046456    0.004899
     56          6           0       -2.778033   -1.055178    0.004929
     57          1           0       -4.585710    2.373017   -0.002387
     58          1           0       -2.229241   -1.996390    0.006903
     59          6           0       -1.827504    2.688533   -0.003114
     60          1           0       -1.147533    2.646876   -0.872902
     61          1           0       -1.147888    2.650891    0.867140
     62          6           0       -2.590478    4.015278   -0.006259
     63          1           0       -3.251784    4.068229   -0.891150
     64          1           0       -3.251693    4.072443    0.878442
     65          6           0       -1.653679    5.229679   -0.009198
     66          1           0       -0.989076    5.177580    0.872640
     67          1           0       -0.989423    5.173588   -0.891051
     68          6           0       -2.400839    6.565502   -0.012089
     69          1           0       -3.046416    6.666093    0.877627
     70          1           0       -3.047110    6.661842   -0.901771
     71          6           0       -4.997814   -2.309330    0.007572
     72          1           0       -5.672823   -2.272105    0.882629
     73          1           0       -5.672577   -2.275937   -0.867834
     74          6           0       -4.237465   -3.637980    0.010566
     75          1           0       -3.576328   -3.693728   -0.873473
     76          1           0       -3.576101   -3.689662    0.894680
     77          6           0       -5.174511   -4.852025    0.013479
     78          1           0       -5.838443   -4.797060    0.896298
     79          1           0       -5.838939   -4.800898   -0.869197
     80          6           0       -4.426849   -6.187701    0.016192
     81          1           0       -3.780282   -6.282788    0.905383
     82          1           0       -3.781204   -6.286931   -0.873216
     83          6           0       -7.440366    0.428492   -0.000875
     84          1           0       -1.702289    7.417721   -0.014403
     85          1           0       -5.124923   -7.040338    0.018547
     86          6           0       -8.859362    0.545027   -0.001886
     87          6           0       -9.473699    1.817880   -0.004495
     88          6           0      -10.862968    1.926674   -0.005405
     89          6           0      -11.660894    0.776181   -0.003781
     90          6           0      -11.062419   -0.489672   -0.001237
     91          6           0       -9.674144   -0.609891   -0.000314
     92          1           0      -12.749601    0.866229   -0.004509
     93          1           0      -11.683198   -1.388478    0.000025
     94          1           0       -8.846798    2.711348   -0.005757
     95          1           0       -9.202266   -1.594086    0.001655
     96          1           0      -11.328202    2.914996   -0.007402
 ---------------------------------------------------------------------
 Rotational constants (GHZ):      0.0912511      0.0212228      0.0172478
 Leave Link  202 at Wed May 15 11:07:14 2024, MaxMem=    33554432 cpu:         0.0
 (Enter /hits/basement/its/doserbd/software/gaussian/g09d1/g09/l301.exe)
 Standard basis: 6-31+G (6D, 7F)
 Ernie: Thresh=  0.10000D-02 Tol=  0.10000D-05 Strict=F.
 There are   698 symmetry adapted cartesian basis functions of A   symmetry.
 There are   698 symmetry adapted basis functions of A   symmetry.
   698 basis functions,  1396 primitive gaussians,   698 cartesian basis functions
   163 alpha electrons      163 beta electrons
       nuclear repulsion energy      4675.2101001158 Hartrees.
 IExCor= 3226 DFT=T Ex+Corr=BMK ExCW=0 ScaHFX=  0.420000
 ScaDFX=  1.000000  1.000000  1.000000  1.000000 ScalE2=  1.000000  1.000000
 IRadAn=      0 IRanWt=     -1 IRanGd=            0 ICorTp=0 IEmpDi=  4
 NAtoms=   96 NActive=   96 NUniq=   96 SFac= 1.00D+00 NAtFMM=   60 NAOKFM=T Big=T
 Integral buffers will be    131072 words long.
 Raffenetti 2 integral format.
 Two-electron integral symmetry is turned on.
 Leave Link  301 at Wed May 15 11:07:14 2024, MaxMem=    33554432 cpu:         0.3
 (Enter /hits/basement/its/doserbd/software/gaussian/g09d1/g09/l302.exe)
 NPDir=0 NMtPBC=     1 NCelOv=     1 NCel=       1 NClECP=     1 NCelD=      1
         NCelK=      1 NCelE2=     1 NClLst=     1 CellRange=     0.0.
 One-electron integrals computed using PRISM.
 PrsmSu:  requested number of processors reduced to:   7 ShMem   1 Linda.
 NBasis=   698 RedAO= T EigKep=  1.42D-06  NBF=   698
 NBsUse=   673 1.00D-06 EigRej=  7.76D-07 NBFU=   673
 Precomputing XC quadrature grid using
 IXCGrd= 4 IRadAn=           0 IRanWt=          -1 IRanGd=           0 AccXCQ= 0.00D+00.
 Generated NRdTot=       0 NPtTot=           0 NUsed=           0 NTot=          32
 NSgBfM=   636   637   641   641   641 MxSgAt=    96 MxSgA2=    96.
 Leave Link  302 at Wed May 15 11:07:16 2024, MaxMem=    33554432 cpu:        11.0
 (Enter /hits/basement/its/doserbd/software/gaussian/g09d1/g09/l303.exe)
 DipDrv:  MaxL=1.
 Leave Link  303 at Wed May 15 11:07:16 2024, MaxMem=    33554432 cpu:         0.6
 (Enter /hits/basement/its/doserbd/software/gaussian/g09d1/g09/l401.exe)
 ExpMin= 4.38D-02 ExpMax= 3.05D+03 ExpMxC= 4.57D+02 IAcc=2 IRadAn=         4 AccDes= 0.00D+00
 Harris functional with IExCor= 1009 and IRadAn=       4 diagonalized for initial guess.
 HarFok:  IExCor= 1009 AccDes= 0.00D+00 IRadAn=         4 IDoV= 1 UseB2=F ITyADJ=14
 ICtDFT=  3500011 ScaDFX=  1.000000  1.000000  1.000000  1.000000
 FoFCou: FMM=F IPFlag=           0 FMFlag=      100000 FMFlg1=        2001
         NFxFlg=           0 DoJE=T BraDBF=F KetDBF=T FulRan=T
         wScrn=  0.000000 ICntrl=     500 IOpCl=  0 I1Cent=   200000004 NGrid=           0
         NMat0=    1 NMatS0=      1 NMatT0=    0 NMatD0=    1 NMtDS0=    0 NMtDT0=    0
 Petite list used in FoFCou.
 Harris En= -1780.94034459053    
 JPrj=0 DoOrth=F DoCkMO=F.
 Leave Link  401 at Wed May 15 11:07:20 2024, MaxMem=    33554432 cpu:        35.1
 (Enter /hits/basement/its/doserbd/software/gaussian/g09d1/g09/l502.exe)
 Closed shell SCF:
 Using DIIS extrapolation, IDIIS=  1040.
 Integral symmetry usage will be decided dynamically.
 IVT=     1491108 IEndB=     1491108 NGot=    33554432 MDV=    32567867
 LenX=    32567867 LenY=    32079965
 Requested convergence on RMS density matrix=1.00D-08 within 128 cycles.
 Requested convergence on MAX density matrix=1.00D-06.
 Requested convergence on             energy=1.00D-06.
 No special actions if energy rises.
 Fock matrices will be formed incrementally for  20 cycles.

 Cycle   1  Pass 1  IDiag  1:
 FoFJK:  IHMeth= 1 ICntrl=       0 DoSepK=F KAlg= 0 I1Cent=   0 FoldK=F
 IRaf= 710000000 NMat=   1 IRICut=       1 DoRegI=T DoRafI=F ISym2E= 0.
 FoFCou: FMM=T IPFlag=           0 FMFlag=      100000 FMFlg1=        2001
         NFxFlg=           0 DoJE=F BraDBF=F KetDBF=F FulRan=T
         wScrn=  0.000000 ICntrl=       0 IOpCl=  0 I1Cent=           0 NGrid=           0
         NMat0=    1 NMatS0=      1 NMatT0=    0 NMatD0=    1 NMtDS0=    0 NMtDT0=    0
 Symmetry not used in FoFCou.
 FMM levels:  10  Number of levels for PrismC:   9
 E= -1780.33746776468    
 DIIS: error= 3.87D-02 at cycle   1 NSaved=   1.
 NSaved= 1 IEnMin= 1 EnMin= -1780.33746776468     IErMin= 1 ErrMin= 3.87D-02
 ErrMax= 3.87D-02  0.00D+00 EMaxC= 1.00D-01 BMatC= 7.89D-01 BMatP= 7.89D-01
 IDIUse=3 WtCom= 6.13D-01 WtEn= 3.87D-01
 Coeff-Com:  0.100D+01
 Coeff-En:   0.100D+01
 Coeff:      0.100D+01
 Gap=     0.161 Goal=   None    Shift=    0.000
 GapD=    0.161 DampG=1.000 DampE=0.500 DampFc=0.5000 IDamp=-1.
 Damping current iteration by 5.00D-01
 RMSDP=5.75D-02 MaxDP=6.31D+00              OVMax= 1.39D-01

 Cycle   2  Pass 1  IDiag  1:
 RMSU=  2.09D-02    CP:  1.27D+00
 E= -1780.83208591362     Delta-E=       -0.494618148949 Rises=F Damp=T
 DIIS: error= 8.18D-03 at cycle   2 NSaved=   2.
 NSaved= 2 IEnMin= 2 EnMin= -1780.83208591362     IErMin= 2 ErrMin= 8.18D-03
 ErrMax= 8.18D-03  0.00D+00 EMaxC= 1.00D-01 BMatC= 3.02D-02 BMatP= 7.89D-01
 IDIUse=3 WtCom= 9.18D-01 WtEn= 8.18D-02
 Coeff-Com: -0.926D-01 0.109D+01
 Coeff-En:   0.000D+00 0.100D+01
 Coeff:     -0.851D-01 0.109D+01
 Gap=     0.159 Goal=   None    Shift=    0.000
 RMSDP=1.61D-02 MaxDP=2.10D+00 DE=-4.95D-01 OVMax= 5.91D-02

 Cycle   3  Pass 1  IDiag  1:
 RMSU=  1.58D-02    CP:  1.30D+00  9.59D-01
 E= -1781.27500085202     Delta-E=       -0.442914938398 Rises=F Damp=F
 DIIS: error= 3.05D-03 at cycle   3 NSaved=   3.
 NSaved= 3 IEnMin= 3 EnMin= -1781.27500085202     IErMin= 3 ErrMin= 3.05D-03
 ErrMax= 3.05D-03  0.00D+00 EMaxC= 1.00D-01 BMatC= 5.15D-03 BMatP= 3.02D-02
 IDIUse=3 WtCom= 9.70D-01 WtEn= 3.05D-02
 Coeff-Com: -0.377D-01 0.295D+00 0.743D+00
 Coeff-En:   0.000D+00 0.000D+00 0.100D+01
 Coeff:     -0.366D-01 0.286D+00 0.751D+00
 Gap=     0.160 Goal=   None    Shift=    0.000
 RMSDP=2.13D-03 MaxDP=1.56D-01 DE=-4.43D-01 OVMax= 2.70D-02

 Cycle   4  Pass 1  IDiag  1:
 RMSU=  1.67D-03    CP:  1.32D+00  9.89D-01  9.76D-01
 E= -1781.27966390916     Delta-E=       -0.004663057140 Rises=F Damp=F
 DIIS: error= 2.48D-03 at cycle   4 NSaved=   4.
 NSaved= 4 IEnMin= 4 EnMin= -1781.27966390916     IErMin= 4 ErrMin= 2.48D-03
 ErrMax= 2.48D-03  0.00D+00 EMaxC= 1.00D-01 BMatC= 1.42D-03 BMatP= 5.15D-03
 IDIUse=3 WtCom= 9.75D-01 WtEn= 2.48D-02
 Coeff-Com: -0.338D-02 0.257D-01 0.344D+00 0.633D+00
 Coeff-En:   0.000D+00 0.000D+00 0.182D+00 0.818D+00
 Coeff:     -0.329D-02 0.250D-01 0.340D+00 0.638D+00
 Gap=     0.160 Goal=   None    Shift=    0.000
 RMSDP=1.33D-03 MaxDP=1.68D-01 DE=-4.66D-03 OVMax= 1.25D-02

 Cycle   5  Pass 1  IDiag  1:
 RMSU=  5.83D-04    CP:  1.31D+00  9.71D-01  9.77D-01  7.10D-01
 E= -1781.28124453740     Delta-E=       -0.001580628234 Rises=F Damp=F
 DIIS: error= 1.09D-03 at cycle   5 NSaved=   5.
 NSaved= 5 IEnMin= 5 EnMin= -1781.28124453740     IErMin= 5 ErrMin= 1.09D-03
 ErrMax= 1.09D-03  0.00D+00 EMaxC= 1.00D-01 BMatC= 2.15D-04 BMatP= 1.42D-03
 IDIUse=3 WtCom= 9.89D-01 WtEn= 1.09D-02
 Coeff-Com:  0.111D-02-0.467D-02 0.151D+00 0.372D+00 0.481D+00
 Coeff-En:   0.000D+00 0.000D+00 0.000D+00 0.201D-01 0.980D+00
 Coeff:      0.109D-02-0.461D-02 0.149D+00 0.368D+00 0.486D+00
 Gap=     0.160 Goal=   None    Shift=    0.000
 RMSDP=2.20D-04 MaxDP=2.10D-02 DE=-1.58D-03 OVMax= 3.94D-03

 Cycle   6  Pass 1  IDiag  1:
 RMSU=  1.36D-04    CP:  1.31D+00  9.67D-01  9.82D-01  7.45D-01  8.24D-01
 E= -1781.28148087012     Delta-E=       -0.000236332727 Rises=F Damp=F
 DIIS: error= 2.28D-04 at cycle   6 NSaved=   6.
 NSaved= 6 IEnMin= 6 EnMin= -1781.28148087012     IErMin= 6 ErrMin= 2.28D-04
 ErrMax= 2.28D-04  0.00D+00 EMaxC= 1.00D-01 BMatC= 1.47D-05 BMatP= 2.15D-04
 IDIUse=3 WtCom= 9.98D-01 WtEn= 2.28D-03
 Coeff-Com:  0.118D-02-0.515D-02 0.476D-01 0.141D+00 0.259D+00 0.557D+00
 Coeff-En:   0.000D+00 0.000D+00 0.000D+00 0.000D+00 0.000D+00 0.100D+01
 Coeff:      0.117D-02-0.514D-02 0.475D-01 0.140D+00 0.258D+00 0.558D+00
 Gap=     0.160 Goal=   None    Shift=    0.000
 RMSDP=6.64D-05 MaxDP=5.71D-03 DE=-2.36D-04 OVMax= 1.41D-03

 Cycle   7  Pass 1  IDiag  1:
 RMSU=  4.40D-05    CP:  1.31D+00  9.65D-01  9.83D-01  7.56D-01  8.26D-01
                    CP:  9.04D-01
 E= -1781.28149427050     Delta-E=       -0.000013400382 Rises=F Damp=F
 DIIS: error= 1.08D-04 at cycle   7 NSaved=   7.
 NSaved= 7 IEnMin= 7 EnMin= -1781.28149427050     IErMin= 7 ErrMin= 1.08D-04
 ErrMax= 1.08D-04  0.00D+00 EMaxC= 1.00D-01 BMatC= 3.27D-06 BMatP= 1.47D-05
 IDIUse=3 WtCom= 9.99D-01 WtEn= 1.08D-03
 Coeff-Com:  0.614D-03-0.241D-02-0.398D-02 0.699D-02 0.565D-01 0.351D+00
 Coeff-Com:  0.592D+00
 Coeff-En:   0.000D+00 0.000D+00 0.000D+00 0.000D+00 0.000D+00 0.173D+00
 Coeff-En:   0.827D+00
 Coeff:      0.613D-03-0.241D-02-0.398D-02 0.698D-02 0.564D-01 0.350D+00
 Coeff:      0.592D+00
 Gap=     0.160 Goal=   None    Shift=    0.000
 RMSDP=4.65D-05 MaxDP=5.77D-03 DE=-1.34D-05 OVMax= 4.84D-04

 Cycle   8  Pass 1  IDiag  1:
[...]
 Inversion failed.  Reducing to 15 matrices.
 Coeff-Com: -0.184D-02-0.661D-02-0.119D-01 0.377D-01 0.394D+00 0.103D+01
 Coeff-Com: -0.961D+00 0.100D+01-0.562D+00 0.305D+00-0.252D+00 0.198D-01
 Coeff-Com: -0.378D-01 0.925D-01-0.500D-01
 Coeff:     -0.184D-02-0.661D-02-0.119D-01 0.377D-01 0.394D+00 0.103D+01
 Coeff:     -0.961D+00 0.100D+01-0.562D+00 0.305D+00-0.252D+00 0.198D-01
 Coeff:     -0.378D-01 0.925D-01-0.500D-01
 Gap=     0.170 Goal=   None    Shift=    0.000
 RMSDP=5.70D-08 MaxDP=7.52D-06 DE= 9.16D-10 OVMax= 3.49D-09

 Cycle 112  Pass 1  IDiag  1:
 RMSU=  1.39D-08    CP:  1.00D+00  1.05D+00  7.40D-01  7.55D-01 -8.82D-01
                    CP:  2.66D-01  6.06D-01  4.75D-01  1.74D-01 -4.86D-01
                    CP:  8.62D-01
 E= -1781.29989712080     Delta-E=       -0.000000000457 Rises=F Damp=F
 DIIS: error= 1.38D-07 at cycle 112 NSaved=  16.
 NSaved=16 IEnMin=10 EnMin= -1781.29989712373     IErMin= 9 ErrMin= 1.80D-08
 ErrMax= 1.38D-07  0.00D+00 EMaxC= 1.00D+00 BMatC= 4.54D-12 BMatP= 1.08D-13
 IDIUse=1 WtCom= 1.00D+00 WtEn= 0.00D+00
 Large coefficients: NSaved= 16 BigCof=    0.00 CofMax=   10.00 Det=-4.50D-15
 Inversion failed.  Reducing to 15 matrices.
 Coeff-Com: -0.186D-02-0.667D-02-0.121D-01 0.378D-01 0.396D+00 0.104D+01
 Coeff-Com: -0.967D+00 0.100D+01-0.554D+00 0.268D+00-0.223D+00 0.373D-01
 Coeff-Com: -0.231D-01-0.558D-01 0.652D-01
 Coeff:     -0.186D-02-0.667D-02-0.121D-01 0.378D-01 0.396D+00 0.104D+01
 Coeff:     -0.967D+00 0.100D+01-0.554D+00 0.268D+00-0.223D+00 0.373D-01
 Coeff:     -0.231D-01-0.558D-01 0.652D-01
 Gap=     0.170 Goal=   None    Shift=    0.000
 RMSDP=4.68D-08 MaxDP=4.87D-06 DE=-4.57D-10 OVMax= 3.05D-09

 Cycle 113  Pass 1  IDiag  1:
 RMSU=  1.01D-08    CP:  1.00D+00  8.85D-01  7.20D-01  6.66D-01 -3.37D-01
                    CP:  1.93D-01  8.31D-01  7.50D-01  4.06D-02 -1.83D-01
                    CP:  2.99D-01 -5.68D-04
 E= -1781.29989712098     Delta-E=       -0.000000000180 Rises=F Damp=F
 DIIS: error= 1.39D-07 at cycle 113 NSaved=  16.
 NSaved=16 IEnMin=10 EnMin= -1781.29989712373     IErMin= 9 ErrMin= 1.80D-08
 ErrMax= 1.39D-07  0.00D+00 EMaxC= 1.00D+00 BMatC= 4.46D-12 BMatP= 1.08D-13
 IDIUse=1 WtCom= 1.00D+00 WtEn= 0.00D+00
 Large coefficients: NSaved= 16 BigCof=    0.00 CofMax=   10.00 Det=-4.51D-15
 Inversion failed.  Reducing to 15 matrices.
 Coeff-Com: -0.186D-02-0.673D-02-0.125D-01 0.374D-01 0.396D+00 0.104D+01
 Coeff-Com: -0.976D+00 0.102D+01-0.561D+00 0.240D+00-0.197D+00 0.492D-01
 Coeff-Com: -0.157D-01 0.870D-01-0.980D-01
 Coeff:     -0.186D-02-0.673D-02-0.125D-01 0.374D-01 0.396D+00 0.104D+01
 Coeff:     -0.976D+00 0.102D+01-0.561D+00 0.240D+00-0.197D+00 0.492D-01
 Coeff:     -0.157D-01 0.870D-01-0.980D-01
 Gap=     0.170 Goal=   None    Shift=    0.000
 RMSDP=6.17D-08 MaxDP=7.48D-06 DE=-1.80D-10 OVMax= 3.47D-09

 Cycle 114  Pass 1  IDiag  1:
 RMSU=  2.20D-08    CP:  1.00D+00  6.19D-01  1.24D+00  6.16D-01 -6.84D-01
                    CP:  3.10D-01  6.49D-01  2.61D-01  1.39D-01  7.22D-01
                    CP: -4.11D-02 -9.11D-01  1.38D+00
 E= -1781.29989712142     Delta-E=       -0.000000000437 Rises=F Damp=F
 DIIS: error= 1.41D-07 at cycle 114 NSaved=  16.
 NSaved=16 IEnMin=10 EnMin= -1781.29989712373     IErMin= 9 ErrMin= 1.80D-08
 ErrMax= 1.41D-07  0.00D+00 EMaxC= 1.00D+00 BMatC= 4.49D-12 BMatP= 1.08D-13
 IDIUse=1 WtCom= 1.00D+00 WtEn= 0.00D+00
 Large coefficients: NSaved= 16 BigCof=    0.00 CofMax=   10.00 Det=-4.53D-15
 Inversion failed.  Reducing to 15 matrices.
 Coeff-Com: -0.184D-02-0.662D-02-0.121D-01 0.372D-01 0.391D+00 0.102D+01
 Coeff-Com: -0.962D+00 0.991D+00-0.559D+00 0.321D+00-0.246D+00 0.629D-01
 Coeff-Com:  0.113D-02-0.144D+00 0.103D+00
 Coeff:     -0.184D-02-0.662D-02-0.121D-01 0.372D-01 0.391D+00 0.102D+01
 Coeff:     -0.962D+00 0.991D+00-0.559D+00 0.321D+00-0.246D+00 0.629D-01
 Coeff:      0.113D-02-0.144D+00 0.103D+00
 Gap=     0.170 Goal=   None    Shift=    0.000
 RMSDP=1.32D-07 MaxDP=1.97D-05 DE=-4.37D-10 OVMax= 7.19D-09

 Cycle 115  Pass 1  IDiag  1:
 RMSU=  3.06D-08    CP:  1.00D+00  8.41D-01  2.83D-01  1.85D+00 -3.00D+00
                    CP: -1.31D-01  1.21D+00 -2.02D-01  4.41D-02 -3.81D-01
                    CP:  5.14D-01 -1.79D+00 -2.28D+00 -1.38D-01
 E= -1781.29989712048     Delta-E=        0.000000000936 Rises=F Damp=F
 DIIS: error= 1.37D-07 at cycle 115 NSaved=  16.
 NSaved=16 IEnMin=10 EnMin= -1781.29989712373     IErMin= 9 ErrMin= 1.80D-08
 ErrMax= 1.37D-07  0.00D+00 EMaxC= 1.00D+00 BMatC= 4.80D-12 BMatP= 1.08D-13
 IDIUse=1 WtCom= 1.00D+00 WtEn= 0.00D+00
 Large coefficients: NSaved= 16 BigCof=    0.00 CofMax=   10.00 Det=-4.51D-15
 Inversion failed.  Reducing to 15 matrices.
 Coeff-Com: -0.185D-02-0.671D-02-0.125D-01 0.373D-01 0.395D+00 0.104D+01
 Coeff-Com: -0.970D+00 0.104D+01-0.607D+00 0.268D+00-0.204D+00 0.274D-01
 Coeff-Com: -0.456D-01-0.270D-01 0.679D-01
 Coeff:     -0.185D-02-0.671D-02-0.125D-01 0.373D-01 0.395D+00 0.104D+01
 Coeff:     -0.970D+00 0.104D+01-0.607D+00 0.268D+00-0.204D+00 0.274D-01
 Coeff:     -0.456D-01-0.270D-01 0.679D-01
 Gap=     0.170 Goal=   None    Shift=    0.000
 RMSDP=1.80D-07 MaxDP=2.45D-05 DE= 9.36D-10 OVMax= 1.09D-08

 Cycle 116  Pass 1  IDiag  1:
 RMSU=  1.17D-08    CP:  1.00D+00  5.70D-01  1.52D+00  5.19D-01 -2.19D+00
                    CP:  3.04D-01 -6.51D-01  9.67D-01  1.87D-02  6.43D-01
                    CP: -3.53D-01 -5.03D-01 -1.14D+00  2.19D+00 -1.29D-01
 E= -1781.29989712050     Delta-E=       -0.000000000021 Rises=F Damp=F
 DIIS: error= 1.40D-07 at cycle 116 NSaved=  16.
 NSaved=16 IEnMin=10 EnMin= -1781.29989712373     IErMin= 9 ErrMin= 1.80D-08
 ErrMax= 1.40D-07  0.00D+00 EMaxC= 1.00D+00 BMatC= 4.82D-12 BMatP= 1.08D-13
 IDIUse=1 WtCom= 1.00D+00 WtEn= 0.00D+00
 Large coefficients: NSaved= 16 BigCof=    0.00 CofMax=   10.00 Det=-4.49D-15
 Inversion failed.  Reducing to 15 matrices.
 Coeff-Com: -0.185D-02-0.668D-02-0.123D-01 0.375D-01 0.395D+00 0.104D+01
 Coeff-Com: -0.963D+00 0.102D+01-0.596D+00 0.275D+00-0.214D+00 0.176D-01
 Coeff-Com: -0.601D-01 0.564D-01 0.934D-02
 Coeff:     -0.185D-02-0.668D-02-0.123D-01 0.375D-01 0.395D+00 0.104D+01
 Coeff:     -0.963D+00 0.102D+01-0.596D+00 0.275D+00-0.214D+00 0.176D-01
 Coeff:     -0.601D-01 0.564D-01 0.934D-02
 Gap=     0.170 Goal=   None    Shift=    0.000
 RMSDP=3.99D-08 MaxDP=5.79D-06 DE=-2.09D-11 OVMax= 2.16D-09

 Cycle 117  Pass 1  IDiag  1:
 RMSU=  7.43D-09    CP:  1.00D+00  6.71D-01  1.04D+00  7.23D-01 -2.08D+00
                    CP:  1.72D-01 -8.40D-01  9.31D-01 -1.16D-01  1.39D-01
                    CP: -2.90D-01 -9.06D-01 -1.63D+00  1.66D+00  3.74D-02
                    CP:  6.72D-01
 E= -1781.29989712044     Delta-E=        0.000000000060 Rises=F Damp=F
 DIIS: error= 1.39D-07 at cycle 117 NSaved=  16.
 NSaved=16 IEnMin=10 EnMin= -1781.29989712373     IErMin= 9 ErrMin= 1.80D-08
 ErrMax= 1.39D-07  0.00D+00 EMaxC= 1.00D+00 BMatC= 4.81D-12 BMatP= 1.08D-13
 IDIUse=1 WtCom= 1.00D+00 WtEn= 0.00D+00
 Large coefficients: NSaved= 16 BigCof=    0.00 CofMax=   10.00 Det=-4.46D-15
 Inversion failed.  Reducing to 15 matrices.
 Coeff-Com: -0.184D-02-0.673D-02-0.127D-01 0.369D-01 0.394D+00 0.104D+01
 Coeff-Com: -0.967D+00 0.105D+01-0.620D+00 0.249D+00-0.179D+00 0.296D-01
 Coeff-Com: -0.733D-01-0.126D+00 0.192D+00
 Coeff:     -0.184D-02-0.673D-02-0.127D-01 0.369D-01 0.394D+00 0.104D+01
 Coeff:     -0.967D+00 0.105D+01-0.620D+00 0.249D+00-0.179D+00 0.296D-01
 Coeff:     -0.733D-01-0.126D+00 0.192D+00
 Gap=     0.170 Goal=   None    Shift=    0.000
 RMSDP=9.84D-08 MaxDP=1.20D-05 DE= 6.00D-11 OVMax= 5.08D-09

 Cycle 118  Pass 1  IDiag  1:
 RMSU=  3.82D-08    CP:  1.00D+00  3.51D-01  2.11D+00  4.32D-01 -1.89D+00
                    CP:  4.24D-01 -8.93D-01  9.31D-01 -5.56D-01  9.43D-01
                    CP:  2.29D-02  4.56D-01  7.55D-02  2.72D+00  1.49D-01
                    CP:  1.78D-01 -5.31D-01
 E= -1781.29989712045     Delta-E=       -0.000000000014 Rises=F Damp=F
 DIIS: error= 1.43D-07 at cycle 118 NSaved=  16.
 NSaved=16 IEnMin=10 EnMin= -1781.29989712373     IErMin= 9 ErrMin= 1.80D-08
 ErrMax= 1.43D-07  0.00D+00 EMaxC= 1.00D+00 BMatC= 4.79D-12 BMatP= 1.08D-13
 IDIUse=1 WtCom= 1.00D+00 WtEn= 0.00D+00
 Large coefficients: NSaved= 16 BigCof=    0.00 CofMax=   10.00 Det=-4.46D-15
 Inversion failed.  Reducing to 15 matrices.
 Coeff-Com: -0.185D-02-0.675D-02-0.127D-01 0.370D-01 0.395D+00 0.104D+01
 Coeff-Com: -0.970D+00 0.105D+01-0.611D+00 0.240D+00-0.178D+00 0.272D-01
 Coeff-Com: -0.658D-01 0.114D+00-0.528D-01
 Coeff:     -0.185D-02-0.675D-02-0.127D-01 0.370D-01 0.395D+00 0.104D+01
 Coeff:     -0.970D+00 0.105D+01-0.611D+00 0.240D+00-0.178D+00 0.272D-01
 Coeff:     -0.658D-01 0.114D+00-0.528D-01
 Gap=     0.170 Goal=   None    Shift=    0.000
 RMSDP=2.90D-08 MaxDP=2.67D-06 DE=-1.36D-11 OVMax= 1.95D-09

 Cycle 119  Pass 1  IDiag  1:
 RMSU=  1.56D-08    CP:  1.00D+00  4.36D-01  2.16D+00  4.61D-01 -2.18D+00
                    CP:  5.28D-01 -6.46D-01  7.81D-01 -6.51D-01  8.70D-01
                    CP:  2.91D-02  5.37D-01  3.18D-01  2.79D+00  9.48D-02
                    CP:  9.67D-02  6.49D-01  8.77D-01
 E= -1781.29989712096     Delta-E=       -0.000000000502 Rises=F Damp=F
 DIIS: error= 1.44D-07 at cycle 119 NSaved=  16.
 NSaved=16 IEnMin=10 EnMin= -1781.29989712373     IErMin= 9 ErrMin= 1.80D-08
 ErrMax= 1.44D-07  0.00D+00 EMaxC= 1.00D+00 BMatC= 4.80D-12 BMatP= 1.08D-13
 IDIUse=1 WtCom= 1.00D+00 WtEn= 0.00D+00
 Large coefficients: NSaved= 16 BigCof=    0.00 CofMax=   10.00 Det=-4.47D-15
 Inversion failed.  Reducing to 15 matrices.
 Coeff-Com: -0.183D-02-0.668D-02-0.126D-01 0.366D-01 0.390D+00 0.102D+01
 Coeff-Com: -0.948D+00 0.105D+01-0.590D+00 0.215D+00-0.179D+00 0.319D-01
 Coeff-Com: -0.481D-01-0.167D+00 0.206D+00
 Coeff:     -0.183D-02-0.668D-02-0.126D-01 0.366D-01 0.390D+00 0.102D+01
 Coeff:     -0.948D+00 0.105D+01-0.590D+00 0.215D+00-0.179D+00 0.319D-01
 Coeff:     -0.481D-01-0.167D+00 0.206D+00
 Gap=     0.170 Goal=   None    Shift=    0.000
 RMSDP=1.26D-07 MaxDP=1.33D-05 DE=-5.02D-10 OVMax= 8.24D-09

 Cycle 120  Pass 1  IDiag  1:
 RMSU=  4.28D-08    CP:  1.00D+00  5.28D-01  2.79D+00 -4.96D-01  1.44D+00
                    CP:  8.53D-01  4.06D-01  1.25D-01  1.77D-01  1.42D-01
                    CP:  2.13D-01  1.64D+00  1.22D-01  7.85D-01 -3.04D-01
                    CP: -4.58D-01 -1.17D+00  7.30D-01 -1.71D-01
 E= -1781.29989712107     Delta-E=       -0.000000000114 Rises=F Damp=F
 DIIS: error= 1.41D-07 at cycle 120 NSaved=  16.
 NSaved=16 IEnMin=10 EnMin= -1781.29989712373     IErMin= 9 ErrMin= 1.80D-08
 ErrMax= 1.41D-07  0.00D+00 EMaxC= 1.00D+00 BMatC= 4.54D-12 BMatP= 1.08D-13
 IDIUse=1 WtCom= 1.00D+00 WtEn= 0.00D+00
 Large coefficients: NSaved= 16 BigCof=    0.00 CofMax=   10.00 Det=-4.51D-15
 Inversion failed.  Reducing to 15 matrices.
 Coeff-Com: -0.184D-02-0.676D-02-0.130D-01 0.363D-01 0.391D+00 0.103D+01
 Coeff-Com: -0.971D+00 0.105D+01-0.590D+00 0.218D+00-0.165D+00 0.555D-01
 Coeff-Com: -0.233D-01 0.774D-01-0.885D-01
 Coeff:     -0.184D-02-0.676D-02-0.130D-01 0.363D-01 0.391D+00 0.103D+01
 Coeff:     -0.971D+00 0.105D+01-0.590D+00 0.218D+00-0.165D+00 0.555D-01
 Coeff:     -0.233D-01 0.774D-01-0.885D-01
 Gap=     0.170 Goal=   None    Shift=    0.000
 RMSDP=1.17D-07 MaxDP=1.27D-05 DE=-1.14D-10 OVMax= 7.90D-09

 Cycle 121  Pass 1  IDiag  1:
 Restarting incremental Fock formation.
 E= -1781.29989712142     Delta-E=       -0.000000000355 Rises=F Damp=F
 DIIS: error= 1.39D-07 at cycle 121 NSaved=  16.
 NSaved=16 IEnMin=10 EnMin= -1781.29989712373     IErMin= 9 ErrMin= 1.80D-08
 ErrMax= 1.39D-07  0.00D+00 EMaxC= 1.00D+00 BMatC= 4.47D-12 BMatP= 1.08D-13
 IDIUse=1 WtCom= 1.00D+00 WtEn= 0.00D+00
 Large coefficients: NSaved= 16 BigCof=    0.00 CofMax=   10.00 Det=-4.50D-15
 Inversion failed.  Reducing to 15 matrices.
 Coeff-Com: -0.182D-02-0.661D-02-0.123D-01 0.366D-01 0.388D+00 0.102D+01
 Coeff-Com: -0.949D+00 0.106D+01-0.617D+00 0.252D+00-0.189D+00 0.297D-01
 Coeff-Com: -0.584D-01-0.106D+00 0.158D+00
 Coeff:     -0.182D-02-0.661D-02-0.123D-01 0.366D-01 0.388D+00 0.102D+01
 Coeff:     -0.949D+00 0.106D+01-0.617D+00 0.252D+00-0.189D+00 0.297D-01
 Coeff:     -0.584D-01-0.106D+00 0.158D+00
 Gap=     0.170 Goal=   None    Shift=    0.000
 RMSDP=1.23D-07 MaxDP=1.60D-05 DE=-3.55D-10 OVMax= 8.36D-09

 Cycle 122  Pass 1  IDiag  1:
 RMSU=  1.23D-07    CP:  1.00D+00
 E= -1781.29989712137     Delta-E=        0.000000000055 Rises=F Damp=F
 DIIS: error= 1.39D-07 at cycle 122 NSaved=  16.
 NSaved=16 IEnMin=10 EnMin= -1781.29989712373     IErMin= 9 ErrMin= 1.80D-08
 ErrMax= 1.39D-07  0.00D+00 EMaxC= 1.00D+00 BMatC= 4.46D-12 BMatP= 1.08D-13
 IDIUse=1 WtCom= 1.00D+00 WtEn= 0.00D+00
 Large coefficients: NSaved= 16 BigCof=    0.00 CofMax=   10.00 Det=-4.51D-15
 Inversion failed.  Reducing to 15 matrices.
 Coeff-Com: -0.184D-02-0.659D-02-0.118D-01 0.379D-01 0.395D+00 0.103D+01
 Coeff-Com: -0.952D+00 0.100D+01-0.571D+00 0.291D+00-0.235D+00 0.195D-01
 Coeff-Com: -0.563D-01 0.990D-01-0.379D-01
 Coeff:     -0.184D-02-0.659D-02-0.118D-01 0.379D-01 0.395D+00 0.103D+01
 Coeff:     -0.952D+00 0.100D+01-0.571D+00 0.291D+00-0.235D+00 0.195D-01
 Coeff:     -0.563D-01 0.990D-01-0.379D-01
 Gap=     0.170 Goal=   None    Shift=    0.000
 RMSDP=1.67D-07 MaxDP=2.51D-05 DE= 5.46D-11 OVMax= 8.72D-09

 Cycle 123  Pass 1  IDiag  1:
 RMSU=  1.62D-07    CP:  1.00D+00  8.66D-01
 E= -1781.29989712134     Delta-E=        0.000000000029 Rises=F Damp=F
 DIIS: error= 1.39D-07 at cycle 123 NSaved=  16.
 NSaved=16 IEnMin=10 EnMin= -1781.29989712373     IErMin= 9 ErrMin= 1.80D-08
 ErrMax= 1.39D-07  0.00D+00 EMaxC= 1.00D+00 BMatC= 4.45D-12 BMatP= 1.08D-13
 IDIUse=1 WtCom= 1.00D+00 WtEn= 0.00D+00
 Large coefficients: NSaved= 16 BigCof=    0.00 CofMax=   10.00 Det=-4.53D-15
 Inversion failed.  Reducing to 15 matrices.
 Coeff-Com: -0.184D-02-0.661D-02-0.119D-01 0.378D-01 0.395D+00 0.103D+01
 Coeff-Com: -0.951D+00 0.997D+00-0.567D+00 0.279D+00-0.225D+00 0.244D-01
 Coeff-Com: -0.528D-01 0.508D-01 0.202D-02
 Coeff:     -0.184D-02-0.661D-02-0.119D-01 0.378D-01 0.395D+00 0.103D+01
 Coeff:     -0.951D+00 0.997D+00-0.567D+00 0.279D+00-0.225D+00 0.244D-01
 Coeff:     -0.528D-01 0.508D-01 0.202D-02
 Gap=     0.170 Goal=   None    Shift=    0.000
 RMSDP=2.60D-08 MaxDP=3.10D-06 DE= 2.91D-11 OVMax= 1.60D-09

 Cycle 124  Pass 1  IDiag  1:
 RMSU=  1.94D-08    CP:  1.00D+00  8.32D-01  1.08D+00
 E= -1781.29989712148     Delta-E=       -0.000000000136 Rises=F Damp=F
 DIIS: error= 1.38D-07 at cycle 124 NSaved=  16.
 NSaved=16 IEnMin=10 EnMin= -1781.29989712373     IErMin= 9 ErrMin= 1.80D-08
 ErrMax= 1.38D-07  0.00D+00 EMaxC= 1.00D+00 BMatC= 4.43D-12 BMatP= 1.08D-13
 IDIUse=1 WtCom= 1.00D+00 WtEn= 0.00D+00
 Large coefficients: NSaved= 16 BigCof=    0.00 CofMax=   10.00 Det=-4.15D-15
 Inversion failed.  Reducing to 15 matrices.
 Coeff-Com: -0.183D-02-0.665D-02-0.124D-01 0.368D-01 0.391D+00 0.102D+01
 Coeff-Com: -0.934D+00 0.992D+00-0.545D+00 0.197D+00-0.163D+00 0.151D-01
 Coeff-Com: -0.684D-01 0.489D+00-0.413D+00
 Coeff:     -0.183D-02-0.665D-02-0.124D-01 0.368D-01 0.391D+00 0.102D+01
 Coeff:     -0.934D+00 0.992D+00-0.545D+00 0.197D+00-0.163D+00 0.151D-01
 Coeff:     -0.684D-01 0.489D+00-0.413D+00
 Gap=     0.170 Goal=   None    Shift=    0.000
 RMSDP=1.12D-07 MaxDP=1.96D-05 DE=-1.36D-10 OVMax= 6.72D-09

 Cycle 125  Pass 1  IDiag  1:
 RMSU=  8.95D-08    CP:  1.00D+00  4.49D-01  8.80D-01  1.61D+00
 E= -1781.29989712126     Delta-E=        0.000000000220 Rises=F Damp=F
 DIIS: error= 1.38D-07 at cycle 125 NSaved=  16.
 NSaved=16 IEnMin=10 EnMin= -1781.29989712373     IErMin= 9 ErrMin= 1.80D-08
 ErrMax= 1.38D-07  0.00D+00 EMaxC= 1.00D+00 BMatC= 4.47D-12 BMatP= 1.08D-13
 IDIUse=1 WtCom= 1.00D+00 WtEn= 0.00D+00
 Large coefficients: NSaved= 16 BigCof=    0.00 CofMax=   10.00 Det=-1.82D-15
 Inversion failed.  Reducing to 15 matrices.
 Coeff-Com: -0.185D-02-0.663D-02-0.120D-01 0.376D-01 0.394D+00 0.103D+01
 Coeff-Com: -0.964D+00 0.100D+01-0.572D+00 0.306D+00-0.236D+00 0.455D-01
 Coeff-Com: -0.963D-02-0.952D-01 0.825D-01
 Coeff:     -0.185D-02-0.663D-02-0.120D-01 0.376D-01 0.394D+00 0.103D+01
 Coeff:     -0.964D+00 0.100D+01-0.572D+00 0.306D+00-0.236D+00 0.455D-01
 Coeff:     -0.963D-02-0.952D-01 0.825D-01
 Gap=     0.170 Goal=   None    Shift=    0.000
 RMSDP=1.02D-07 MaxDP=1.25D-05 DE= 2.20D-10 OVMax= 8.01D-09

 Cycle 126  Pass 1  IDiag  1:
 RMSU=  3.34D-08    CP:  1.00D+00  6.03D-01  9.41D-01  1.56D-01  3.25D-02
 E= -1781.29989712116     Delta-E=        0.000000000099 Rises=F Damp=F
 DIIS: error= 1.40D-07 at cycle 126 NSaved=  16.
 NSaved=16 IEnMin=10 EnMin= -1781.29989712373     IErMin= 9 ErrMin= 1.80D-08
 ErrMax= 1.40D-07  0.00D+00 EMaxC= 1.00D+00 BMatC= 4.45D-12 BMatP= 1.08D-13
 IDIUse=1 WtCom= 1.00D+00 WtEn= 0.00D+00
 Large coefficients: NSaved= 16 BigCof=    0.00 CofMax=   10.00 Det=-4.52D-15
 Inversion failed.  Reducing to 15 matrices.
 Coeff-Com: -0.185D-02-0.664D-02-0.120D-01 0.378D-01 0.395D+00 0.103D+01
 Coeff-Com: -0.958D+00 0.100D+01-0.564D+00 0.277D+00-0.225D+00 0.353D-01
 Coeff-Com: -0.298D-01-0.752D-02 0.259D-01
 Coeff:     -0.185D-02-0.664D-02-0.120D-01 0.378D-01 0.395D+00 0.103D+01
 Coeff:     -0.958D+00 0.100D+01-0.564D+00 0.277D+00-0.225D+00 0.353D-01
 Coeff:     -0.298D-01-0.752D-02 0.259D-01
 Gap=     0.170 Goal=   None    Shift=    0.000
 RMSDP=3.26D-08 MaxDP=3.23D-06 DE= 9.91D-11 OVMax= 2.09D-09

 Cycle 127  Pass 1  IDiag  1:
 RMSU=  1.41D-08    CP:  1.00D+00  7.36D-01  9.75D-01  9.88D-01  9.43D-02
                    CP:  5.24D-01
 E= -1781.29989712153     Delta-E=       -0.000000000368 Rises=F Damp=F
 DIIS: error= 1.38D-07 at cycle 127 NSaved=  16.
 NSaved=16 IEnMin=10 EnMin= -1781.29989712373     IErMin= 9 ErrMin= 1.80D-08
 ErrMax= 1.38D-07  0.00D+00 EMaxC= 1.00D+00 BMatC= 4.42D-12 BMatP= 1.08D-13
 IDIUse=1 WtCom= 1.00D+00 WtEn= 0.00D+00
 Large coefficients: NSaved= 16 BigCof=    0.00 CofMax=   10.00 Det=-4.52D-15
 Inversion failed.  Reducing to 15 matrices.
 Coeff-Com: -0.183D-02-0.670D-02-0.128D-01 0.364D-01 0.390D+00 0.102D+01
 Coeff-Com: -0.950D+00 0.102D+01-0.530D+00 0.160D+00-0.153D+00 0.418D-01
 Coeff-Com: -0.110D-01 0.270D+00-0.279D+00
 Coeff:     -0.183D-02-0.670D-02-0.128D-01 0.364D-01 0.390D+00 0.102D+01
 Coeff:     -0.950D+00 0.102D+01-0.530D+00 0.160D+00-0.153D+00 0.418D-01
 Coeff:     -0.110D-01 0.270D+00-0.279D+00
 Gap=     0.170 Goal=   None    Shift=    0.000
 RMSDP=2.05D-07 MaxDP=3.17D-05 DE=-3.68D-10 OVMax= 1.19D-08

 Cycle 128  Pass 1  IDiag  1:
 RMSU=  9.47D-08    CP:  1.00D+00  7.91D-01 -3.76D-02 -1.09D+00  7.11D-01
                    CP:  1.34D+00  2.74D+00
 E= -1781.29989712163     Delta-E=       -0.000000000106 Rises=F Damp=F
 DIIS: error= 1.39D-07 at cycle 128 NSaved=  16.
 NSaved=16 IEnMin=10 EnMin= -1781.29989712373     IErMin= 9 ErrMin= 1.80D-08
 ErrMax= 1.39D-07  0.00D+00 EMaxC= 1.00D+00 BMatC= 4.51D-12 BMatP= 1.08D-13
 IDIUse=1 WtCom= 1.00D+00 WtEn= 0.00D+00
 Large coefficients: NSaved= 16 BigCof=    0.00 CofMax=   10.00 Det=-4.53D-15
 Inversion failed.  Reducing to 15 matrices.
 Coeff-Com: -0.185D-02-0.668D-02-0.123D-01 0.373D-01 0.394D+00 0.103D+01
 Coeff-Com: -0.965D+00 0.996D+00-0.558D+00 0.279D+00-0.215D+00 0.650D-01
 Coeff-Com:  0.152D-01-0.701D-01 0.121D-01
 Coeff:     -0.185D-02-0.668D-02-0.123D-01 0.373D-01 0.394D+00 0.103D+01
 Coeff:     -0.965D+00 0.996D+00-0.558D+00 0.279D+00-0.215D+00 0.650D-01
 Coeff:      0.152D-01-0.701D-01 0.121D-01
 Gap=     0.170 Goal=   None    Shift=    0.000
 RMSDP=2.03D-07 MaxDP=2.94D-05 DE=-1.06D-10 OVMax= 1.12D-08

 >>>>>>>>>> Convergence criterion not met.
 SCF Done:  E(RBMK) =  -1781.29989712     A.U. after  129 cycles
            NFock=128  Conv=0.20D-06     -V/T= 2.0062
 KE= 1.770381990129D+03 PE=-1.343303413400D+04 EE= 5.227269027358D+03
 Convergence failure -- run terminated.
 Error termination via Lnk1e in /hits/basement/its/doserbd/software/gaussian/g09d1/g09/l502.exe at Wed May 15 14:31:32 2024.
 Job cpu time:       1 days  3 hours  0 minutes 29.0 seconds.
 File lengths (MBytes):  RWF=    350 Int=      0 D2E=      0 Chk=     40 Scr=      1
