 Entering Gaussian System, Link 0=g09
 Input=g09BDE.com
 Output=g09BDE.log
 Initial command:
 /hits/basement/its/doserbd/software/gaussian/g09d1/g09/l1.exe "/hits/basement/mbm/sucerquia/gaussian_scratch/Gau-2820167.inp" -scrdir="/hits/basement/mbm/sucerquia/gaussian_scratch/"
 Entering Link 1 = /hits/basement/its/doserbd/software/gaussian/g09d1/g09/l1.exe PID=   2820168.
  
 Copyright (c) 1988,1990,1992,1993,1995,1998,2003,2009,2013,
            Gaussian, Inc.  All Rights Reserved.
  
 This is part of the Gaussian(R) 09 program.  It is based on
 the Gaussian(R) 03 system (copyright 2003, Gaussian, Inc.),
 the Gaussian(R) 98 system (copyright 1998, Gaussian, Inc.),
 the Gaussian(R) 94 system (copyright 1995, Gaussian, Inc.),
 the Gaussian 92(TM) system (copyright 1992, Gaussian, Inc.),
 the Gaussian 90(TM) system (copyright 1990, Gaussian, Inc.),
 the Gaussian 88(TM) system (copyright 1988, Gaussian, Inc.),
 the Gaussian 86(TM) system (copyright 1986, Carnegie Mellon
 University), and the Gaussian 82(TM) system (copyright 1983,
 Carnegie Mellon University). Gaussian is a federally registered
 trademark of Gaussian, Inc.
  
 This software contains proprietary and confidential information,
 including trade secrets, belonging to Gaussian, Inc.
  
 This software is provided under written license and may be
 used, copied, transmitted, or stored only in accord with that
 written license.
  
 The following legend is applicable only to US Government
 contracts under FAR:
  
                    RESTRICTED RIGHTS LEGEND
  
 Use, reproduction and disclosure by the US Government is
 subject to restrictions as set forth in subparagraphs (a)
 and (c) of the Commercial Computer Software - Restricted
 Rights clause in FAR 52.227-19.
  
 Gaussian, Inc.
 340 Quinnipiac St., Bldg. 40, Wallingford CT 06492
  
  
 ---------------------------------------------------------------
 Warning -- This program may not be used in any manner that
 competes with the business of Gaussian, Inc. or will provide
 assistance to any competitor of Gaussian, Inc.  The licensee
 of this program is prohibited from giving any competitor of
 Gaussian, Inc. access to this program.  By using this program,
 the user acknowledges that Gaussian, Inc. is engaged in the
 business of creating and licensing software in the field of
 computational chemistry and represents and warrants to the
 licensee that it is not a competitor of Gaussian, Inc. and that
 it will not use this program in any manner prohibited above.
 ---------------------------------------------------------------
  

 Cite this work as:
 Gaussian 09, Revision D.01,
 M. J. Frisch, G. W. Trucks, H. B. Schlegel, G. E. Scuseria, 
 M. A. Robb, J. R. Cheeseman, G. Scalmani, V. Barone, B. Mennucci, 
 G. A. Petersson, H. Nakatsuji, M. Caricato, X. Li, H. P. Hratchian, 
 A. F. Izmaylov, J. Bloino, G. Zheng, J. L. Sonnenberg, M. Hada, 
 M. Ehara, K. Toyota, R. Fukuda, J. Hasegawa, M. Ishida, T. Nakajima, 
 Y. Honda, O. Kitao, H. Nakai, T. Vreven, J. A. Montgomery, Jr., 
 J. E. Peralta, F. Ogliaro, M. Bearpark, J. J. Heyd, E. Brothers, 
 K. N. Kudin, V. N. Staroverov, T. Keith, R. Kobayashi, J. Normand, 
 K. Raghavachari, A. Rendell, J. C. Burant, S. S. Iyengar, J. Tomasi, 
 M. Cossi, N. Rega, J. M. Millam, M. Klene, J. E. Knox, J. B. Cross, 
 V. Bakken, C. Adamo, J. Jaramillo, R. Gomperts, R. E. Stratmann, 
 O. Yazyev, A. J. Austin, R. Cammi, C. Pomelli, J. W. Ochterski, 
 R. L. Martin, K. Morokuma, V. G. Zakrzewski, G. A. Voth, 
 P. Salvador, J. J. Dannenberg, S. Dapprich, A. D. Daniels, 
 O. Farkas, J. B. Foresman, J. V. Ortiz, J. Cioslowski, 
 and D. J. Fox, Gaussian, Inc., Wallingford CT, 2013.
 
 ******************************************
 Gaussian 09:  ES64L-G09RevD.01 24-Apr-2013
                10-May-2024 
 ******************************************
 %chk=g09BDE
 %NProcShared=8
 Will use up to    8 processors via shared memory.
 ---------------------------------------
 #P bmk/6-31+g opt(modredun,calcfc) freq
 ---------------------------------------
 1/10=4,14=-1,18=120,19=15,26=3,38=1/1,3;
 2/9=110,12=2,17=6,18=5,40=1/2;
 3/5=1,6=6,7=10,11=2,16=1,25=1,30=1,71=2,74=-34,140=1/1,2,3;
 4//1;
 5/5=2,38=5/2;
 8/6=4,10=90,11=11/1;
 11/6=1,8=1,9=11,15=111,16=1/1,2,10;
 10/6=1,13=1/2;
 6/7=2,8=2,9=2,10=2,28=1/1;
 7/10=1,18=20,25=1/1,2,3,16;
 1/10=4,14=-1,18=20,19=15,26=3/3(2);
 2/9=110/2;
 99//99;
 2/9=110/2;
 3/5=1,6=6,7=10,11=2,16=1,25=1,30=1,71=1,74=-34/1,2,3;
 4/5=5,16=3,69=1/1;
 5/5=2,38=5/2;
 7//1,2,3,16;
 1/14=-1,18=20,19=15,26=3/3(-5);
 2/9=110/2;
 6/7=2,8=2,9=2,10=2,19=2,28=1/1;
 99/9=1/99;
 Leave Link    1 at Fri May 10 15:44:19 2024, MaxMem=           0 cpu:         0.6
 (Enter /hits/basement/its/doserbd/software/gaussian/g09d1/g09/l101.exe)
 ------------------------------
 Gaussian input prepared by ASE
 ------------------------------
 Symbolic Z-matrix:
 Charge =  0 Multiplicity = 2
 C                    -4.0999    0.08349  -0.01835 
 C                    -2.81595   0.04366  -0.01233 
 C                     2.80601  -0.00427  -0.00854 
 C                    -1.42313   0.00668  -0.01152 
 C                    -0.7083   -1.24681  -0.01396 
 C                     0.67589  -1.19466  -0.01268 
 C                     1.39097   0.03262  -0.00932 
 C                     0.69219   1.28404  -0.00683 
 C                    -0.68971   1.23489  -0.00808 
 H                     1.25978  -2.11472  -0.01438 
 H                    -1.27736   2.15236  -0.00642 
 C                    -1.48268  -2.54527  -0.01774 
 H                    -2.16296  -2.53188  -0.88809 
 H                    -2.164    -2.5363    0.85185 
 C                    -0.66477  -3.8389   -0.02046 
 H                    -0.00106  -3.86384  -0.90471 
 H                    -0.00255  -3.86847   0.86476 
 C                    -1.54976  -5.09158  -0.02449 
 H                    -2.21674  -5.06765   0.85669 
 H                    -2.21498  -5.06324  -0.90686 
 C                    -0.74724  -6.39495  -0.02696 
 H                    -0.09878  -6.46862   0.86326 
 H                    -0.09671  -6.46396  -0.91604 
 C                     1.47561   2.58085  -0.00311 
 H                     2.15078   2.57166   0.87248 
 H                     2.1519    2.57597  -0.87787 
 C                     0.66028   3.87652  -0.00047 
 H                    -0.00181   3.90474  -0.88502 
 H                    -0.00343   3.90016   0.88301 
 C                     1.54555   5.12884   0.00358 
 H                     2.2104    5.10157   0.88692 
 H                     2.21231   5.1059   -0.87844 
 C                     0.74254   6.43204   0.00592 
 H                     0.09176   6.49975   0.89451 
 H                     0.09409   6.50439  -0.88399 
 C                     4.03066  -0.05161  -0.00992 
 H                    -1.40944  -7.27574  -0.03004 
 H                     1.40425   7.31324   0.0091 
 C                     5.45335  -0.10723  -0.00965 
 C                     6.12184  -1.3525   -0.01219 
 C                     7.51451  -1.40146  -0.01185 
 C                     8.26226  -0.21774  -0.00906 
 C                     7.60992   1.02124  -0.00659 
 C                     6.21775   1.08165  -0.00688 
 H                     9.35377  -0.26095  -0.00883 
 H                     8.19147   1.94591  -0.00444 
 H                     5.53394  -2.2721   -0.01437 
 H                     5.704     2.04463  -0.00499 
 H                     8.02181  -2.36885  -0.01379 
 
 The following ModRedundant input section has been read:
 
 NAtoms=     49 NQM=       49 NQMF=       0 NMMI=      0 NMMIF=      0
                NMic=       0 NMicF=      0.
                    Isotopes and Nuclear Properties:
 (Nuclear quadrupole moments (NQMom) in fm**2, nuclear magnetic moments (NMagM)
  in nuclear magnetons)

  Atom         1           2           3           4           5           6           7           8           9          10
 IAtWgt=          12          12          12          12          12          12          12          12          12           1
 AtmWgt=  12.0000000  12.0000000  12.0000000  12.0000000  12.0000000  12.0000000  12.0000000  12.0000000  12.0000000   1.0078250
 NucSpn=           0           0           0           0           0           0           0           0           0           1
 AtZEff=   0.0000000   0.0000000   0.0000000   0.0000000   0.0000000   0.0000000   0.0000000   0.0000000   0.0000000   0.0000000
 NQMom=    0.0000000   0.0000000   0.0000000   0.0000000   0.0000000   0.0000000   0.0000000   0.0000000   0.0000000   0.0000000
 NMagM=    0.0000000   0.0000000   0.0000000   0.0000000   0.0000000   0.0000000   0.0000000   0.0000000   0.0000000   2.7928460
 AtZNuc=   6.0000000   6.0000000   6.0000000   6.0000000   6.0000000   6.0000000   6.0000000   6.0000000   6.0000000   1.0000000

  Atom        11          12          13          14          15          16          17          18          19          20
 IAtWgt=           1          12           1           1          12           1           1          12           1           1
 AtmWgt=   1.0078250  12.0000000   1.0078250   1.0078250  12.0000000   1.0078250   1.0078250  12.0000000   1.0078250   1.0078250
 NucSpn=           1           0           1           1           0           1           1           0           1           1
 AtZEff=   0.0000000   0.0000000   0.0000000   0.0000000   0.0000000   0.0000000   0.0000000   0.0000000   0.0000000   0.0000000
 NQMom=    0.0000000   0.0000000   0.0000000   0.0000000   0.0000000   0.0000000   0.0000000   0.0000000   0.0000000   0.0000000
 NMagM=    2.7928460   0.0000000   2.7928460   2.7928460   0.0000000   2.7928460   2.7928460   0.0000000   2.7928460   2.7928460
 AtZNuc=   1.0000000   6.0000000   1.0000000   1.0000000   6.0000000   1.0000000   1.0000000   6.0000000   1.0000000   1.0000000

  Atom        21          22          23          24          25          26          27          28          29          30
 IAtWgt=          12           1           1          12           1           1          12           1           1          12
 AtmWgt=  12.0000000   1.0078250   1.0078250  12.0000000   1.0078250   1.0078250  12.0000000   1.0078250   1.0078250  12.0000000
 NucSpn=           0           1           1           0           1           1           0           1           1           0
 AtZEff=   0.0000000   0.0000000   0.0000000   0.0000000   0.0000000   0.0000000   0.0000000   0.0000000   0.0000000   0.0000000
 NQMom=    0.0000000   0.0000000   0.0000000   0.0000000   0.0000000   0.0000000   0.0000000   0.0000000   0.0000000   0.0000000
 NMagM=    0.0000000   2.7928460   2.7928460   0.0000000   2.7928460   2.7928460   0.0000000   2.7928460   2.7928460   0.0000000
 AtZNuc=   6.0000000   1.0000000   1.0000000   6.0000000   1.0000000   1.0000000   6.0000000   1.0000000   1.0000000   6.0000000

  Atom        31          32          33          34          35          36          37          38          39          40
 IAtWgt=           1           1          12           1           1          12           1           1          12          12
 AtmWgt=   1.0078250   1.0078250  12.0000000   1.0078250   1.0078250  12.0000000   1.0078250   1.0078250  12.0000000  12.0000000
 NucSpn=           1           1           0           1           1           0           1           1           0           0
 AtZEff=   0.0000000   0.0000000   0.0000000   0.0000000   0.0000000   0.0000000   0.0000000   0.0000000   0.0000000   0.0000000
 NQMom=    0.0000000   0.0000000   0.0000000   0.0000000   0.0000000   0.0000000   0.0000000   0.0000000   0.0000000   0.0000000
 NMagM=    2.7928460   2.7928460   0.0000000   2.7928460   2.7928460   0.0000000   2.7928460   2.7928460   0.0000000   0.0000000
 AtZNuc=   1.0000000   1.0000000   6.0000000   1.0000000   1.0000000   6.0000000   1.0000000   1.0000000   6.0000000   6.0000000

  Atom        41          42          43          44          45          46          47          48          49
 IAtWgt=          12          12          12          12           1           1           1           1           1
 AtmWgt=  12.0000000  12.0000000  12.0000000  12.0000000   1.0078250   1.0078250   1.0078250   1.0078250   1.0078250
 NucSpn=           0           0           0           0           1           1           1           1           1
 AtZEff=   0.0000000   0.0000000   0.0000000   0.0000000   0.0000000   0.0000000   0.0000000   0.0000000   0.0000000
 NQMom=    0.0000000   0.0000000   0.0000000   0.0000000   0.0000000   0.0000000   0.0000000   0.0000000   0.0000000
 NMagM=    0.0000000   0.0000000   0.0000000   0.0000000   2.7928460   2.7928460   2.7928460   2.7928460   2.7928460
 AtZNuc=   6.0000000   6.0000000   6.0000000   6.0000000   1.0000000   1.0000000   1.0000000   1.0000000   1.0000000
 Leave Link  101 at Fri May 10 15:44:19 2024, MaxMem=    33554432 cpu:         0.5
 (Enter /hits/basement/its/doserbd/software/gaussian/g09d1/g09/l103.exe)

 GradGradGradGradGradGradGradGradGradGradGradGradGradGradGradGradGradGrad
 Berny optimization.
 Initialization pass.
                           ----------------------------
                           !    Initial Parameters    !
                           ! (Angstroms and Degrees)  !
 --------------------------                            --------------------------
 ! Name  Definition              Value          Derivative Info.                !
 --------------------------------------------------------------------------------
 ! R1    R(1,2)                  1.2846         calculate D2E/DX2 analytically  !
 ! R2    R(2,4)                  1.3933         calculate D2E/DX2 analytically  !
 ! R3    R(3,7)                  1.4155         calculate D2E/DX2 analytically  !
 ! R4    R(3,36)                 1.2256         calculate D2E/DX2 analytically  !
 ! R5    R(4,5)                  1.443          calculate D2E/DX2 analytically  !
 ! R6    R(4,9)                  1.4305         calculate D2E/DX2 analytically  !
 ! R7    R(5,6)                  1.3852         calculate D2E/DX2 analytically  !
 ! R8    R(5,12)                 1.5118         calculate D2E/DX2 analytically  !
 ! R9    R(6,7)                  1.4204         calculate D2E/DX2 analytically  !
 ! R10   R(6,10)                 1.0897         calculate D2E/DX2 analytically  !
 ! R11   R(7,8)                  1.4333         calculate D2E/DX2 analytically  !
 ! R12   R(8,9)                  1.3828         calculate D2E/DX2 analytically  !
 ! R13   R(8,24)                 1.5151         calculate D2E/DX2 analytically  !
 ! R14   R(9,11)                 1.0895         calculate D2E/DX2 analytically  !
 ! R15   R(12,13)                1.1047         calculate D2E/DX2 analytically  !
 ! R16   R(12,14)                1.1047         calculate D2E/DX2 analytically  !
 ! R17   R(12,15)                1.5305         calculate D2E/DX2 analytically  !
 ! R18   R(15,16)                1.1059         calculate D2E/DX2 analytically  !
 ! R19   R(15,17)                1.1059         calculate D2E/DX2 analytically  !
 ! R20   R(15,18)                1.5338         calculate D2E/DX2 analytically  !
 ! R21   R(18,19)                1.1054         calculate D2E/DX2 analytically  !
 ! R22   R(18,20)                1.1054         calculate D2E/DX2 analytically  !
 ! R23   R(18,21)                1.5306         calculate D2E/DX2 analytically  !
 ! R24   R(21,22)                1.1038         calculate D2E/DX2 analytically  !
 ! R25   R(21,23)                1.1038         calculate D2E/DX2 analytically  !
 ! R26   R(21,37)                1.102          calculate D2E/DX2 analytically  !
 ! R27   R(24,25)                1.1057         calculate D2E/DX2 analytically  !
 ! R28   R(24,26)                1.1057         calculate D2E/DX2 analytically  !
 ! R29   R(24,27)                1.5309         calculate D2E/DX2 analytically  !
 ! R30   R(27,28)                1.1053         calculate D2E/DX2 analytically  !
 ! R31   R(27,29)                1.1053         calculate D2E/DX2 analytically  !
 ! R32   R(27,30)                1.5336         calculate D2E/DX2 analytically  !
 ! R33   R(30,31)                1.1059         calculate D2E/DX2 analytically  !
 ! R34   R(30,32)                1.1059         calculate D2E/DX2 analytically  !
 ! R35   R(30,33)                1.5307         calculate D2E/DX2 analytically  !
 ! R36   R(33,34)                1.1035         calculate D2E/DX2 analytically  !
 ! R37   R(33,35)                1.1035         calculate D2E/DX2 analytically  !
 ! R38   R(33,38)                1.102          calculate D2E/DX2 analytically  !
 ! R39   R(36,39)                1.4238         calculate D2E/DX2 analytically  !
 ! R40   R(39,40)                1.4134         calculate D2E/DX2 analytically  !
 ! R41   R(39,44)                1.4134         calculate D2E/DX2 analytically  !
 ! R42   R(40,41)                1.3935         calculate D2E/DX2 analytically  !
 ! R43   R(40,47)                1.0915         calculate D2E/DX2 analytically  !
 ! R44   R(41,42)                1.4001         calculate D2E/DX2 analytically  !
 ! R45   R(41,49)                1.0923         calculate D2E/DX2 analytically  !
 ! R46   R(42,43)                1.4002         calculate D2E/DX2 analytically  !
 ! R47   R(42,45)                1.0924         calculate D2E/DX2 analytically  !
 ! R48   R(43,44)                1.3935         calculate D2E/DX2 analytically  !
 ! R49   R(43,46)                1.0923         calculate D2E/DX2 analytically  !
 ! R50   R(44,48)                1.0915         calculate D2E/DX2 analytically  !
 ! A1    A(2,4,5)              121.2155         calculate D2E/DX2 analytically  !
 ! A2    A(2,4,9)              119.3223         calculate D2E/DX2 analytically  !
 ! A3    A(5,4,9)              119.4622         calculate D2E/DX2 analytically  !
 ! A4    A(4,5,6)              117.5367         calculate D2E/DX2 analytically  !
 ! A5    A(4,5,12)             119.4943         calculate D2E/DX2 analytically  !
 ! A6    A(6,5,12)             122.969          calculate D2E/DX2 analytically  !
 ! A7    A(5,6,7)              122.3854         calculate D2E/DX2 analytically  !
 ! A8    A(5,6,10)             120.2416         calculate D2E/DX2 analytically  !
 ! A9    A(7,6,10)             117.373          calculate D2E/DX2 analytically  !
 ! A10   A(3,7,6)              118.7343         calculate D2E/DX2 analytically  !
 ! A11   A(3,7,8)              120.6716         calculate D2E/DX2 analytically  !
 ! A12   A(6,7,8)              120.5942         calculate D2E/DX2 analytically  !
 ! A13   A(7,8,9)              117.1415         calculate D2E/DX2 analytically  !
 ! A14   A(7,8,24)             119.6848         calculate D2E/DX2 analytically  !
 ! A15   A(9,8,24)             123.1736         calculate D2E/DX2 analytically  !
 ! A16   A(4,9,8)              122.88           calculate D2E/DX2 analytically  !
 ! A17   A(4,9,11)             116.5168         calculate D2E/DX2 analytically  !
 ! A18   A(8,9,11)             120.6032         calculate D2E/DX2 analytically  !
 ! A19   A(5,12,13)            107.8768         calculate D2E/DX2 analytically  !
 ! A20   A(5,12,14)            107.8755         calculate D2E/DX2 analytically  !
 ! A21   A(5,12,15)            116.8857         calculate D2E/DX2 analytically  !
 ! A22   A(13,12,14)           103.9022         calculate D2E/DX2 analytically  !
 ! A23   A(13,12,15)           109.7499         calculate D2E/DX2 analytically  !
 ! A24   A(14,12,15)           109.7451         calculate D2E/DX2 analytically  !
 ! A25   A(12,15,16)           109.9502         calculate D2E/DX2 analytically  !
 ! A26   A(12,15,17)           109.9489         calculate D2E/DX2 analytically  !
 ! A27   A(12,15,18)           112.4564         calculate D2E/DX2 analytically  !
 ! A28   A(16,15,17)           106.2621         calculate D2E/DX2 analytically  !
 ! A29   A(16,15,18)           109.0128         calculate D2E/DX2 analytically  !
 ! A30   A(17,15,18)           109.0125         calculate D2E/DX2 analytically  !
 ! A31   A(15,18,19)           109.1704         calculate D2E/DX2 analytically  !
 ! A32   A(15,18,20)           109.1709         calculate D2E/DX2 analytically  !
 ! A33   A(15,18,21)           113.1379         calculate D2E/DX2 analytically  !
 ! A34   A(19,18,20)           105.8231         calculate D2E/DX2 analytically  !
 ! A35   A(19,18,21)           109.6384         calculate D2E/DX2 analytically  !
 ! A36   A(20,18,21)           109.6374         calculate D2E/DX2 analytically  !
 ! A37   A(18,21,22)           111.3183         calculate D2E/DX2 analytically  !
 ! A38   A(18,21,23)           111.3179         calculate D2E/DX2 analytically  !
 ! A39   A(18,21,37)           111.4416         calculate D2E/DX2 analytically  !
 ! A40   A(22,21,23)           107.4097         calculate D2E/DX2 analytically  !
 ! A41   A(22,21,37)           107.5737         calculate D2E/DX2 analytically  !
 ! A42   A(23,21,37)           107.5731         calculate D2E/DX2 analytically  !
 ! A43   A(8,24,25)            108.0937         calculate D2E/DX2 analytically  !
 ! A44   A(8,24,26)            108.0919         calculate D2E/DX2 analytically  !
 ! A45   A(8,24,27)            116.682          calculate D2E/DX2 analytically  !
 ! A46   A(25,24,26)           104.6532         calculate D2E/DX2 analytically  !
 ! A47   A(25,24,27)           109.3225         calculate D2E/DX2 analytically  !
 ! A48   A(26,24,27)           109.3208         calculate D2E/DX2 analytically  !
 ! A49   A(24,27,28)           109.8329         calculate D2E/DX2 analytically  !
 ! A50   A(24,27,29)           109.8351         calculate D2E/DX2 analytically  !
 ! A51   A(24,27,30)           112.562          calculate D2E/DX2 analytically  !
 ! A52   A(28,27,29)           106.2277         calculate D2E/DX2 analytically  !
 ! A53   A(28,27,30)           109.0897         calculate D2E/DX2 analytically  !
 ! A54   A(29,27,30)           109.09           calculate D2E/DX2 analytically  !
 ! A55   A(27,30,31)           109.2077         calculate D2E/DX2 analytically  !
 ! A56   A(27,30,32)           109.2068         calculate D2E/DX2 analytically  !
 ! A57   A(27,30,33)           113.1028         calculate D2E/DX2 analytically  !
 ! A58   A(31,30,32)           105.9068         calculate D2E/DX2 analytically  !
 ! A59   A(31,30,33)           109.5807         calculate D2E/DX2 analytically  !
 ! A60   A(32,30,33)           109.582          calculate D2E/DX2 analytically  !
 ! A61   A(30,33,34)           111.2751         calculate D2E/DX2 analytically  !
 ! A62   A(30,33,35)           111.2757         calculate D2E/DX2 analytically  !
 ! A63   A(30,33,38)           111.4561         calculate D2E/DX2 analytically  !
 ! A64   A(34,33,35)           107.3864         calculate D2E/DX2 analytically  !
 ! A65   A(34,33,38)           107.6224         calculate D2E/DX2 analytically  !
 ! A66   A(35,33,38)           107.623          calculate D2E/DX2 analytically  !
 ! A67   A(36,39,40)           120.4663         calculate D2E/DX2 analytically  !
 ! A68   A(36,39,44)           120.5006         calculate D2E/DX2 analytically  !
 ! A69   A(40,39,44)           119.0331         calculate D2E/DX2 analytically  !
 ! A70   A(39,40,41)           120.2408         calculate D2E/DX2 analytically  !
 ! A71   A(39,40,47)           119.1821         calculate D2E/DX2 analytically  !
 ! A72   A(41,40,47)           120.5772         calculate D2E/DX2 analytically  !
 ! A73   A(40,41,42)           120.2672         calculate D2E/DX2 analytically  !
 ! A74   A(40,41,49)           119.6858         calculate D2E/DX2 analytically  !
 ! A75   A(42,41,49)           120.0471         calculate D2E/DX2 analytically  !
 ! A76   A(41,42,43)           119.9522         calculate D2E/DX2 analytically  !
 ! A77   A(41,42,45)           120.0133         calculate D2E/DX2 analytically  !
 ! A78   A(43,42,45)           120.0344         calculate D2E/DX2 analytically  !
 ! A79   A(42,43,44)           120.2522         calculate D2E/DX2 analytically  !
 ! A80   A(42,43,46)           120.066          calculate D2E/DX2 analytically  !
 ! A81   A(44,43,46)           119.6819         calculate D2E/DX2 analytically  !
 ! A82   A(39,44,43)           120.2545         calculate D2E/DX2 analytically  !
 ! A83   A(39,44,48)           119.1804         calculate D2E/DX2 analytically  !
 ! A84   A(43,44,48)           120.5651         calculate D2E/DX2 analytically  !
 ! A85   L(1,2,4,13,-1)        180.1656         calculate D2E/DX2 analytically  !
 ! A86   L(7,3,36,25,-1)       180.7124         calculate D2E/DX2 analytically  !
 ! A87   L(3,36,39,31,-1)      180.0117         calculate D2E/DX2 analytically  !
 ! A88   L(1,2,4,13,-2)        179.6835         calculate D2E/DX2 analytically  !
 ! A89   L(7,3,36,25,-2)       179.8506         calculate D2E/DX2 analytically  !
 ! A90   L(3,36,39,31,-2)      179.9157         calculate D2E/DX2 analytically  !
 ! D1    D(6,7,39,40)           -0.0397         calculate D2E/DX2 analytically  !
 ! D2    D(6,7,39,44)          179.9769         calculate D2E/DX2 analytically  !
 ! D3    D(8,7,39,40)         -179.997          calculate D2E/DX2 analytically  !
 ! D4    D(8,7,39,44)            0.0195         calculate D2E/DX2 analytically  !
 ! D5    D(2,4,5,6)           -179.9876         calculate D2E/DX2 analytically  !
 ! D6    D(2,4,5,12)             0.0125         calculate D2E/DX2 analytically  !
 ! D7    D(9,4,5,6)              0.0064         calculate D2E/DX2 analytically  !
 ! D8    D(9,4,5,12)          -179.9935         calculate D2E/DX2 analytically  !
 ! D9    D(2,4,9,8)            179.9878         calculate D2E/DX2 analytically  !
 ! D10   D(2,4,9,11)            -0.0101         calculate D2E/DX2 analytically  !
 ! D11   D(5,4,9,8)             -0.0063         calculate D2E/DX2 analytically  !
 ! D12   D(5,4,9,11)           179.9958         calculate D2E/DX2 analytically  !
 ! D13   D(4,5,6,7)             -0.0095         calculate D2E/DX2 analytically  !
 ! D14   D(4,5,6,10)           179.9976         calculate D2E/DX2 analytically  !
 ! D15   D(12,5,6,7)           179.9904         calculate D2E/DX2 analytically  !
 ! D16   D(12,5,6,10)           -0.0024         calculate D2E/DX2 analytically  !
 ! D17   D(4,5,12,13)           55.8206         calculate D2E/DX2 analytically  !
 ! D18   D(4,5,12,14)          -55.8509         calculate D2E/DX2 analytically  !
 ! D19   D(4,5,12,15)          179.9886         calculate D2E/DX2 analytically  !
 ! D20   D(6,5,12,13)         -124.1793         calculate D2E/DX2 analytically  !
 ! D21   D(6,5,12,14)          124.1491         calculate D2E/DX2 analytically  !
 ! D22   D(6,5,12,15)           -0.0114         calculate D2E/DX2 analytically  !
 ! D23   D(5,6,7,3)           -179.9853         calculate D2E/DX2 analytically  !
 ! D24   D(5,6,7,8)              0.0122         calculate D2E/DX2 analytically  !
 ! D25   D(10,6,7,3)             0.0077         calculate D2E/DX2 analytically  !
 ! D26   D(10,6,7,8)          -179.9948         calculate D2E/DX2 analytically  !
 ! D27   D(3,7,8,9)            179.9864         calculate D2E/DX2 analytically  !
 ! D28   D(3,7,8,24)            -0.0091         calculate D2E/DX2 analytically  !
 ! D29   D(6,7,8,9)             -0.0111         calculate D2E/DX2 analytically  !
 ! D30   D(6,7,8,24)           179.9935         calculate D2E/DX2 analytically  !
 ! D31   D(7,8,9,4)              0.0084         calculate D2E/DX2 analytically  !
 ! D32   D(7,8,9,11)          -179.9937         calculate D2E/DX2 analytically  !
 ! D33   D(24,8,9,4)          -179.9963         calculate D2E/DX2 analytically  !
 ! D34   D(24,8,9,11)            0.0015         calculate D2E/DX2 analytically  !
 ! D35   D(7,8,24,25)          -56.3678         calculate D2E/DX2 analytically  !
 ! D36   D(7,8,24,26)           56.3821         calculate D2E/DX2 analytically  !
 ! D37   D(7,8,24,27)         -179.9948         calculate D2E/DX2 analytically  !
 ! D38   D(9,8,24,25)          123.637          calculate D2E/DX2 analytically  !
 ! D39   D(9,8,24,26)         -123.613          calculate D2E/DX2 analytically  !
 ! D40   D(9,8,24,27)            0.0101         calculate D2E/DX2 analytically  !
 ! D41   D(5,12,15,16)         -58.3173         calculate D2E/DX2 analytically  !
 ! D42   D(5,12,15,17)          58.3414         calculate D2E/DX2 analytically  !
 ! D43   D(5,12,15,18)        -179.9886         calculate D2E/DX2 analytically  !
 ! D44   D(13,12,15,16)         64.8934         calculate D2E/DX2 analytically  !
 ! D45   D(13,12,15,17)       -178.4479         calculate D2E/DX2 analytically  !
 ! D46   D(13,12,15,18)        -56.7779         calculate D2E/DX2 analytically  !
 ! D47   D(14,12,15,16)        178.4778         calculate D2E/DX2 analytically  !
 ! D48   D(14,12,15,17)        -64.8635         calculate D2E/DX2 analytically  !
 ! D49   D(14,12,15,18)         56.8065         calculate D2E/DX2 analytically  !
 ! D50   D(12,15,18,19)        -57.6106         calculate D2E/DX2 analytically  !
 ! D51   D(12,15,18,20)         57.6347         calculate D2E/DX2 analytically  !
 ! D52   D(12,15,18,21)       -179.9883         calculate D2E/DX2 analytically  !
 ! D53   D(16,15,18,19)       -179.8139         calculate D2E/DX2 analytically  !
 ! D54   D(16,15,18,20)        -64.5685         calculate D2E/DX2 analytically  !
 ! D55   D(16,15,18,21)         57.8084         calculate D2E/DX2 analytically  !
 ! D56   D(17,15,18,19)         64.5908         calculate D2E/DX2 analytically  !
 ! D57   D(17,15,18,20)        179.8361         calculate D2E/DX2 analytically  !
 ! D58   D(17,15,18,21)        -57.787          calculate D2E/DX2 analytically  !
 ! D59   D(15,18,21,22)         59.9145         calculate D2E/DX2 analytically  !
 ! D60   D(15,18,21,23)        -59.8913         calculate D2E/DX2 analytically  !
 ! D61   D(15,18,21,37)       -179.9879         calculate D2E/DX2 analytically  !
 ! D62   D(19,18,21,22)        -62.2019         calculate D2E/DX2 analytically  !
 ! D63   D(19,18,21,23)        177.9923         calculate D2E/DX2 analytically  !
 ! D64   D(19,18,21,37)         57.8957         calculate D2E/DX2 analytically  !
 ! D65   D(20,18,21,22)       -177.969          calculate D2E/DX2 analytically  !
 ! D66   D(20,18,21,23)         62.2251         calculate D2E/DX2 analytically  !
 ! D67   D(20,18,21,37)        -57.8714         calculate D2E/DX2 analytically  !
 ! D68   D(8,24,27,28)         -58.2566         calculate D2E/DX2 analytically  !
 ! D69   D(8,24,27,29)          58.225          calculate D2E/DX2 analytically  !
 ! D70   D(8,24,27,30)         179.9852         calculate D2E/DX2 analytically  !
 ! D71   D(25,24,27,28)        178.7497         calculate D2E/DX2 analytically  !
 ! D72   D(25,24,27,29)        -64.7686         calculate D2E/DX2 analytically  !
 ! D73   D(25,24,27,30)         56.9915         calculate D2E/DX2 analytically  !
 ! D74   D(26,24,27,28)         64.7332         calculate D2E/DX2 analytically  !
 ! D75   D(26,24,27,29)       -178.7851         calculate D2E/DX2 analytically  !
 ! D76   D(26,24,27,30)        -57.025          calculate D2E/DX2 analytically  !
 ! D77   D(24,27,30,31)        -57.7065         calculate D2E/DX2 analytically  !
 ! D78   D(24,27,30,32)         57.6789         calculate D2E/DX2 analytically  !
 ! D79   D(24,27,30,33)        179.9867         calculate D2E/DX2 analytically  !
 ! D80   D(28,27,30,31)       -179.8856         calculate D2E/DX2 analytically  !
 ! D81   D(28,27,30,32)        -64.5002         calculate D2E/DX2 analytically  !
 ! D82   D(28,27,30,33)         57.8076         calculate D2E/DX2 analytically  !
 ! D83   D(29,27,30,31)         64.4755         calculate D2E/DX2 analytically  !
 ! D84   D(29,27,30,32)        179.8609         calculate D2E/DX2 analytically  !
 ! D85   D(29,27,30,33)        -57.8313         calculate D2E/DX2 analytically  !
 ! D86   D(27,30,33,34)         59.8443         calculate D2E/DX2 analytically  !
 ! D87   D(27,30,33,35)        -59.8747         calculate D2E/DX2 analytically  !
 ! D88   D(27,30,33,38)        179.9842         calculate D2E/DX2 analytically  !
 ! D89   D(31,30,33,34)        -62.2541         calculate D2E/DX2 analytically  !
 ! D90   D(31,30,33,35)        178.0269         calculate D2E/DX2 analytically  !
 ! D91   D(31,30,33,38)         57.8859         calculate D2E/DX2 analytically  !
 ! D92   D(32,30,33,34)       -178.0576         calculate D2E/DX2 analytically  !
 ! D93   D(32,30,33,35)         62.2234         calculate D2E/DX2 analytically  !
 ! D94   D(32,30,33,38)        -57.9177         calculate D2E/DX2 analytically  !
 ! D95   D(36,39,40,41)       -179.997          calculate D2E/DX2 analytically  !
 ! D96   D(36,39,40,47)         -0.0001         calculate D2E/DX2 analytically  !
 ! D97   D(44,39,40,41)          0.0053         calculate D2E/DX2 analytically  !
 ! D98   D(44,39,40,47)       -179.9978         calculate D2E/DX2 analytically  !
 ! D99   D(36,39,44,43)        179.9982         calculate D2E/DX2 analytically  !
 ! D100  D(36,39,44,48)         -0.0027         calculate D2E/DX2 analytically  !
 ! D101  D(40,39,44,43)         -0.0041         calculate D2E/DX2 analytically  !
 ! D102  D(40,39,44,48)        179.995          calculate D2E/DX2 analytically  !
 ! D103  D(39,40,41,42)         -0.0036         calculate D2E/DX2 analytically  !
 ! D104  D(39,40,41,49)        179.9974         calculate D2E/DX2 analytically  !
 ! D105  D(47,40,41,42)        179.9996         calculate D2E/DX2 analytically  !
 ! D106  D(47,40,41,49)          0.0005         calculate D2E/DX2 analytically  !
 ! D107  D(40,41,42,43)          0.0005         calculate D2E/DX2 analytically  !
 ! D108  D(40,41,42,45)       -179.9984         calculate D2E/DX2 analytically  !
 ! D109  D(49,41,42,43)        179.9996         calculate D2E/DX2 analytically  !
 ! D110  D(49,41,42,45)          0.0006         calculate D2E/DX2 analytically  !
 ! D111  D(41,42,43,44)          0.0007         calculate D2E/DX2 analytically  !
 ! D112  D(41,42,43,46)       -179.9984         calculate D2E/DX2 analytically  !
 ! D113  D(45,42,43,44)        179.9997         calculate D2E/DX2 analytically  !
 ! D114  D(45,42,43,46)          0.0005         calculate D2E/DX2 analytically  !
 ! D115  D(42,43,44,39)          0.0011         calculate D2E/DX2 analytically  !
 ! D116  D(42,43,44,48)       -179.998          calculate D2E/DX2 analytically  !
 ! D117  D(46,43,44,39)       -179.9998         calculate D2E/DX2 analytically  !
 ! D118  D(46,43,44,48)          0.0012         calculate D2E/DX2 analytically  !
 --------------------------------------------------------------------------------
 Trust Radius=3.00D-01 FncErr=1.00D-07 GrdErr=1.00D-06
 Number of steps in this run=    268 maximum allowed number of steps=    294.
 GradGradGradGradGradGradGradGradGradGradGradGradGradGradGradGradGradGrad

 Leave Link  103 at Fri May 10 15:44:19 2024, MaxMem=    33554432 cpu:         0.1
 (Enter /hits/basement/its/doserbd/software/gaussian/g09d1/g09/l202.exe)
                          Input orientation:                          
 ---------------------------------------------------------------------
 Center     Atomic      Atomic             Coordinates (Angstroms)
 Number     Number       Type             X           Y           Z
 ---------------------------------------------------------------------
      1          6           0       -4.099903    0.083492   -0.018353
      2          6           0       -2.815946    0.043661   -0.012330
      3          6           0        2.806008   -0.004269   -0.008539
      4          6           0       -1.423131    0.006681   -0.011521
      5          6           0       -0.708303   -1.246812   -0.013959
      6          6           0        0.675892   -1.194656   -0.012684
      7          6           0        1.390969    0.032616   -0.009322
      8          6           0        0.692187    1.284040   -0.006826
      9          6           0       -0.689714    1.234894   -0.008082
     10          1           0        1.259776   -2.114722   -0.014385
     11          1           0       -1.277365    2.152363   -0.006417
     12          6           0       -1.482678   -2.545270   -0.017742
     13          1           0       -2.162956   -2.531884   -0.888087
     14          1           0       -2.164001   -2.536305    0.851848
     15          6           0       -0.664773   -3.838900   -0.020463
     16          1           0       -0.001060   -3.863836   -0.904705
     17          1           0       -0.002550   -3.868472    0.864757
     18          6           0       -1.549765   -5.091581   -0.024486
     19          1           0       -2.216738   -5.067647    0.856694
     20          1           0       -2.214979   -5.063238   -0.906864
     21          6           0       -0.747242   -6.394947   -0.026958
     22          1           0       -0.098785   -6.468624    0.863263
     23          1           0       -0.096713   -6.463963   -0.916039
     24          6           0        1.475610    2.580851   -0.003105
     25          1           0        2.150780    2.571663    0.872485
     26          1           0        2.151902    2.575969   -0.877872
     27          6           0        0.660276    3.876516   -0.000466
     28          1           0       -0.001813    3.904739   -0.885019
     29          1           0       -0.003430    3.900164    0.883007
     30          6           0        1.545553    5.128838    0.003581
     31          1           0        2.210398    5.101571    0.886923
     32          1           0        2.212314    5.105900   -0.878438
     33          6           0        0.742544    6.432044    0.005924
     34          1           0        0.091762    6.499753    0.894507
     35          1           0        0.094086    6.504395   -0.883993
     36          6           0        4.030665   -0.051608   -0.009917
     37          1           0       -1.409442   -7.275742   -0.030044
     38          1           0        1.404248    7.313240    0.009096
     39          6           0        5.453353   -0.107226   -0.009647
     40          6           0        6.121835   -1.352501   -0.012193
     41          6           0        7.514506   -1.401458   -0.011853
     42          6           0        8.262259   -0.217737   -0.009063
     43          6           0        7.609924    1.021237   -0.006590
     44          6           0        6.217754    1.081653   -0.006879
     45          1           0        9.353772   -0.260949   -0.008833
     46          1           0        8.191473    1.945911   -0.004438
     47          1           0        5.533939   -2.272105   -0.014369
     48          1           0        5.703998    2.044629   -0.004992
     49          1           0        8.021809   -2.368853   -0.013791
 ---------------------------------------------------------------------
                    Distance matrix (angstroms):
                    1          2          3          4          5
     1  C    0.000000
     2  C    1.284589   0.000000
     3  C    6.906476   5.622160   0.000000
     4  C    2.677883   1.393306   4.229154   0.000000
     5  C    3.643170   2.471333   3.727509   1.442994   0.000000
     6  C    4.943877   3.704910   2.440171   2.418493   1.385177
     7  C    5.491115   4.206930   1.415520   2.814219   2.458434
     8  C    4.940201   3.720963   2.475476   2.471080   2.892514
     9  C    3.599337   2.437194   3.708854   1.430531   2.481783
    10  H    5.792955   4.611956   2.616272   3.420285   2.150954
    11  H    3.499585   2.610343   4.617900   2.150633   3.446488
    12  C    3.709482   2.912078   4.984937   2.552654   1.511841
    13  H    3.368738   2.797639   5.643850   2.785682   2.128738
    14  H    3.371692   2.797867   5.643798   2.785870   2.128725
    15  C    5.213951   4.438681   5.172123   3.919653   2.592461
    16  H    5.759126   4.897800   4.855821   4.219118   2.853494
    17  H    5.760747   4.897884   4.856203   4.219327   2.853651
    18  C    5.769283   5.289053   6.697294   5.099851   3.935786
    19  H    5.553940   5.219169   7.184316   5.208878   4.199070
    20  H    5.552588   5.219366   7.184042   5.208910   4.199102
    21  C    7.294559   6.762798   7.312092   6.437228   5.148298
    22  H    7.727640   7.110520   7.140431   6.666987   5.329948
    23  H    7.726613   7.110562   7.139817   6.666841   5.329770
    24  C    6.109287   4.985466   2.907376   3.876741   4.406881
    25  H    6.786429   5.642876   2.800170   4.487029   4.851895
    26  H    6.785004   5.642806   2.800219   4.486943   4.851884
    27  C    6.086596   5.174459   4.434492   4.395034   5.302988
    28  H    5.669866   4.856835   4.892077   4.240046   5.272224
    29  H    5.671025   4.856386   4.892074   4.239686   5.271884
    30  C    7.571471   6.699399   5.285611   5.920287   6.762329
    31  H    8.112986   7.187158   5.217874   6.321996   7.045025
    32  H    8.112239   7.187475   5.217569   6.322186   7.045160
    33  C    7.984610   7.312634   6.759010   6.780541   7.814742
    34  H    7.718275   7.138504   7.105275   6.728727   7.840579
    35  H    7.717958   7.139269   7.105184   6.729297   7.841046
    36  C    8.131695   6.847274   1.225572   5.454107   4.887365
    37  H    7.835627   7.453337   8.405046   7.282460   6.069584
    38  H    9.086566   8.405787   7.450582   7.834557   8.816909
    39  C    9.555163   8.270675   2.649346   6.877427   6.266153
    40  C   10.322115   9.046170   3.579449   7.666413   6.830956
    41  C   11.708955  10.431041   4.911425   9.047884   8.224263
    42  C   12.365836  11.081289   5.460426   9.687990   9.029396
    43  C   11.747321  10.471602   4.912155   9.089852   8.621890
    44  C   10.365834   9.093140   3.580397   7.716133   7.306987
    45  H   13.458088  12.173530   6.552793  10.780226  10.110257
    46  H   12.431682  11.170581   5.727691   9.808224   9.455135
    47  H    9.917650   8.665065   3.547495   7.320771   6.325884
    48  H    9.998135   8.751763   3.549132   7.412775   7.207722
    49  H   12.367293  11.103025   5.726768   9.739099   8.801922
                    6          7          8          9         10
     6  C    0.000000
     7  C    1.420403   0.000000
     8  C    2.478757   1.433305   0.000000
     9  C    2.787044   2.403063   1.382775   0.000000
    10  H    1.089700   2.151348   3.445838   3.875627   0.000000
    11  H    3.875279   3.407835   2.152468   1.089534   4.964390
    12  C    2.546293   3.860494   4.403836   3.862451   2.776047
    13  H    3.257847   4.469818   4.846622   4.139260   3.557032
    14  H    3.257672   4.469762   4.846665   4.139438   3.556731
    15  C    2.964703   4.383473   5.299626   5.073870   2.583934
    16  H    2.894561   4.233414   5.271376   5.222569   2.332762
    17  H    2.894732   4.233721   5.271688   5.222871   2.332808
    18  C    4.487729   5.908091   6.758343   6.384688   4.093325
    19  H    4.911535   6.306997   7.039278   6.542298   4.643780
    20  H    4.911478   6.306835   7.039150   6.542226   4.643725
    21  C    5.391525   6.773908   7.812759   7.630082   4.727431
    22  H    5.402050   6.726581   7.841333   7.775130   4.644611
    23  H    5.401719   6.726134   7.840955   7.774859   4.644237
    24  C    3.859287   2.549648   1.515086   2.549559   4.700545
    25  H    4.140528   2.793144   2.135100   3.260484   4.852075
    26  H    4.140625   2.793214   2.135080   3.260337   4.852225
    27  C    5.071210   3.912742   2.592680   2.966596   6.021173
    28  H    5.217670   4.207139   2.849723   2.893146   6.211564
    29  H    5.217368   4.206961   2.849524   2.892869   6.211269
    30  C    6.383037   5.098582   3.938377   4.489917   7.249218
    31  H    6.542666   5.212391   4.204437   4.915574   7.334230
    32  H    6.542716   5.212310   4.204415   4.915686   7.334255
    33  C    7.627014   6.432213   5.148266   5.390911   8.562427
    34  H    7.769693   6.657980   5.326966   5.398528   8.740682
    35  H    7.770010   6.658143   5.327218   5.399000   8.740951
    36  C    3.544160   2.641039   3.595747   4.892552   3.454603
    37  H    6.428727   7.826547   8.814038   8.541043   5.810430
    38  H    8.539044   7.280659   6.071123   6.428939   9.429098
    39  C    4.899658   4.064790   4.960275   6.287969   4.649317
    40  C    5.448230   4.929468   6.035930   7.286414   4.921443
    41  C    6.841740   6.289220   7.331845   8.617400   6.295268
    42  C    7.649010   6.875850   7.717599   9.069066   7.254885
    43  C    7.279493   6.297045   6.922726   8.302387   7.082279
    44  C    5.991148   4.939468   5.529272   6.909168   5.899018
    45  H    8.727968   7.968213   8.798298  10.154268   8.303570
    46  H    8.145378   7.064529   7.528437   8.909603   8.033508
    47  H    4.976095   4.740883   6.007394   7.143734   4.277060
    48  H    5.981210   4.759247   5.069195   6.444783   6.086986
    49  H    7.439169   7.052313   8.189446   9.427495   6.766807
                   11         12         13         14         15
    11  H    0.000000
    12  C    4.702131   0.000000
    13  H    4.848070   1.104743   0.000000
    14  H    4.848335   1.104748   1.739941   0.000000
    15  C    6.022515   1.530508   2.169243   2.169185   0.000000
    16  H    6.215345   2.172673   2.539323   3.086442   1.105903
    17  H    6.215669   2.172659   3.086468   2.539036   1.105906
    18  C    7.249086   2.547203   2.770173   2.770321   1.533766
    19  H    7.331843   2.768730   3.078513   2.531896   2.165137
    20  H    7.331768   2.768929   2.531958   3.079132   2.165144
    21  C    8.563759   3.919307   4.203456   4.203406   2.557386
    22  H    8.744531   4.252533   4.777651   4.441664   2.831389
    23  H    8.744279   4.252528   4.442003   4.777614   2.831202
    24  C    2.786123   5.918514   6.337383   6.337428   6.767181
    25  H    3.563770   6.338574   6.910436   6.686486   7.058328
    26  H    3.563530   6.338540   6.686424   6.910448   7.058282
    27  C    2.593682   6.769925   7.058760   7.058841   7.828396
    28  H    2.338759   6.674409   6.789747   7.012760   7.819904
    29  H    2.338545   6.674065   7.012244   6.789489   7.819638
    30  C    4.102240   8.250005   8.557732   8.557731   9.236149
    31  H    4.654071   8.539989   8.974772   8.801917   9.435146
    32  H    4.654209   8.540150   8.802206   8.974927   9.435210
    33  C    4.732426   9.249019   9.465368   9.465457  10.366944
    34  H    4.646071   9.226240   9.477967   9.313465  10.406596
    35  H    4.646633   9.226755   9.313892   9.478731  10.406983
    36  C    5.747406   6.051063   6.729331   6.729802   6.032481
    37  H    9.429060   4.731055   4.879366   4.879483   3.516605
    38  H    5.816007  10.272550  10.509821  10.509812  11.342483
    39  C    7.099881   7.352050   8.041068   8.041559   7.166377
    40  C    8.187323   7.697490   8.414030   8.414454   7.227745
    41  C    9.482967   9.069601   9.782583   9.783013   8.534741
    42  C    9.829639  10.019046  10.715086  10.715588   9.633528
    43  C    8.958981   9.767062  10.436038  10.436600   9.596443
    44  C    7.571211   8.511836   9.168996   9.169561   8.460567
    45  H   10.901613  11.074604  11.771375  11.771878  10.638285
    46  H    9.471088  10.665837  11.315727  11.316329  10.578155
    47  H    8.122182   7.021933   7.750682   7.751026   6.393662
    48  H    6.982194   8.527347   9.144030   9.144645   8.670489
    49  H   10.340023   9.506125  10.223523  10.223898   8.810096
                   16         17         18         19         20
    16  H    0.000000
    17  H    1.769469   0.000000
    18  C    2.163476   2.163474   0.000000
    19  H    3.075860   2.518077   1.105397   0.000000
    20  H    2.517937   3.075865   1.105397   1.763564   0.000000
    21  C    2.780962   2.780791   1.530625   2.168406   2.168394
    22  H    3.149633   2.601933   2.188536   2.539391   3.096245
    23  H    2.601911   3.149075   2.188529   3.096254   2.539521
    24  C    6.672888   6.673223   8.247397   8.536522   8.536353
    25  H    7.014589   6.790598   8.557096   8.799688   8.973162
    26  H    6.790218   7.014930   8.556981   8.973216   8.799317
    27  C    7.821001   7.821303   9.236428   9.434509   9.434397
    28  H    7.768599   7.967717   9.168993   9.404422   9.237055
    29  H    7.967158   7.768657   9.168760   9.236940   9.404104
    30  C    9.169797   9.170051  10.678893  10.901878  10.901786
    31  H    9.406327   9.239010  10.902744  11.091142  11.230538
    32  H    9.238824   9.406577  10.902802  11.230683  11.091127
    33  C   10.362786  10.363078  11.749448  11.904791  11.904690
    34  H   10.519018  10.368696  11.743005  11.795564  11.927647
    35  H   10.368688  10.519687  11.743409  11.928204  11.795865
    36  C    5.620368   5.621417   7.519490   8.058641   8.057854
    37  H    3.793373   3.793350   2.188671   2.512711   2.512544
    38  H   11.302077  11.302296  12.751741  12.927347  12.927296
    39  C    6.683103   6.684192   8.595793   9.175326   9.174441
    40  C    6.677816   6.678865   8.534302   9.170009   9.169104
    41  C    7.958909   7.959946   9.786632  10.435153  10.434201
    42  C    9.076269   9.077362  10.955839  11.579315  11.578318
    43  C    9.088324   9.089458  11.012119  11.592370  11.591378
    44  C    7.996099   7.997229   9.921868  10.473791  10.472853
    45  H   10.064605  10.065691  11.925702  12.559068  12.558043
    46  H   10.083711  10.084867  12.017420  12.580238  12.579220
    47  H    5.827738   5.828719   7.624199   8.285337   8.284486
    48  H    8.262392   8.263529  10.175605  10.680123  10.679201
    49  H    8.209454   8.210423   9.951301  10.623986  10.623046
                   21         22         23         24         25
    21  C    0.000000
    22  H    1.103820   0.000000
    23  H    1.103819   1.779309   0.000000
    24  C    9.246978   9.226176   9.225742   0.000000
    25  H    9.466130   9.315976   9.481169   1.105711   0.000000
    26  H    9.466067   9.481657   9.315476   1.105718   1.750363
    27  C   10.367486  10.408848  10.408497   1.530857   2.164783
    28  H   10.362213  10.520102  10.369182   2.170997   3.082137
    29  H   10.361979  10.369245  10.519524   2.171022   2.530938
    30  C   11.749701  11.744958  11.744606   2.548955   2.767750
    31  H   11.905996  11.798403  11.930424   2.772380   2.530652
    32  H   11.906027  11.930814  11.798082   2.772149   3.080889
    33  C   12.913259  12.956470  12.956132   3.920351   4.199596
    34  H   12.954780  12.969815  13.090895   4.251886   4.435080
    35  H   12.955129  13.091575  12.969801   4.251913   4.773006
    36  C    7.941450   7.680683   7.679492   3.668541   3.345766
    37  H    1.101961   1.779679   1.779672  10.270184  10.510049
    38  H   13.876044  13.889870  13.889567   4.732942   4.877018
    39  C    8.830804   8.488556   8.487218   4.800858   4.342993
    40  C    8.521191   8.101682   8.100266   6.087590   5.652521
    41  C    9.653582   9.187176   9.185704   7.233750   6.733298
    42  C   10.923798  10.475763  10.474271   7.341032   6.775549
    43  C   11.173290  10.783267  10.781816   6.329472   5.742721
    44  C   10.218176   9.882434   9.881062   4.973484   4.419694
    45  H   11.817645  11.342249  11.340726   8.375041   7.789962
    46  H   12.225835  11.844225  11.842762   6.745811   6.136003
    47  H    7.513403   7.078743   7.077353   6.326243   5.974476
    48  H   10.622872  10.339325  10.338007   4.262253   3.697714
    49  H    9.649138   9.139004   9.137526   8.206852   7.724194
                   26         27         28         29         30
    26  H    0.000000
    27  C    2.164766   0.000000
    28  H    2.530646   1.105257   0.000000
    29  H    3.082149   1.105255   1.768033   0.000000
    30  C    2.767988   1.533638   2.163879   2.163881   0.000000
    31  H    3.081653   2.165894   3.076697   2.518815   1.105919
    32  H    2.530652   2.165882   2.518967   3.076688   1.105917
    33  C    4.199607   2.556860   2.781208   2.781397   1.530743
    34  H    4.773006   2.829409   3.147947   2.601357   2.187845
    35  H    4.434768   2.829654   2.601425   3.148622   2.187852
    36  C    3.344736   5.175883   5.716586   5.717318   5.745693
    37  H   10.509910  11.342727  11.301131  11.300947  12.751735
    38  H    4.877236   3.516342   3.793986   3.793990   2.188974
    39  C    4.341996   6.232485   6.827955   6.828798   6.533563
    40  C    5.651783   7.561176   8.117849   8.118543   7.934127
    41  C    6.732566   8.650873   9.241926   9.242690   8.847226
    42  C    6.774665   8.634416   9.276691   9.277635   8.584880
    43  C    5.741631   7.513339   8.186865   8.187964   7.324553
    44  C    4.418458   6.220681   6.886506   6.887600   6.181366
    45  H    7.789113   9.627854  10.278504  10.279469   9.487795
    46  H    6.134841   7.774714   8.470087   8.471310   7.368809
    47  H    5.973913   7.845911   8.340023   8.340542   8.407229
    48  H    3.696164   5.366094   6.065537   6.066818   5.177363
    49  H    7.723582   9.653859  10.222304  10.222978   9.907450
                   31         32         33         34         35
    31  H    0.000000
    32  H    1.765367   0.000000
    33  C    2.168159   2.168174   0.000000
    34  H    2.538422   3.095626   1.103487   0.000000
    35  H    3.095615   2.538249   1.103487   1.778508   0.000000
    36  C    5.538316   5.537203   7.269782   7.697614   7.696871
    37  H   12.928339  12.928339  13.875725  13.887860  13.888196
    38  H    2.512356   2.512575   1.101984   1.779982   1.779989
    39  C    6.200981   6.199662   8.059406   8.556654   8.555685
    40  C    7.600184   7.599058   9.462360   9.941920   9.941056
    41  C    8.439831   8.438597  10.354880  10.878775  10.877765
    42  C    8.106963   8.105477  10.038223  10.615938  10.614688
    43  C    6.826593   6.824864   8.742877   9.346062   9.344659
    44  C    5.746089   5.744365   7.655376   8.227764   8.226468
    45  H    8.977015   8.975506  10.906403  11.502520  11.501199
    46  H    6.820995   6.819072   8.695519   9.335465   9.333866
    47  H    8.138142   8.137245   9.935798  10.362859  10.362200
    48  H    4.727119   4.725055   6.623108   7.221802   7.220337
    49  H    9.507420   9.506302  11.421203  11.931590  11.930657
                   36         37         38         39         40
    36  C    0.000000
    37  H    9.043411   0.000000
    38  H    7.819169  14.857886   0.000000
    39  C    1.423775   9.924011   8.453337   0.000000
    40  C    2.462788   9.581505   9.866668   1.413360   0.000000
    41  C    3.736208  10.683838  10.643385   2.433802   1.393531
    42  C    4.234855  11.973207  10.185689   2.811080   2.422626
    43  C    3.736590  12.255178   8.837417   2.433976   2.801620
    44  C    2.463260  11.314624   7.874184   1.413418   2.436049
    45  H    5.327223  12.847356  10.980145   3.903448   3.411292
    46  H    4.615456  13.312291   8.653024   3.422382   3.893967
    47  H    2.681503   8.558457  10.437132   2.166383   1.091466
    48  H    2.682215  11.724801   6.800464   2.166408   3.422737
    49  H    4.615070  10.631384  11.727555   3.422272   2.154733
                   41         42         43         44         45
    41  C    0.000000
    42  C    1.400121   0.000000
    43  C    2.424579   1.400216   0.000000
    44  C    2.801326   2.422482   1.393479   0.000000
    45  H    2.164179   1.092368   2.164490   3.411333   0.000000
    46  H    3.415145   2.164810   1.092348   2.154649   2.494231
    47  H    2.163487   3.415287   3.893054   3.422769   4.316932
    48  H    3.892750   3.415116   2.163304   1.091454   4.317008
    49  H    1.092343   2.164518   3.415028   3.893668   2.493473
                   46         47         48         49
    46  H    0.000000
    47  H    4.985402   0.000000
    48  H    2.489433   4.320092   0.000000
    49  H    4.318108   2.489750   4.985093   0.000000
 Stoichiometry    C24H25(2)
 Framework group  C1[X(C24H25)]
 Deg. of freedom   141
 Full point group                 C1      NOp   1
 Largest Abelian subgroup         C1      NOp   1
 Largest concise Abelian subgroup C1      NOp   1
                         Standard orientation:                         
 ---------------------------------------------------------------------
 Center     Atomic      Atomic             Coordinates (Angstroms)
 Number     Number       Type             X           Y           Z
 ---------------------------------------------------------------------
      1          6           0       -5.020109    2.853733   -0.005875
      2          6           0       -3.911094    2.205487   -0.000266
      3          6           0        1.005228   -0.521865    0.001393
      4          6           0       -2.705087    1.507740    0.000078
      5          6           0       -2.675785    0.065044    0.000534
      6          6           0       -1.434777   -0.550273    0.001123
      7          6           0       -0.220349    0.186413    0.001084
      8          6           0       -0.236542    1.619627    0.000685
      9          6           0       -1.474097    2.236493    0.000107
     10          1           0       -1.361259   -1.637490    0.001522
     11          1           0       -1.552165    3.323227   -0.000320
     12          6           0       -3.976312   -0.705861    0.000355
     13          1           0       -4.568943   -0.370948   -0.869748
     14          1           0       -4.569251   -0.370788    0.870193
     15          6           0       -3.875621   -2.233053    0.000589
     16          1           0       -3.305805   -2.573775   -0.883853
     17          1           0       -3.306561   -2.573531    0.885616
     18          6           0       -5.251467   -2.910906    0.000099
     19          1           0       -5.824631   -2.569513    0.881482
     20          1           0       -5.823738   -2.570073   -0.882081
     21          6           0       -5.168940   -4.439305    0.000611
     22          1           0       -4.633032   -4.811947    0.890757
     23          1           0       -4.631768   -4.812467   -0.888552
     24          6           0        1.071147    2.384764    0.000802
     25          1           0        1.661303    2.055989    0.876142
     26          1           0        1.661609    2.055670   -0.874221
     27          6           0        0.973687    3.912515    0.000481
     28          1           0        0.404100    4.251746   -0.883876
     29          1           0        0.403260    4.252101    0.884157
     30          6           0        2.349612    4.589917    0.000995
     31          1           0        2.922074    4.250207    0.884138
     32          1           0        2.923065    4.249498   -0.881229
     33          6           0        2.266582    6.118407    0.000354
     34          1           0        1.728562    6.490540    0.889024
     35          1           0        1.730040    6.489884   -0.889484
     36          6           0        2.058547   -1.148398   -0.000355
     37          1           0       -6.171424   -4.896847    0.000026
     38          1           0        3.268821    6.576538    0.001025
     39          6           0        3.281895   -1.876789   -0.000514
     40          6           0        3.274406   -3.290129   -0.000169
     41          6           0        4.474564   -3.998330   -0.000263
     42          6           0        5.696898   -3.315514   -0.000776
     43          6           0        5.715564   -1.915423   -0.001185
     44          6           0        4.521319   -1.197394   -0.001069
     45          1           0        6.635216   -3.874825   -0.000874
     46          1           0        6.668147   -1.380811   -0.001612
     47          1           0        2.318668   -3.817255    0.000223
     48          1           0        4.529908   -0.105974   -0.001420
     49          1           0        4.458195   -5.090550    0.000049
 ---------------------------------------------------------------------
 Rotational constants (GHZ):      0.1950311      0.1297797      0.0782284
 Leave Link  202 at Fri May 10 15:44:19 2024, MaxMem=    33554432 cpu:         0.1
 (Enter /hits/basement/its/doserbd/software/gaussian/g09d1/g09/l301.exe)
 Standard basis: 6-31+G (6D, 7F)
 Ernie: Thresh=  0.10000D-02 Tol=  0.10000D-05 Strict=F.
 There are   362 symmetry adapted cartesian basis functions of A   symmetry.
 There are   362 symmetry adapted basis functions of A   symmetry.
   362 basis functions,   724 primitive gaussians,   362 cartesian basis functions
    85 alpha electrons       84 beta electrons
       nuclear repulsion energy      1728.3203723244 Hartrees.
 IExCor= 3226 DFT=T Ex+Corr=BMK ExCW=0 ScaHFX=  0.420000
 ScaDFX=  1.000000  1.000000  1.000000  1.000000 ScalE2=  1.000000  1.000000
 IRadAn=      0 IRanWt=     -1 IRanGd=            0 ICorTp=0 IEmpDi=  4
 NAtoms=   49 NActive=   49 NUniq=   49 SFac= 1.00D+00 NAtFMM=   60 NAOKFM=F Big=F
 Integral buffers will be    131072 words long.
 Raffenetti 2 integral format.
 Two-electron integral symmetry is turned on.
 Leave Link  301 at Fri May 10 15:44:20 2024, MaxMem=    33554432 cpu:         0.3
 (Enter /hits/basement/its/doserbd/software/gaussian/g09d1/g09/l302.exe)
 NPDir=0 NMtPBC=     1 NCelOv=     1 NCel=       1 NClECP=     1 NCelD=      1
         NCelK=      1 NCelE2=     1 NClLst=     1 CellRange=     0.0.
 One-electron integrals computed using PRISM.
 NBasis=   362 RedAO= T EigKep=  1.31D-06  NBF=   362
 NBsUse=   351 1.00D-06 EigRej=  7.26D-07 NBFU=   351
 Precomputing XC quadrature grid using
 IXCGrd= 4 IRadAn=           0 IRanWt=          -1 IRanGd=           0 AccXCQ= 0.00D+00.
 Generated NRdTot=       0 NPtTot=           0 NUsed=           0 NTot=          32
 NSgBfM=   349   351   353   354   354 MxSgAt=    49 MxSgA2=    49.
 Leave Link  302 at Fri May 10 15:44:20 2024, MaxMem=    33554432 cpu:         3.0
 (Enter /hits/basement/its/doserbd/software/gaussian/g09d1/g09/l303.exe)
 DipDrv:  MaxL=1.
 Leave Link  303 at Fri May 10 15:44:20 2024, MaxMem=    33554432 cpu:         0.3
 (Enter /hits/basement/its/doserbd/software/gaussian/g09d1/g09/l401.exe)
 ExpMin= 4.38D-02 ExpMax= 3.05D+03 ExpMxC= 4.57D+02 IAcc=2 IRadAn=         4 AccDes= 0.00D+00
 Harris functional with IExCor= 1009 and IRadAn=       4 diagonalized for initial guess.
 HarFok:  IExCor= 1009 AccDes= 0.00D+00 IRadAn=         4 IDoV= 1 UseB2=F ITyADJ=14
 ICtDFT=  3500011 ScaDFX=  1.000000  1.000000  1.000000  1.000000
 FoFCou: FMM=F IPFlag=           0 FMFlag=      100000 FMFlg1=           0
         NFxFlg=           0 DoJE=T BraDBF=F KetDBF=T FulRan=T
         wScrn=  0.000000 ICntrl=     500 IOpCl=  0 I1Cent=   200000004 NGrid=           0
         NMat0=    1 NMatS0=      1 NMatT0=    0 NMatD0=    1 NMtDS0=    0 NMtDT0=    0
 Petite list used in FoFCou.
 Harris En= -928.379750996584    
 JPrj=0 DoOrth=F DoCkMO=F.
 Initial guess <Sx>= 0.0000 <Sy>= 0.0000 <Sz>= 0.5000 <S**2>= 0.7500 S= 0.5000
 Leave Link  401 at Fri May 10 15:44:22 2024, MaxMem=    33554432 cpu:        11.1
 (Enter /hits/basement/its/doserbd/software/gaussian/g09d1/g09/l502.exe)
 UHF open shell SCF:
 Using DIIS extrapolation, IDIIS=  1040.
 Integral symmetry usage will be decided dynamically.
 IVT=      417356 IEndB=      417356 NGot=    33554432 MDV=    33285123
 LenX=    33285123 LenY=    33153638
 Requested convergence on RMS density matrix=1.00D-08 within 128 cycles.
 Requested convergence on MAX density matrix=1.00D-06.
 Requested convergence on             energy=1.00D-06.
 No special actions if energy rises.
 Fock matrices will be formed incrementally for  20 cycles.

 Cycle   1  Pass 1  IDiag  1:
 FoFJK:  IHMeth= 1 ICntrl=       0 DoSepK=F KAlg= 0 I1Cent=   0 FoldK=F
 IRaf= 720000000 NMat=   1 IRICut=       1 DoRegI=T DoRafI=F ISym2E= 0.
 FoFCou: FMM=F IPFlag=           0 FMFlag=      100000 FMFlg1=           0
         NFxFlg=           0 DoJE=F BraDBF=F KetDBF=F FulRan=T
         wScrn=  0.000000 ICntrl=       0 IOpCl=  1 I1Cent=           0 NGrid=           0
         NMat0=    1 NMatS0=      1 NMatT0=    0 NMatD0=    1 NMtDS0=    0 NMtDT0=    0
 Symmetry not used in FoFCou.
 E= -928.071623246069    
 DIIS: error= 3.36D-02 at cycle   1 NSaved=   1.
 NSaved= 1 IEnMin= 1 EnMin= -928.071623246069     IErMin= 1 ErrMin= 3.36D-02
 ErrMax= 3.36D-02  0.00D+00 EMaxC= 1.00D-01 BMatC= 1.60D+00 BMatP= 1.60D+00
 IDIUse=3 WtCom= 6.64D-01 WtEn= 3.36D-01
 Coeff-Com:  0.100D+01
 Coeff-En:   0.100D+01
 Coeff:      0.100D+01
 Gap=     0.168 Goal=   None    Shift=    0.000
 Gap=     0.136 Goal=   None    Shift=    0.000
 GapD=    0.136 DampG=1.000 DampE=0.500 DampFc=0.5000 IDamp=-1.
 Damping current iteration by 5.00D-01
 RMSDP=6.80D-02 MaxDP=7.58D+00              OVMax= 5.05D-01

 Cycle   2  Pass 1  IDiag  1:
 RMSU=  2.64D-02    CP:  1.16D+00
 E= -928.318827396866     Delta-E=       -0.247204150797 Rises=F Damp=T
 DIIS: error= 7.57D-03 at cycle   2 NSaved=   2.
 NSaved= 2 IEnMin= 2 EnMin= -928.318827396866     IErMin= 2 ErrMin= 7.57D-03
 ErrMax= 7.57D-03  0.00D+00 EMaxC= 1.00D-01 BMatC= 8.41D-02 BMatP= 1.60D+00
 IDIUse=3 WtCom= 9.24D-01 WtEn= 7.57D-02
 Coeff-Com: -0.507D-01 0.105D+01
 Coeff-En:   0.000D+00 0.100D+01
 Coeff:     -0.469D-01 0.105D+01
 Gap=     0.256 Goal=   None    Shift=    0.000
 Gap=     0.157 Goal=   None    Shift=    0.000
 RMSDP=2.70D-02 MaxDP=2.32D+00 DE=-2.47D-01 OVMax= 2.76D-01

 Cycle   3  Pass 1  IDiag  1:
 RMSU=  2.30D-02    CP:  1.27D+00  1.06D+00
 E= -928.542830401077     Delta-E=       -0.224003004211 Rises=F Damp=F
 DIIS: error= 1.12D-02 at cycle   3 NSaved=   3.
 NSaved= 3 IEnMin= 3 EnMin= -928.542830401077     IErMin= 2 ErrMin= 7.57D-03
 ErrMax= 1.12D-02  0.00D+00 EMaxC= 1.00D-01 BMatC= 7.14D-02 BMatP= 8.41D-02
 IDIUse=3 WtCom= 8.88D-01 WtEn= 1.12D-01
 Coeff-Com: -0.518D-01 0.525D+00 0.527D+00
 Coeff-En:   0.000D+00 0.000D+00 0.100D+01
 Coeff:     -0.460D-01 0.467D+00 0.579D+00
 Gap=     0.186 Goal=   None    Shift=    0.000
 Gap=     0.124 Goal=   None    Shift=    0.000
 RMSDP=5.55D-03 MaxDP=3.83D-01 DE=-2.24D-01 OVMax= 1.97D-01

 Cycle   4  Pass 1  IDiag  1:
 RMSU=  4.65D-03    CP:  1.29D+00  1.10D+00  9.82D-01
 E= -928.563220296079     Delta-E=       -0.020389895002 Rises=F Damp=F
 DIIS: error= 6.86D-03 at cycle   4 NSaved=   4.
 NSaved= 4 IEnMin= 4 EnMin= -928.563220296079     IErMin= 4 ErrMin= 6.86D-03
 ErrMax= 6.86D-03  0.00D+00 EMaxC= 1.00D-01 BMatC= 2.15D-02 BMatP= 7.14D-02
 IDIUse=3 WtCom= 9.31D-01 WtEn= 6.86D-02
 Coeff-Com: -0.813D-02 0.752D-01 0.356D+00 0.577D+00
 Coeff-En:   0.000D+00 0.000D+00 0.225D+00 0.775D+00
 Coeff:     -0.757D-02 0.700D-01 0.347D+00 0.591D+00
 Gap=     0.188 Goal=   None    Shift=    0.000
 Gap=     0.131 Goal=   None    Shift=    0.000
 RMSDP=2.26D-03 MaxDP=1.56D-01 DE=-2.04D-02 OVMax= 4.30D-02

 Cycle   5  Pass 1  IDiag  1:
 RMSU=  2.10D-03    CP:  1.29D+00  1.11D+00  9.72D-01  8.38D-01
 E= -928.570815778568     Delta-E=       -0.007595482489 Rises=F Damp=F
 DIIS: error= 1.30D-03 at cycle   5 NSaved=   5.
 NSaved= 5 IEnMin= 5 EnMin= -928.570815778568     IErMin= 5 ErrMin= 1.30D-03
 ErrMax= 1.30D-03  0.00D+00 EMaxC= 1.00D-01 BMatC= 1.53D-03 BMatP= 2.15D-02
 IDIUse=3 WtCom= 9.87D-01 WtEn= 1.30D-02
 Coeff-Com:  0.310D-02-0.147D-01 0.143D+00 0.302D+00 0.566D+00
 Coeff-En:   0.000D+00 0.000D+00 0.000D+00 0.000D+00 0.100D+01
 Coeff:      0.306D-02-0.145D-01 0.141D+00 0.299D+00 0.572D+00
 Gap=     0.187 Goal=   None    Shift=    0.000
 Gap=     0.128 Goal=   None    Shift=    0.000
 RMSDP=9.96D-04 MaxDP=9.41D-02 DE=-7.60D-03 OVMax= 1.82D-02

 Cycle   6  Pass 1  IDiag  1:
 RMSU=  5.96D-04    CP:  1.29D+00  1.11D+00  9.77D-01  9.10D-01  1.33D+00
 E= -928.571389719002     Delta-E=       -0.000573940434 Rises=F Damp=F
 DIIS: error= 9.57D-04 at cycle   6 NSaved=   6.
 NSaved= 6 IEnMin= 6 EnMin= -928.571389719002     IErMin= 6 ErrMin= 9.57D-04
 ErrMax= 9.57D-04  0.00D+00 EMaxC= 1.00D-01 BMatC= 4.54D-04 BMatP= 1.53D-03
 IDIUse=3 WtCom= 9.90D-01 WtEn= 9.57D-03
 Coeff-Com:  0.402D-02-0.198D-01 0.131D-01 0.238D-01 0.319D+00 0.659D+00
 Coeff-En:   0.000D+00 0.000D+00 0.000D+00 0.000D+00 0.000D+00 0.100D+01
 Coeff:      0.398D-02-0.196D-01 0.129D-01 0.236D-01 0.316D+00 0.663D+00
 Gap=     0.188 Goal=   None    Shift=    0.000
 Gap=     0.131 Goal=   None    Shift=    0.000
 RMSDP=6.93D-04 MaxDP=7.42D-02 DE=-5.74D-04 OVMax= 1.77D-02

 Cycle   7  Pass 1  IDiag  1:
 RMSU=  2.57D-04    CP:  1.29D+00  1.12D+00  9.75D-01  9.75D-01  1.58D+00
                    CP:  1.28D+00
 E= -928.571646662458     Delta-E=       -0.000256943456 Rises=F Damp=F
 DIIS: error= 5.19D-04 at cycle   7 NSaved=   7.
 NSaved= 7 IEnMin= 7 EnMin= -928.571646662458     IErMin= 7 ErrMin= 5.19D-04
 ErrMax= 5.19D-04  0.00D+00 EMaxC= 1.00D-01 BMatC= 1.28D-04 BMatP= 4.54D-04
 IDIUse=3 WtCom= 9.95D-01 WtEn= 5.19D-03
 Coeff-Com:  0.624D-03-0.819D-03-0.459D-01-0.135D+00-0.113D+00 0.343D+00
 Coeff-Com:  0.951D+00
 Coeff-En:   0.000D+00 0.000D+00 0.000D+00 0.000D+00 0.000D+00 0.000D+00
 Coeff-En:   0.100D+01
 Coeff:      0.621D-03-0.815D-03-0.457D-01-0.135D+00-0.112D+00 0.342D+00
 Coeff:      0.951D+00
 Gap=     0.189 Goal=   None    Shift=    0.000
 Gap=     0.132 Goal=   None    Shift=    0.000
 RMSDP=6.63D-04 MaxDP=7.02D-02 DE=-2.57D-04 OVMax= 1.59D-02

 Cycle   8  Pass 1  IDiag  1:
 RMSU=  1.51D-04    CP:  1.29D+00  1.12D+00  9.71D-01  1.01D+00  1.84D+00
                    CP:  1.61D+00  1.31D+00
 E= -928.571783561283     Delta-E=       -0.000136898826 Rises=F Damp=F
 DIIS: error= 1.86D-04 at cycle   8 NSaved=   8.
 NSaved= 8 IEnMin= 8 EnMin= -928.571783561283     IErMin= 8 ErrMin= 1.86D-04
 ErrMax= 1.86D-04  0.00D+00 EMaxC= 1.00D-01 BMatC= 2.49D-05 BMatP= 1.28D-04
 IDIUse=3 WtCom= 9.98D-01 WtEn= 1.86D-03
 Coeff-Com: -0.705D-03 0.429D-02-0.159D-01-0.595D-01-0.121D+00-0.116D-01
 Coeff-Com:  0.343D+00 0.861D+00
 Coeff-En:   0.000D+00 0.000D+00 0.000D+00 0.000D+00 0.000D+00 0.000D+00
 Coeff-En:   0.000D+00 0.100D+01
 Coeff:     -0.704D-03 0.428D-02-0.159D-01-0.594D-01-0.121D+00-0.116D-01
 Coeff:      0.343D+00 0.862D+00
 Gap=     0.190 Goal=   None    Shift=    0.000
 Gap=     0.133 Goal=   None    Shift=    0.000
 RMSDP=2.71D-04 MaxDP=2.85D-02 DE=-1.37D-04 OVMax= 5.77D-03

 Cycle   9  Pass 1  IDiag  1:
 RMSU=  8.66D-05    CP:  1.30D+00  1.12D+00  9.71D-01  1.01D+00  1.92D+00
                    CP:  1.71D+00  1.52D+00  1.39D+00
 E= -928.571806341716     Delta-E=       -0.000022780433 Rises=F Damp=F
 DIIS: error= 1.42D-04 at cycle   9 NSaved=   9.
 NSaved= 9 IEnMin= 9 EnMin= -928.571806341716     IErMin= 9 ErrMin= 1.42D-04
 ErrMax= 1.42D-04  0.00D+00 EMaxC= 1.00D-01 BMatC= 5.64D-06 BMatP= 2.49D-05
 IDIUse=3 WtCom= 9.99D-01 WtEn= 1.42D-03
 Coeff-Com: -0.357D-03 0.157D-02 0.117D-01 0.221D-01-0.119D-01-0.112D+00
 Coeff-Com: -0.177D+00 0.385D+00 0.881D+00
 Coeff-En:   0.000D+00 0.000D+00 0.000D+00 0.000D+00 0.000D+00 0.000D+00
 Coeff-En:   0.000D+00 0.000D+00 0.100D+01
 Coeff:     -0.356D-03 0.156D-02 0.117D-01 0.220D-01-0.118D-01-0.112D+00
 Coeff:     -0.177D+00 0.385D+00 0.882D+00
 Gap=     0.190 Goal=   None    Shift=    0.000
 Gap=     0.132 Goal=   None    Shift=    0.000
 RMSDP=6.40D-05 MaxDP=4.94D-03 DE=-2.28D-05 OVMax= 2.36D-03

 Cycle  10  Pass 1  IDiag  1:
 RMSU=  3.06D-05    CP:  1.30D+00  1.12D+00  9.71D-01  1.01D+00  1.93D+00
                    CP:  1.74D+00  1.56D+00  1.55D+00  1.06D+00
 E= -928.571811113989     Delta-E=       -0.000004772272 Rises=F Damp=F
 DIIS: error= 3.72D-05 at cycle  10 NSaved=  10.
 NSaved=10 IEnMin=10 EnMin= -928.571811113989     IErMin=10 ErrMin= 3.72D-05
 ErrMax= 3.72D-05  0.00D+00 EMaxC= 1.00D-01 BMatC= 6.95D-07 BMatP= 5.64D-06
 IDIUse=1 WtCom= 1.00D+00 WtEn= 0.00D+00
 Coeff-Com:  0.716D-04-0.366D-03 0.451D-02 0.118D-01 0.140D-01-0.191D-01
 Coeff-Com: -0.811D-01-0.296D-01 0.189D+00 0.911D+00
 Coeff:      0.716D-04-0.366D-03 0.451D-02 0.118D-01 0.140D-01-0.191D-01
 Coeff:     -0.811D-01-0.296D-01 0.189D+00 0.911D+00
 Gap=     0.190 Goal=   None    Shift=    0.000
 Gap=     0.132 Goal=   None    Shift=    0.000
 RMSDP=2.88D-05 MaxDP=2.98D-03 DE=-4.77D-06 OVMax= 5.53D-04

 Cycle  11  Pass 1  IDiag  1:
 RMSU=  1.21D-05    CP:  1.30D+00  1.12D+00  9.71D-01  1.01D+00  1.93D+00
                    CP:  1.74D+00  1.57D+00  1.56D+00  1.16D+00  9.25D-01
 E= -928.571811646140     Delta-E=       -0.000000532151 Rises=F Damp=F
 DIIS: error= 2.47D-05 at cycle  11 NSaved=  11.
 NSaved=11 IEnMin=11 EnMin= -928.571811646140     IErMin=11 ErrMin= 2.47D-05
 ErrMax= 2.47D-05  0.00D+00 EMaxC= 1.00D-01 BMatC= 3.93D-07 BMatP= 6.95D-07
 IDIUse=1 WtCom= 1.00D+00 WtEn= 0.00D+00
 Coeff-Com:  0.139D-03-0.587D-03-0.761D-03 0.672D-03 0.117D-01 0.196D-01
 Coeff-Com: -0.133D-02-0.122D+00-0.146D+00 0.540D+00 0.699D+00
 Coeff:      0.139D-03-0.587D-03-0.761D-03 0.672D-03 0.117D-01 0.196D-01
 Coeff:     -0.133D-02-0.122D+00-0.146D+00 0.540D+00 0.699D+00
 Gap=     0.190 Goal=   None    Shift=    0.000
 Gap=     0.132 Goal=   None    Shift=    0.000
 RMSDP=1.03D-05 MaxDP=5.56D-04 DE=-5.32D-07 OVMax= 3.47D-04

 Cycle  12  Pass 1  IDiag  1:
 RMSU=  7.21D-06    CP:  1.30D+00  1.12D+00  9.72D-01  1.01D+00  1.93D+00
                    CP:  1.74D+00  1.56D+00  1.56D+00  1.15D+00  1.04D+00
                    CP:  1.17D+00
 E= -928.571811879695     Delta-E=       -0.000000233555 Rises=F Damp=F
 DIIS: error= 1.11D-05 at cycle  12 NSaved=  12.
 NSaved=12 IEnMin=12 EnMin= -928.571811879695     IErMin=12 ErrMin= 1.11D-05
 ErrMax= 1.11D-05  0.00D+00 EMaxC= 1.00D-01 BMatC= 1.02D-07 BMatP= 3.93D-07
 IDIUse=1 WtCom= 1.00D+00 WtEn= 0.00D+00
 Coeff-Com:  0.548D-04-0.243D-03-0.142D-02-0.203D-02 0.359D-02 0.140D-01
 Coeff-Com:  0.157D-01-0.492D-01-0.123D+00 0.102D+00 0.381D+00 0.660D+00
 Coeff:      0.548D-04-0.243D-03-0.142D-02-0.203D-02 0.359D-02 0.140D-01
 Coeff:      0.157D-01-0.492D-01-0.123D+00 0.102D+00 0.381D+00 0.660D+00
 Gap=     0.190 Goal=   None    Shift=    0.000
 Gap=     0.132 Goal=   None    Shift=    0.000
 RMSDP=8.46D-06 MaxDP=8.64D-04 DE=-2.34D-07 OVMax= 1.69D-04

 Cycle  13  Pass 1  IDiag  1:
 RMSU=  3.13D-06    CP:  1.30D+00  1.12D+00  9.71D-01  1.01D+00  1.93D+00
                    CP:  1.74D+00  1.56D+00  1.54D+00  1.13D+00  1.03D+00
                    CP:  1.31D+00  9.73D-01
 E= -928.571811941898     Delta-E=       -0.000000062204 Rises=F Damp=F
 DIIS: error= 6.22D-06 at cycle  13 NSaved=  13.
 NSaved=13 IEnMin=13 EnMin= -928.571811941898     IErMin=13 ErrMin= 6.22D-06
 ErrMax= 6.22D-06  0.00D+00 EMaxC= 1.00D-01 BMatC= 2.49D-08 BMatP= 1.02D-07
 IDIUse=1 WtCom= 1.00D+00 WtEn= 0.00D+00
 Coeff-Com: -0.463D-04 0.167D-03-0.519D-03-0.123D-02-0.324D-02-0.245D-02
 Coeff-Com:  0.767D-02 0.318D-01-0.130D-01-0.181D+00-0.716D-01 0.312D+00
 Coeff-Com:  0.922D+00
 Coeff:     -0.463D-04 0.167D-03-0.519D-03-0.123D-02-0.324D-02-0.245D-02
 Coeff:      0.767D-02 0.318D-01-0.130D-01-0.181D+00-0.716D-01 0.312D+00
 Coeff:      0.922D+00
 Gap=     0.190 Goal=   None    Shift=    0.000
 Gap=     0.132 Goal=   None    Shift=    0.000
 RMSDP=5.75D-06 MaxDP=5.09D-04 DE=-6.22D-08 OVMax= 1.59D-04

 Cycle  14  Pass 1  IDiag  1:
 RMSU=  2.35D-06    CP:  1.30D+00  1.12D+00  9.71D-01  1.01D+00  1.93D+00
                    CP:  1.74D+00  1.56D+00  1.54D+00  1.11D+00  1.03D+00
                    CP:  1.38D+00  9.44D-01  1.44D+00
 E= -928.571811972950     Delta-E=       -0.000000031052 Rises=F Damp=F
 DIIS: error= 3.56D-06 at cycle  14 NSaved=  14.
 NSaved=14 IEnMin=14 EnMin= -928.571811972950     IErMin=14 ErrMin= 3.56D-06
 ErrMax= 3.56D-06  0.00D+00 EMaxC= 1.00D-01 BMatC= 5.33D-09 BMatP= 2.49D-08
 IDIUse=1 WtCom= 1.00D+00 WtEn= 0.00D+00
 Coeff-Com: -0.235D-04 0.800D-04 0.732D-04 0.172D-03-0.122D-02-0.315D-02
 Coeff-Com: -0.124D-02 0.167D-01 0.123D-01-0.531D-01-0.682D-01-0.768D-01
 Coeff-Com:  0.228D+00 0.947D+00
 Coeff:     -0.235D-04 0.800D-04 0.732D-04 0.172D-03-0.122D-02-0.315D-02
 Coeff:     -0.124D-02 0.167D-01 0.123D-01-0.531D-01-0.682D-01-0.768D-01
 Coeff:      0.228D+00 0.947D+00
 Gap=     0.190 Goal=   None    Shift=    0.000
 Gap=     0.132 Goal=   None    Shift=    0.000
 RMSDP=1.78D-06 MaxDP=1.31D-04 DE=-3.11D-08 OVMax= 8.59D-05

 Cycle  15  Pass 1  IDiag  1:
 RMSU=  1.25D-06    CP:  1.30D+00  1.12D+00  9.71D-01  1.01D+00  1.93D+00
                    CP:  1.74D+00  1.56D+00  1.54D+00  1.11D+00  1.03D+00
                    CP:  1.38D+00  9.59D-01  1.67D+00  1.15D+00
 E= -928.571811980385     Delta-E=       -0.000000007435 Rises=F Damp=F
 DIIS: error= 1.57D-06 at cycle  15 NSaved=  15.
 NSaved=15 IEnMin=15 EnMin= -928.571811980385     IErMin=15 ErrMin= 1.57D-06
 ErrMax= 1.57D-06  0.00D+00 EMaxC= 1.00D-01 BMatC= 2.02D-09 BMatP= 5.33D-09
 IDIUse=1 WtCom= 1.00D+00 WtEn= 0.00D+00
 Coeff-Com:  0.308D-05-0.174D-04 0.214D-03 0.586D-03 0.595D-03-0.837D-03
 Coeff-Com: -0.373D-02-0.277D-02 0.932D-02 0.424D-01-0.421D-02-0.170D+00
 Coeff-Com: -0.223D+00 0.477D+00 0.875D+00
 Coeff:      0.308D-05-0.174D-04 0.214D-03 0.586D-03 0.595D-03-0.837D-03
 Coeff:     -0.373D-02-0.277D-02 0.932D-02 0.424D-01-0.421D-02-0.170D+00
 Coeff:     -0.223D+00 0.477D+00 0.875D+00
 Gap=     0.190 Goal=   None    Shift=    0.000
 Gap=     0.132 Goal=   None    Shift=    0.000
 RMSDP=1.38D-06 MaxDP=9.27D-05 DE=-7.43D-09 OVMax= 5.80D-05

 Cycle  16  Pass 1  IDiag  1:
 RMSU=  6.72D-07    CP:  1.30D+00  1.12D+00  9.71D-01  1.01D+00  1.93D+00
                    CP:  1.74D+00  1.56D+00  1.54D+00  1.11D+00  1.03D+00
                    CP:  1.39D+00  9.48D-01  1.82D+00  1.38D+00  1.36D+00
 E= -928.571811983378     Delta-E=       -0.000000002993 Rises=F Damp=F
 DIIS: error= 8.25D-07 at cycle  16 NSaved=  16.
 NSaved=16 IEnMin=16 EnMin= -928.571811983378     IErMin=16 ErrMin= 8.25D-07
 ErrMax= 8.25D-07  0.00D+00 EMaxC= 1.00D-01 BMatC= 3.80D-10 BMatP= 2.02D-09
 IDIUse=1 WtCom= 1.00D+00 WtEn= 0.00D+00
 Coeff-Com:  0.554D-05-0.216D-04-0.115D-04 0.106D-04 0.386D-03 0.718D-03
 Coeff-Com: -0.103D-03-0.426D-02-0.354D-02 0.175D-01 0.193D-01 0.567D-02
 Coeff-Com: -0.676D-01-0.213D+00 0.103D+00 0.114D+01
 Coeff:      0.554D-05-0.216D-04-0.115D-04 0.106D-04 0.386D-03 0.718D-03
 Coeff:     -0.103D-03-0.426D-02-0.354D-02 0.175D-01 0.193D-01 0.567D-02
 Coeff:     -0.676D-01-0.213D+00 0.103D+00 0.114D+01
 Gap=     0.190 Goal=   None    Shift=    0.000
 Gap=     0.132 Goal=   None    Shift=    0.000
 RMSDP=9.38D-07 MaxDP=1.09D-04 DE=-2.99D-09 OVMax= 3.53D-05

 Cycle  17  Pass 1  IDiag  1:
 RMSU=  4.61D-07    CP:  1.30D+00  1.12D+00  9.71D-01  1.01D+00  1.93D+00
                    CP:  1.74D+00  1.56D+00  1.54D+00  1.11D+00  1.03D+00
                    CP:  1.39D+00  9.53D-01  1.85D+00  1.42D+00  1.59D+00
                    CP:  1.12D+00
 E= -928.571811984261     Delta-E=       -0.000000000883 Rises=F Damp=F
 DIIS: error= 4.88D-07 at cycle  17 NSaved=  17.
 NSaved=17 IEnMin=17 EnMin= -928.571811984261     IErMin=17 ErrMin= 4.88D-07
 ErrMax= 4.88D-07  0.00D+00 EMaxC= 1.00D-01 BMatC= 1.88D-10 BMatP= 3.80D-10
 IDIUse=1 WtCom= 1.00D+00 WtEn= 0.00D+00
 Coeff-Com:  0.176D-05-0.541D-05-0.663D-04-0.154D-03 0.211D-04 0.558D-03
 Coeff-Com:  0.981D-03-0.108D-02-0.439D-02-0.397D-02 0.102D-01 0.518D-01
 Coeff-Com:  0.324D-01-0.252D+00-0.196D+00 0.583D+00 0.778D+00
 Coeff:      0.176D-05-0.541D-05-0.663D-04-0.154D-03 0.211D-04 0.558D-03
 Coeff:      0.981D-03-0.108D-02-0.439D-02-0.397D-02 0.102D-01 0.518D-01
 Coeff:      0.324D-01-0.252D+00-0.196D+00 0.583D+00 0.778D+00
 Gap=     0.190 Goal=   None    Shift=    0.000
 Gap=     0.132 Goal=   None    Shift=    0.000
 RMSDP=6.21D-07 MaxDP=6.47D-05 DE=-8.83D-10 OVMax= 2.47D-05

 Cycle  18  Pass 1  IDiag  1:
 RMSU=  2.32D-07    CP:  1.30D+00  1.12D+00  9.71D-01  1.01D+00  1.93D+00
                    CP:  1.74D+00  1.56D+00  1.54D+00  1.11D+00  1.03D+00
                    CP:  1.39D+00  9.63D-01  1.88D+00  1.46D+00  1.61D+00
                    CP:  1.31D+00  1.32D+00
 E= -928.571811984606     Delta-E=       -0.000000000345 Rises=F Damp=F
[...]
 .00000173,0.00004907,0.00000964,0.00000337,0.00000508,0.00000341,-0.00
 000007,-0.00000261,-0.00000114,0.00000107,-0.00000302,0.00000133,0.000
 00090,-0.00000159,0.00000144,0.00000056,-0.00000173,0.00000073,-0.0000
 0047,-0.00000232,0.00000002,-0.00000024,0.00000102,0.00000053,0.000002
 71,0.00000114,0.00000070,-0.00000245,0.00000371,0.00000103,0.00000003,
 -0.00000112,0.00000030,0.00000062,-0.00000110,0.00000028,-0.00000064,-
 0.00000200,-0.00000211,-0.00000002,0.00000139,0.00000124,-0.00000110,0
 .00000139,0.00000118,0.00000112,-0.00000609,-0.00000554,-0.00000073,0.
 00000453,-0.00000218,-0.00000562,0.00000477,-0.00000182,0.00000571,0.0
 0000344,0.,-0.00000005,-0.00000237,-0.00000060,0.00000059,-0.00000245,
 -0.00000068,-0.00000050,-0.00000339,-0.00000016,-0.00000027,0.00000183
 ,-0.00000050,-0.00000364,0.00000175,-0.00000045,0.00000375,0.00000235,
 0.00000105,0.00000007,-0.00000203,-0.00000063,0.00000043,-0.00000201,-
 0.00000062,-0.00000044,0.00021345,0.00014783,-0.00000005,-0.00000171,-
 0.00000307,-0.00000001,0.00000173,0.00000273,0.,0.00155086,0.00148496,
 -0.00001635,0.00095925,0.00019105,0.00000268,0.00380740,-0.00305453,-0
 .00002462,-0.01869692,-0.01847126,-0.00006545,-0.13384985,-0.26583074,
 -0.00062274,0.00524964,0.00577125,0.00000691,0.00037626,0.00090539,0.0
 0001283,0.14187163,0.27912981,0.00000020,-0.00000012,-0.00000139,-0.00
 000004,0.00000013,-0.00000140,-0.00000057,0.00000047,-0.00020194,-0.00
 000036,0.00000001,-0.00000096,0.00000030,-0.00000008,-0.00000210,-0.00
 000031,-0.00000010,-0.00003128,0.00000058,-0.00000003,0.00001380,-0.00
 000025,0.00000001,0.00001428,0.00000024,0.00000011,0.00000162,0.,0.000
 00002,0.00000452,-0.00000002,0.00000002,-0.00000117,-0.00000005,0.,0.0
 0000180,-0.00000078,0.00000020,-0.00000013,0.00000080,-0.00000020,-0.0
 0000014,-0.00000005,-0.00000003,0.00000382,0.00000093,-0.00000039,-0.0
 0000121,-0.00000091,0.00000040,-0.00000121,0.00000005,0.00000003,0.000
 00070,0.00000104,0.,-0.00000058,-0.00000104,-0.00000002,-0.00000057,0.
 ,-0.00000002,0.00000143,-0.00000070,0.00000002,-0.00000074,0.00000070,
 0.,-0.00000073,0.00000002,-0.00000010,0.00002243,-0.00000056,0.0000015
 9,-0.00000206,0.00000061,-0.00000159,-0.00000208,-0.00000009,0.,-0.000
 00512,-0.00000484,-0.00000028,-0.00000170,0.00000483,0.00000029,-0.000
 00170,0.00000004,-0.00000001,0.00002168,-0.00000243,0.00000033,-0.0000
 0668,0.00000243,-0.00000032,-0.00000668,0.00000001,0.00000004,-0.00000
 443,0.00000415,-0.00000026,-0.00000160,-0.00000417,0.00000027,-0.00000
 161,0.00000025,-0.00000093,0.00043300,-0.00000002,0.,0.00000024,0.,-0.
 00000001,0.00000411,-0.00000069,-0.00001505,0.00752871,0.00000264,0.00
 000271,-0.00065889,0.00000628,-0.00002472,0.00722746,-0.00004455,-0.00
 005177,0.00441559,-0.00038163,-0.00062220,-0.04162095,0.00000638,-0.00
 000810,0.00437225,0.00000287,0.00001245,-0.00408282,0.00040961,0.00069
 334,0.02810133,-0.00008391,0.00000465,-0.00000581,0.00007393,-0.000009
 35,0.00001212,0.00010006,-0.00009065,-0.00000065,0.00007012,0.00001895
 ,-0.00000527,-0.00005971,-0.00000942,-0.00000036,0.00007831,0.00008021
 ,0.00000086,-0.00021587,-0.00000209,-0.00000001,0.00010015,-0.00001053
 ,0.00000050,-0.00005290,-0.00006068,-0.00000135,-0.00005366,-0.0000137
 8,-0.00000006,0.00001095,0.00000110,-0.00000039,0.00001109,-0.00000318
 ,-0.00000036,0.00000516,0.00000115,0.00000113,0.00000526,0.00000135,-0
 .00000120,-0.00000286,0.00000401,-0.00000002,-0.00000473,-0.00000567,-
 0.00001483,-0.00000474,-0.00000576,0.00001479,-0.00000493,-0.00001149,
 0.00000001,0.00000356,0.00000318,-0.00000114,0.00000348,0.00000318,0.0
 0000109,0.00000724,0.00000855,0.00000004,-0.00000283,-0.00000551,-0.00
 000063,-0.00000283,-0.00000553,0.00000062,0.00002953,-0.00001596,0.000
 00035,-0.00000179,0.00000884,0.00000766,-0.00000188,0.00000874,-0.0000
 0771,-0.00000543,0.00000199,-0.00000004,0.00000318,-0.00000054,-0.0000
 0169,0.00000321,-0.00000053,0.00000169,0.00001300,0.00000125,0.0000000
 3,-0.00000145,0.00000036,-0.00000257,-0.00000143,0.00000037,0.00000253
 ,-0.00000692,-0.00000535,0.00000002,0.00000125,0.00000204,0.00000018,0
 .00000122,0.00000204,-0.00000019,0.00141771,0.00046306,0.00000396,0.00
 000453,0.00000728,0.00000002,-0.00000103,-0.00000604,0.,0.00960684,0.0
 1662725,0.00004331,-0.14934105,-0.13737653,-0.00039098,-0.01204809,-0.
 02876678,-0.00007980,-0.00519649,0.00200179,0.00000013,-0.00041063,0.0
 0082406,0.00000181,-0.00118470,0.00302470,0.00000550,-0.00066057,-0.00
 134246,-0.00000367,0.00008076,-0.00010325,0.00000023,0.15626571,0.0000
 5150,-0.00000166,0.00000415,-0.00004710,0.00000972,-0.00000834,0.00075
 192,0.00006750,-0.00000018,-0.00003910,-0.00001952,0.00000386,0.000030
 76,0.00001149,-0.00000037,-0.00002714,-0.00003947,-0.00000035,0.000105
 27,-0.00002793,-0.00000029,-0.00007323,-0.00003722,-0.00000075,0.00003
 442,0.00005846,0.00000119,0.00003737,0.00006103,-0.00000001,-0.0000127
 2,-0.00000124,0.00000035,-0.00001018,0.00000776,0.00000035,-0.00000230
 ,-0.00000305,-0.00000152,-0.00000233,-0.00000336,0.00000147,0.00000278
 ,-0.00000576,-0.00000039,0.00000006,0.00000699,0.00000491,0.00000019,0
 .00000712,-0.00000459,0.00000367,0.00000840,0.00000008,-0.00000104,-0.
 00000245,0.00000048,-0.00000107,-0.00000245,-0.00000055,-0.00000556,-0
 .00000463,0.00000003,0.00000023,0.00000288,0.00000486,0.00000025,0.000
 00287,-0.00000485,-0.00002606,0.00001376,-0.00000013,-0.00000520,-0.00
 000953,0.00000576,-0.00000517,-0.00000933,-0.00000578,0.00000890,-0.00
 000108,-0.00000014,0.00000047,-0.00000014,0.00000330,0.00000039,-0.000
 00014,-0.00000316,-0.00001956,-0.00000281,-0.00000022,0.00000093,0.000
 00003,0.00000999,0.00000089,0.00000014,-0.00000997,0.00000855,0.000007
 93,0.00000020,0.00000063,-0.00000290,-0.00000185,0.00000057,-0.0000029
 1,0.00000175,-0.00124239,0.00110522,0.00001342,-0.00000052,-0.00000541
 ,-0.00000001,-0.00000031,0.00000696,0.,-0.01834893,-0.01929649,-0.0000
 6915,-0.13533025,-0.26507089,-0.00062083,0.00566491,0.00625870,0.00000
 551,0.00137357,0.00117123,-0.00001588,0.00075721,0.00030279,0.00000212
 ,0.00390982,-0.00291689,-0.00002071,0.00024079,0.00019305,0.00000069,-
 0.00009699,-0.00000869,0.00000302,0.14364773,0.27839256,0.00000007,-0.
 00000041,-0.00000250,0.00000003,0.00000056,-0.00000676,0.00000149,-0.0
 0000074,0.00016699,-0.00000015,-0.00000003,0.00000554,0.00000052,-0.00
 000032,-0.00003298,-0.00000038,-0.00000013,-0.00006891,0.00000040,-0.0
 0000046,0.00020366,-0.00000018,-0.00000010,-0.00000851,0.00000041,0.00
 000020,0.00001268,0.00000002,0.00000002,0.00006962,-0.00000006,0.00000
 005,-0.00000065,-0.00000015,0.00000006,0.00000222,-0.00000656,0.000003
 04,-0.00000085,0.00000663,-0.00000307,-0.00000091,-0.00000032,-0.00000
 019,0.00005264,0.00000220,-0.00000317,-0.00001483,-0.00000210,0.000003
 28,-0.00001470,0.00000024,0.00000019,-0.00001248,0.00000773,0.00000098
 ,-0.00000218,-0.00000770,-0.00000105,-0.00000220,0.00000007,0.,0.00002
 006,-0.00000257,0.00000196,-0.00000677,0.00000252,-0.00000191,-0.00000
 678,0.00000007,-0.00000010,0.00002593,-0.00000483,0.00000791,-0.000002
 74,0.00000490,-0.00000790,-0.00000291,-0.00000033,-0.00000005,0.000004
 87,-0.00000346,0.00000041,-0.00000215,0.00000350,-0.00000038,-0.000002
 22,0.00000022,0.00000014,0.00000686,-0.00000246,-0.00000072,-0.0000027
 5,0.00000240,0.00000069,-0.00000276,0.,0.00000007,-0.00000099,0.000001
 81,-0.00000045,-0.00000091,-0.00000186,0.00000047,-0.00000093,-0.00000
 053,0.00001470,-0.00401819,-0.00000008,-0.00000003,-0.00000257,-0.0000
 0003,-0.00000001,0.00000117,-0.00004447,-0.00005574,0.00440514,-0.0003
 8512,-0.00062085,-0.04145324,0.00000667,-0.00000724,0.00502481,-0.0000
 0152,-0.00001547,0.00766595,0.00000118,0.00000207,-0.00075121,0.000006
 95,-0.00002296,0.00646744,0.00000046,0.00000006,-0.00004611,0.00000025
 ,0.00000320,-0.00121246,0.00041530,0.00069329,0.02759715,-0.00009228,0
 .00000177,0.00000719,0.00008516,0.00001384,-0.00001495,-0.00001228,0.0
 0005515,0.00000021,0.00006427,-0.00001247,0.00000682,-0.00006027,0.000
 03699,-0.00000015,0.00014508,0.00000955,-0.00000063,-0.00019972,0.0000
 4129,0.,0.00009837,-0.00010811,-0.00000101,-0.00003064,-0.00000098,0.0
 0000171,-0.00001276,-0.00001209,-0.00000003,0.00000484,-0.00000049,0.0
 0000057,0.00001057,-0.00000637,0.00000062,0.00000302,0.00000456,-0.000
 00067,0.00000297,0.00000411,0.00000069,0.00001286,0.00000187,-0.000000
 24,-0.00000174,-0.00000272,-0.00000155,-0.00000162,-0.00000262,0.00000
 175,-0.00000860,-0.00000158,-0.00000006,0.00000103,-0.00000011,0.00000
 007,0.00000106,-0.00000013,-0.00000006,0.00000552,0.00000372,0.0000001
 5,-0.00000163,-0.00000148,-0.00000142,-0.00000157,-0.00000151,0.000001
 30,-0.00005000,0.00000842,-0.00000045,-0.00003000,0.00002192,0.0001335
 2,-0.00002977,0.00002280,-0.00013328,0.00002679,0.00006016,0.00000012,
 0.00002024,-0.00002177,0.00000633,0.00002013,-0.00002175,-0.00000629,0
 .00001977,-0.00000273,-0.00000025,-0.00001007,0.00001932,0.00000789,-0
 .00001011,0.00001938,-0.00000774,-0.00000402,-0.00000069,0.00000021,0.
 00000593,0.00000009,-0.00000015,0.00000589,0.00000007,0.00000004,0.001
 58155,-0.00037427,0.00000116,0.00000106,0.00000545,0.,-0.00000217,-0.0
 0002063,-0.00000008,0.00959591,-0.01986595,-0.00004855,-0.00195134,-0.
 00315300,-0.00001174,-0.00059155,-0.00072600,-0.00000142,-0.00544751,-
 0.00125672,-0.00000840,-0.00936524,0.03051806,0.00007159,-0.12198740,0
 .12070775,0.00027558,-0.00051938,0.00140277,0.00000338,0.00089261,-0.0
 0044527,0.00000095,0.00056839,-0.00085296,-0.00000202,0.12714658,-0.00
 003925,0.00000056,0.00000664,0.00003187,0.00001317,-0.00001337,-0.0007
 4219,0.00004532,-0.00000033,0.00003151,-0.00000904,0.00000548,-0.00002
 537,0.00002656,-0.00000007,0.00008241,-0.00003784,-0.00000070,-0.00006
 327,0.00002411,-0.00000059,0.00002419,-0.00004107,-0.00000075,-0.00000
 811,-0.00000926,0.00000216,-0.00000232,-0.00000776,-0.00000006,0.00000
 486,0.00000024,0.00000038,0.00000962,-0.00000540,0.00000022,0.00000081
 ,0.00000447,-0.00000038,0.00000073,0.00000425,0.00000050,0.00000884,0.
 00000193,0.00000036,-0.00000016,-0.00000256,0.00000134,-0.00000033,-0.
 00000266,-0.00000156,-0.00000517,-0.00000054,0.00000009,-0.00000031,-0
 .00000008,0.00000102,-0.00000023,-0.00000006,-0.00000096,0.00000513,0.
 00000287,-0.00000034,-0.00000048,-0.00000064,-0.00000324,-0.00000060,-
 0.00000064,0.00000347,-0.00005544,-0.00003136,-0.00000112,-0.00003572,
 0.00005870,0.00005347,-0.00003544,0.00005902,-0.00005298,0.00000851,0.
 00004056,0.00000043,0.00000837,-0.00001676,0.00000322,0.00000837,-0.00
 001675,-0.00000348,0.00001994,-0.00000296,-0.00000001,0.00001651,0.000
 00200,-0.00001354,0.00001646,0.00000185,0.00001378,-0.00000880,-0.0000
 0563,-0.00000040,-0.00000075,0.00000364,0.00000167,-0.00000054,0.00000
 367,-0.00000136,0.00113969,0.00106656,0.00001344,-0.00000081,0.0000031
 1,0.00000003,0.00000043,-0.00001394,-0.00000002,0.01522123,-0.01917972
 ,-0.00005370,-0.00401119,-0.00219076,-0.00002300,-0.00065479,0.0004676
 2,0.00000208,-0.00063932,0.00145293,-0.00001598,-0.00395693,0.00362940
 ,-0.00000438,0.11873662,-0.29320564,-0.00059283,-0.00016339,0.00006302
 ,0.00000022,0.00047379,0.00072514,0.00001322,0.00067549,-0.00095145,-0
 .00000287,-0.12615775,0.30806099,-0.00000056,-0.00000039,-0.00000503,0
 .00000083,0.00000042,0.00000239,-0.00000156,-0.00000088,0.00025606,-0.
 00000007,-0.00000009,0.00000818,-0.00000020,-0.00000006,0.00001438,0.0
 0000044,-0.00000009,0.00000315,-0.00000035,-0.00000038,0.00017076,0.00
 000007,-0.00000005,-0.00006971,0.00000016,0.00000025,-0.00004906,-0.00
 000002,0.,-0.00000019,-0.00000001,0.00000004,0.00001109,-0.00000010,-0
 .00000002,-0.00000078,-0.00000250,-0.00000037,-0.00000006,0.00000257,0
 .00000033,-0.00000004,-0.00000016,-0.00000009,0.00000514,0.00000168,-0
 .00000069,-0.00000232,-0.00000167,0.00000071,-0.00000229,0.00000017,0.
 00000011,0.00000048,0.00000171,0.00000018,-0.00000085,-0.00000169,-0.0
 0000022,-0.00000087,0.00000007,0.00000003,0.00000227,-0.00000103,0.000
 00021,-0.00000109,0.00000099,-0.00000020,-0.00000105,-0.00000018,-0.00
 000072,0.00023582,0.00001606,-0.00001459,-0.00005102,-0.00001612,0.000
 01519,-0.00005142,-0.00000021,0.00000023,-0.00006491,-0.00002484,0.000
 00910,-0.00000363,0.00002491,-0.00000916,-0.00000370,0.00000022,-0.000
 00015,0.00010635,-0.00000506,-0.00001167,-0.00003121,0.00000512,0.0000
 1182,-0.00003107,-0.00000002,0.00000011,-0.00002987,0.00001164,-0.0000
 0460,-0.00000271,-0.00001168,0.00000466,-0.00000274,0.00000508,0.00001
 411,-0.00407866,-0.00000006,0.,0.00000021,-0.00000003,-0.00000009,0.00
 000895,0.00004063,-0.00006911,0.00434899,-0.00001279,-0.00002268,0.006
 49963,-0.00000230,0.00000343,-0.00074783,-0.00000667,-0.00001617,0.007
 65939,-0.00001654,0.00000800,0.00497564,0.00027036,-0.00059125,-0.0418
 2212,-0.00000051,0.00000080,-0.00003912,0.00000325,0.00001293,-0.00438
 802,0.00000174,-0.00000358,0.00033692,-0.00028147,0.00066175,0.0280491
 1,0.00009805,-0.00000551,0.00000074,-0.00008381,-0.00000485,-0.0000016
 9,-0.00056495,-0.00003184,-0.00000007,-0.00008087,-0.00000011,0.000000
 70,0.00009166,-0.00002502,-0.00000001,-0.00018179,-0.00001102,-0.00000
 015,0.00028033,-0.00008241,-0.00000016,-0.00008997,0.00002212,0.000000
 01,0.00006534,0.00003022,0.00000031,0.00000750,0.00001438,0.00000005,-
 0.00000843,-0.00000258,0.00000005,-0.00001159,0.00001114,0.00000014,-0
 .00000275,-0.00000278,0.00000231,-0.00000274,-0.00000282,-0.00000233,-
 0.00001695,-0.00000195,0.00000002,0.00000188,0.00000369,-0.00000393,0.
 00000187,0.00000367,0.00000392,0.00000765,0.00000149,-0.00000002,0.000
 00110,-0.00000051,-0.00000287,0.00000112,-0.00000053,0.00000290,-0.000
 00830,-0.00000392,-0.00000001,0.00000004,0.00000059,0.00000766,0.00000
 006,0.00000065,-0.00000767,-0.00001354,0.00000557,-0.00000012,0.000004
 37,-0.00001175,-0.00001279,0.00000437,-0.00001180,0.00001277,0.0000018
 1,-0.00000680,0.,-0.00000342,0.00000216,0.00000053,-0.00000343,0.00000
 217,-0.00000052,-0.00000975,-0.00000111,-0.00000001,0.00000106,-0.0000
 0101,0.00000070,0.00000107,-0.00000102,-0.00000070,0.00000478,0.000003
 33,0.00000003,-0.00000130,-0.00000124,-0.00000004,-0.00000130,-0.00000
 125,0.00000002,-0.00028102,0.00137076,0.00000274,0.00000246,-0.0000038
 7,0.,0.00000083,0.00000483,0.,-0.00484481,-0.00125708,-0.00000732,-0.0
 1045101,0.03129713,0.00007340,-0.12031615,0.11717940,0.00026689,0.0118
 3033,-0.01934851,-0.00004629,-0.00178624,-0.00333950,-0.00001177,-0.00
 073974,-0.00075758,-0.00000246,0.00077577,0.00059011,0.00000342,0.0004
 4682,-0.00087816,-0.00000208,0.00088592,-0.00048356,0.00000084,0.00010
 212,0.00008316,0.00000075,0.12488551,-0.00007829,-0.00000031,-0.000014
 15,0.00006475,0.00000715,0.00002922,0.00017968,-0.00002258,0.00000003,
 0.00007348,0.00000200,-0.00001301,-0.00007283,0.00000229,0.00000020,0.
 00008695,0.00003483,0.00000145,-0.00017827,-0.00001297,-0.00000015,0.0
 0007003,-0.00002911,0.00000162,-0.00004631,-0.00001448,-0.00000342,-0.
 00000525,-0.00000456,0.,0.00000332,0.00000126,-0.00000108,0.00000474,-
 0.00000174,-0.00000097,0.00000156,-0.00000058,-0.00000112,0.00000164,0
 .00000014,0.00000104,0.00000586,0.00000024,0.00000014,-0.00000142,-0.0
 0000123,-0.00000192,-0.00000150,-0.00000138,0.00000175,-0.00000491,-0.
 00000097,0.00000001,0.00000090,-0.00000026,0.00000011,0.00000085,-0.00
 000024,-0.00000012,0.00000359,0.00000286,-0.00000003,-0.00000153,-0.00
 000125,-0.00000005,-0.00000156,-0.00000123,0.00000009,0.00000243,0.000
 00642,0.00000077,-0.00000572,0.00000389,0.00000591,-0.00000598,0.00000
 353,-0.00000604,-0.00000267,0.00000116,0.00000003,0.00000311,0.0000001
 2,0.00000005,0.00000317,0.00000019,-0.00000014,0.00000154,-0.00000029,
 0.00000018,-0.00000093,0.00000066,0.00000376,-0.00000089,0.00000065,-0
 .00000382,-0.00000191,-0.00000067,-0.00000009,0.00000199,0.00000062,-0
 .00000095,0.00000200,0.00000063,0.00000100,-0.00017253,0.00002539,-0.0
 0000091,0.00000128,0.00000358,0.00000001,-0.00000184,-0.00000280,0.,-0
 .00085880,0.00179139,-0.00001463,-0.00347880,0.00300844,-0.00000462,0.
 11730379,-0.29318358,-0.00059125,0.01536265,-0.01845771,-0.00005197,-0
 .00394047,-0.00225468,-0.00002547,-0.00085813,0.00035218,0.00000199,-0
 .00035337,0.00086944,0.00001241,0.00072222,-0.00095801,-0.00000235,0.0
 0042776,0.00073088,0.00001298,0.00009115,-0.00002909,0.00000291,-0.124
 34649,0.30812974,0.00000008,-0.00000014,-0.00000270,-0.00000037,0.0000
 0020,0.00000159,0.00000033,0.00000028,-0.00020983,0.00000051,0.,-0.000
 00306,-0.00000011,-0.00000011,0.00000570,0.00000013,0.00000010,0.00001
 952,-0.00000049,-0.00000013,0.00000952,0.00000021,-0.00000010,-0.00002
 749,-0.00000001,-0.00000006,-0.00000690,0.,-0.00000002,0.00000722,0.,0
 .,0.00000446,0.,0.00000007,-0.00000597,-0.00000266,-0.00000036,0.00000
 011,0.00000268,0.00000037,0.00000011,-0.00000011,-0.00000005,0.0000118
 0,0.00000148,-0.00000006,-0.00000339,-0.00000145,0.00000006,-0.0000033
 3,0.00000008,0.00000006,-0.00000175,0.00000258,-0.00000031,-0.00000102
 ,-0.00000256,0.00000029,-0.00000101,0.00000003,0.,0.00000692,-0.000001
 38,-0.00000006,-0.00000251,0.00000135,0.00000007,-0.00000251,0.0000000
 7,0.,0.00000954,-0.00000139,-0.00000216,-0.00000100,0.00000139,0.00000
 220,-0.00000104,-0.00000015,-0.00000004,-0.00000096,-0.00000168,0.0000
 0088,-0.00000084,0.00000172,-0.00000086,-0.00000089,0.00000008,0.00000
 004,0.00000478,-0.00000120,0.00000001,-0.00000134,0.00000119,-0.000000
 02,-0.00000137,0.,0.00000003,-0.00000045,0.00000112,-0.00000004,-0.000
 00061,-0.00000114,0.00000006,-0.00000062,-0.00000036,0.00000004,0.0004
 5401,-0.00000003,0.,-0.00000003,-0.00000002,-0.00000002,0.00000091,-0.
 00000732,-0.00001582,0.00749883,-0.00001429,0.00000907,0.00439731,0.00
 026673,-0.00059080,-0.04219830,0.00004199,-0.00006569,0.00442431,-0.00
 001400,-0.00002568,0.00722541,-0.00000211,0.00000229,-0.00066310,0.000
 00107,0.00001280,-0.00408382,0.00000197,-0.00000289,0.00007359,0.00000
 313,0.00001283,-0.00438550,0.00000079,0.00000306,-0.00121352,-0.000277
 88,0.00066056,0.02866924\\-0.00000039,0.00000247,0.00000187,0.00000059
 ,0.00000234,-0.00000269,0.00000089,-0.00000009,-0.00000005,-0.00000135
 ,0.00000132,0.00000052,-0.00000009,0.00000090,-0.00000045,-0.00000201,
 -0.00000318,-0.00000006,0.00000019,-0.00000042,0.00000006,-0.00000036,
 0.00000030,-0.00000025,0.00000034,0.00000258,0.00000083,0.00000492,0.0
 0000813,0.00000006,0.00000059,0.00000077,0.00000006,-0.00000367,0.0000
 0203,0.00000014,-0.00000079,0.00000159,-0.00000043,-0.00000077,0.00000
 135,0.00000040,-0.00000280,-0.00000400,0.00000004,-0.00000217,0.000000
 95,-0.00000029,-0.00000231,0.00000081,0.00000029,-0.00000551,0.0000020
 5,-0.00000001,-0.00000202,0.00000176,0.00000056,-0.00000197,0.00000176
 ,-0.00000053,-0.00000176,-0.00000067,0.00000002,-0.00000310,0.00000100
 ,0.00000016,-0.00000306,0.00000098,-0.00000013,0.00000386,0.00000003,-
 0.00000012,0.00000089,-0.00000061,0.00000049,0.00000087,-0.00000039,-0
 .00000049,-0.00000092,0.00000053,0.00000004,0.00000245,0.00000108,-0.0
 0000056,0.00000235,0.00000089,0.00000046,0.00000556,-0.00000044,-0.000
 00001,0.00000197,-0.00000037,0.00000058,0.00000200,-0.00000034,-0.0000
 0056,0.00000189,0.00000220,0.00000002,0.00000311,0.00000056,0.00000011
 ,0.00000311,0.00000056,-0.00000018,-0.00000109,-0.00000108,0.00000009,
 -0.00000358,0.00000135,0.,0.00000359,0.00000011,-0.00000002,0.00000108
 ,-0.00000189,-0.00000002,-0.00000190,-0.00000258,0.00000002,-0.0000001
 0,-0.00000357,0.,0.00000099,-0.00000326,0.00000001,0.00000141,-0.00000
 200,0.,-0.00000072,-0.00000177,0.00000002,0.00000008,-0.00000371,-0.00
 000001,0.00000098,-0.00000297,0.,-0.00000113,-0.00000199,0.,0.00000088
 ,-0.00000187,-0.00000002,-0.00000101,-0.00000321,0.00000003\\\@


 MANHOOD BEGINS BY TRYING TO SHAVE FACE,
 AND ENDS BY TRYING TO SAVE FACE.
 Job cpu time:       0 days  9 hours 20 minutes 24.8 seconds.
 File lengths (MBytes):  RWF=   3095 Int=      0 D2E=      0 Chk=     16 Scr=      1
 Normal termination of Gaussian 09 at Fri May 10 18:18:52 2024.
