
                                 *****************
                                 * O   R   C   A *
                                 *****************

           --- An Ab Initio, DFT and Semiempirical electronic structure package ---

                  #######################################################
                  #                        -***-                        #
                  #          Department of theory and spectroscopy      #
                  #               Directorship: Frank Neese             #
                  #        Max Planck Institute fuer Kohlenforschung    #
                  #                Kaiser Wilhelm Platz 1               #
                  #                 D-45470 Muelheim/Ruhr               #
                  #                      Germany                        #
                  #                                                     #
                  #                  All rights reserved                #
                  #                        -***-                        #
                  #######################################################


                         Program Version 4.2.1 -  RELEASE  -


 With contributions from (in alphabetic order):
   Daniel Aravena         : Magnetic Suceptibility
   Michael Atanasov       : Ab Initio Ligand Field Theory (pilot matlab implementation)
   Alexander A. Auer      : GIAO ZORA, VPT2
   Ute Becker             : Parallelization
   Giovanni Bistoni       : ED, misc. LED, open-shell LED, HFLD
   Martin Brehm           : Molecular dynamics
   Dmytro Bykov           : SCF Hessian
   Vijay G. Chilkuri      : MRCI spin determinant printing, contributions to CSF-ICE
   Dipayan Datta          : RHF DLPNO-CCSD density
   Achintya Kumar Dutta   : EOM-CC, STEOM-CC
   Dmitry Ganyushin       : Spin-Orbit,Spin-Spin,Magnetic field MRCI
   Miquel Garcia          : C-PCM Hessian, Gaussian charge scheme
   Yang Guo               : DLPNO-NEVPT2, CIM, IAO-localization
   Andreas Hansen         : Spin unrestricted coupled pair/coupled cluster methods
   Benjamin Helmich-Paris : CASSCF linear response (MC-RPA)
   Lee Huntington         : MR-EOM, pCC
   Robert Izsak           : Overlap fitted RIJCOSX, COSX-SCS-MP3, EOM
   Christian Kollmar      : KDIIS, OOCD, Brueckner-CCSD(T), CCSD density
   Simone Kossmann        : Meta GGA functionals, TD-DFT gradient, OOMP2, MP2 Hessian
   Martin Krupicka        : AUTO-CI
   Lucas Lang             : DCDCAS
   Dagmar Lenk            : GEPOL surface, SMD
   Dimitrios Liakos       : Extrapolation schemes; Compound Job, initial MDCI parallelization
   Dimitrios Manganas     : Further ROCIS development; embedding schemes
   Dimitrios Pantazis     : SARC Basis sets
   Taras Petrenko         : DFT Hessian,TD-DFT gradient, ASA, ECA, R-Raman, ABS, FL, XAS/XES, NRVS
   Peter Pinski           : DLPNO-MP2, DLPNO-MP2 Gradient
   Christoph Reimann      : Effective Core Potentials
   Marius Retegan         : Local ZFS, SOC
   Christoph Riplinger    : Optimizer, TS searches, QM/MM, DLPNO-CCSD(T), (RO)-DLPNO pert. Triples
   Tobias Risthaus        : Range-separated hybrids, TD-DFT gradient, RPA, STAB
   Michael Roemelt        : Original ROCIS implementation
   Masaaki Saitow         : Open-shell DLPNO-CCSD energy and density
   Barbara Sandhoefer     : DKH picture change effects
   Avijit Sen             : IP-ROCIS
   Kantharuban Sivalingam : CASSCF convergence, NEVPT2, FIC-MRCI
   Bernardo de Souza      : ESD, SOC TD-DFT
   Georgi Stoychev        : AutoAux, RI-MP2 NMR
   Willem Van den Heuvel  : Paramagnetic NMR
   Boris Wezisla          : Elementary symmetry handling
   Frank Wennmohs         : Technical directorship


 We gratefully acknowledge several colleagues who have allowed us to
 interface, adapt or use parts of their codes:
   Stefan Grimme, W. Hujo, H. Kruse,             : VdW corrections, initial TS optimization,
                  C. Bannwarth                     DFT functionals, gCP, sTDA/sTD-DF
   Ed Valeev, F. Pavosevic, A. Kumar             : LibInt (2-el integral package), F12 methods
   Garnet Chan, S. Sharma, J. Yang, R. Olivares  : DMRG
   Ulf Ekstrom                                   : XCFun DFT Library
   Mihaly Kallay                                 : mrcc  (arbitrary order and MRCC methods)
   Andreas Klamt, Michael Diedenhofen            : otool_cosmo (COSMO solvation model)
   Jiri Pittner, Ondrej Demel                    : Mk-CCSD
   Frank Weinhold                                : gennbo (NPA and NBO analysis)
   Christopher J. Cramer and Donald G. Truhlar   : smd solvation model
   Lars Goerigk                                  : TD-DFT with DH, B97 family of functionals
   V. Asgeirsson, H. Jonsson                     : NEB implementation
   FAccTs GmbH                                   : IRC, NEB, NEB-TS, Multilevel, MM, QM/MM, CI optimization
   S Lehtola, MJT Oliveira, MAL Marques          : LibXC Library


 Your calculation uses the libint2 library for the computation of 2-el integrals
 For citations please refer to: http://libint.valeyev.net

 Your ORCA version has been built with support for libXC version: 4.2.3
 For citations please refer to: https://tddft.org/programs/libxc/

 This ORCA versions uses:
   CBLAS   interface :  Fast vector & matrix operations
   LAPACKE interface :  Fast linear algebra routines
   SCALAPACK package :  Parallel linear algebra routines




***************************************
The coordinates will be read from file: opt.xyz
***************************************


----- Orbital basis set information -----
Your calculation utilizes the basis: cc-pVDZ 
       H, B-Ne : Obtained from the ccRepo (grant-hill.group.shef.ac.uk/ccrepo) Feb. 2017
                 T. H. Dunning, Jr., J. Chem. Phys. 90, 1007 (1989)
            He : Obtained from the ccRepo (grant-hill.group.shef.ac.uk/ccrepo) Feb. 2017
                 D. E. Woon, T. H. Dunning, Jr., J. Chem. Phys. 100, 2975 (1994)
  Li-Be, Na-Mg : Obtained from the ccRepo (grant-hill.group.shef.ac.uk/ccrepo) Feb. 2017
                 B. P. Prascher, D. E. Woon, K. A. Peterson, T. H. Dunning, Jr., A. K. Wilson, Theor. Chem. Acc. 128, 69 (2011)
         Al-Ar : Obtained from the ccRepo (grant-hill.group.shef.ac.uk/ccrepo) Feb. 2017
                 D. E. Woon, T. H. Dunning, Jr., J. Chem. Phys. 98, 1358 (1993)
            Ca : Obtained from the Peterson Research Group Website (tyr0.chem.wsu.edu/~kipeters) Feb. 2017
                 J. Koput, K. A. Peterson, J. Phys. Chem. 106, 9595 (2002)
         Sc-Zn : Obtained from the ccRepo (grant-hill.group.shef.ac.uk/ccrepo) Feb. 2017
                 N. B. Balabanov, K. A. Peterson, J. Chem. Phys. 123, 064107 (2005)
                 N. B. Balabanov, K. A. Peterson, J. Chem. Phys. 125, 074110 (2006)
         Ga-Kr : Obtained from the ccRepo (grant-hill.group.shef.ac.uk/ccrepo) Feb. 2017
                 A. K. Wilson, D. E. Woon, K. A. Peterson, T. H. Dunning, Jr., J. Chem. Phys. 110, 7667 (1999)

----- AuxJ basis set information -----
Your calculation utilizes the AutoAux generation procedure.
  G. L. Stoychev, A. A. Auer, F. Neese, J. Chem. Theory Comput. 13, 554 (2017)

----- AuxC basis set information -----
Your calculation utilizes the AutoAux generation procedure.
  G. L. Stoychev, A. A. Auer, F. Neese, J. Chem. Theory Comput. 13, 554 (2017)

----- AuxJK basis set information -----
Your calculation utilizes the AutoAux generation procedure.
  G. L. Stoychev, A. A. Auer, F. Neese, J. Chem. Theory Comput. 13, 554 (2017)

================================================================================
                                        WARNINGS
                       Please study these warnings very carefully!
================================================================================


WARNING: your system is open-shell and RHF/RKS was chosen
  ===> : WILL SWITCH to UHF/UKS


INFO   : the flag for use of LIBINT has been found!

================================================================================
                                       INPUT FILE
================================================================================
NAME = g-tensor_cc-pVDZ_invariant.inp
|  1> ! B3LYP cc-pVDZ AUTOAUX
|  2> %pal nprocs 16 end
|  3> *XYZFile 0 2 opt.xyz
|  4> %EPRNMR
|  5>         GTENSOR   TRUE
|  6>         NUCLEI    = ALL H {AISO, ADIP, AORB}
|  7>         ORI       GIAO
|  8> END
|  9> 
| 10>                          ****END OF INPUT****
================================================================================

                       ****************************
                       * Single Point Calculation *
                       ****************************

---------------------------------
CARTESIAN COORDINATES (ANGSTROEM)
---------------------------------
  C     -2.935166   -0.017246   -0.032888
  C      1.295313    0.060651    0.045739
  C      0.589785    1.298332    0.025955
  C     -0.830449    1.218906   -0.000585
  C     -1.499978   -0.010143   -0.006372
  C     -0.775908   -1.238156    0.013452
  C      0.627794   -1.157123    0.039214
  H     -1.426108    2.132214   -0.017029
  H      1.215783   -2.075791    0.055050
  C      1.286786    2.533866    0.033043
  H      2.381427    2.490191    0.055741
  C      0.641216    3.886193    0.012891
  H     -0.011880    3.981090   -0.879853
  H     -0.049327    3.989324    0.876077
  C      1.643702    5.046978    0.028924
  H      2.283122    4.957953    0.926700
  H      2.321231    4.949586   -0.839644
  C      0.972891    6.421464    0.008098
  H      0.314322    6.559549    0.883246
  H      0.351342    6.550662   -0.894986
  C     -1.527122   -2.553741    0.007293
  H     -2.213093   -2.566958    0.875677
  H     -2.199092   -2.566540   -0.871721
  C     -0.683994   -3.831530    0.013546
  H     -0.010146   -3.841099   -0.863718
  H     -0.029795   -3.846201    0.905437
  C     -1.539482   -5.103659    0.001131
  H     -2.216314   -5.095805    0.876164
  H     -2.196052   -5.092055   -0.889094
  C     -0.708143   -6.388363    0.007758
  H     -0.067343   -6.447050    0.904868
  H     -0.045823   -6.442230   -0.873933
  C     -4.150683   -0.018079   -0.056829
  H     -5.222897   -0.014023   -0.081393
  H      1.717705    7.233365    0.019662
  H     -1.349094   -7.284712   -0.002416
  H      2.388872    0.077049    0.066731

----------------------------
CARTESIAN COORDINATES (A.U.)
----------------------------
  NO LB      ZA    FRAG     MASS         X           Y           Z
   0 C     6.0000    0    12.011   -5.546659   -0.032590   -0.062149
   1 C     6.0000    0    12.011    2.447787    0.114613    0.086434
   2 C     6.0000    0    12.011    1.114532    2.453491    0.049048
   3 C     6.0000    0    12.011   -1.569321    2.303399   -0.001105
   4 C     6.0000    0    12.011   -2.834548   -0.019168   -0.012042
   5 C     6.0000    0    12.011   -1.466253   -2.339776    0.025421
   6 C     6.0000    0    12.011    1.186359   -2.186645    0.074103
   7 H     1.0000    0     1.008   -2.694954    4.029300   -0.032181
   8 H     1.0000    0     1.008    2.297497   -3.922676    0.104030
   9 C     6.0000    0    12.011    2.431674    4.788313    0.062442
  10 H     1.0000    0     1.008    4.500245    4.705780    0.105336
  11 C     6.0000    0    12.011    1.211722    7.343840    0.024360
  12 H     1.0000    0     1.008   -0.022450    7.523169   -1.662682
  13 H     1.0000    0     1.008   -0.093215    7.538731    1.655546
  14 C     6.0000    0    12.011    3.106146    9.537406    0.054658
  15 H     1.0000    0     1.008    4.314476    9.369174    1.751209
  16 H     1.0000    0     1.008    4.386491    9.353362   -1.586697
  17 C     6.0000    0    12.011    1.838498   12.134809    0.015304
  18 H     1.0000    0     1.008    0.593982   12.395751    1.669092
  19 H     1.0000    0     1.008    0.663940   12.378958   -1.691279
  20 C     6.0000    0    12.011   -2.885843   -4.825872    0.013782
  21 H     1.0000    0     1.008   -4.182139   -4.850847    1.654790
  22 H     1.0000    0     1.008   -4.155681   -4.850057   -1.647315
  23 C     6.0000    0    12.011   -1.292562   -7.240543    0.025598
  24 H     1.0000    0     1.008   -0.019172   -7.258624   -1.632191
  25 H     1.0000    0     1.008   -0.056304   -7.268266    1.711029
  26 C     6.0000    0    12.011   -2.909199   -9.644518    0.002137
  27 H     1.0000    0     1.008   -4.188226   -9.629677    1.655709
  28 H     1.0000    0     1.008   -4.149936   -9.622589   -1.680144
  29 C     6.0000    0    12.011   -1.338196  -12.072257    0.014660
  30 H     1.0000    0     1.008   -0.127260  -12.183160    1.709952
  31 H     1.0000    0     1.008   -0.086593  -12.174050   -1.651495
  32 C     6.0000    0    12.011   -7.843655   -0.034164   -0.107391
  33 H     1.0000    0     1.008   -9.869846   -0.026500   -0.153810
  34 H     1.0000    0     1.008    3.245992   13.669079    0.037157
  35 H     1.0000    0     1.008   -2.549418  -13.766110   -0.004565
  36 H     1.0000    0     1.008    4.514314    0.145602    0.126103

--------------------------------
INTERNAL COORDINATES (ANGSTROEM)
--------------------------------
 C      0   0   0     0.000000000000     0.00000000     0.00000000
 C      1   0   0     4.231926302072     0.00000000     0.00000000
 C      2   1   0     1.424786169507    61.36156774     0.00000000
 C      3   2   1     1.422700699586   116.49286065     0.00000000
 C      4   3   2     1.399594901976   121.77909396     0.02725077
 C      5   4   3     1.425723147044   120.88827881   359.95955092
 C      2   1   3     1.388738829119    60.21615437   180.02609874
 H      4   3   2     1.090509495316   119.92063508   180.02557275
 H      7   2   1     1.090840566919   118.64161893   180.02237247
 C      3   2   1     1.418592991357   120.87812455   179.96915985
 H     10   3   2     1.095746960056   117.14382204   359.91111501
 C     10   3   2     1.498651124842   125.04376550   179.95634114
 H     12  10   3     1.110194675016   109.95934982   302.60075887
 H     12  10   3     1.110214659609   109.95624550    57.20736408
 C     12  10   3     1.533837416078   113.65401130   179.89868341
 H     15  12  10     1.105796526983   108.99520001   302.33424331
 H     15  12  10     1.105866429049   109.00006495    57.64859023
 C     15  12  10     1.529585912065   113.15831049   179.99880232
 H     18  15  12     1.103930958844   111.29908444    59.88439486
 H     18  15  12     1.103892304737   111.29930041   300.19483087
 C      6   5   4     1.514967163367   119.74116451   179.97078398
 H     21   6   5     1.106715975421   108.33233630   303.06009153
 H     21   6   5     1.106514072393   108.32480061    55.61689592
 C     21   6   5     1.530898257682   116.85339960   179.32952790
 H     24  21   6     1.106234716880   109.84379918   301.99565798
 H     24  21   6     1.106192928042   109.88107071    58.47976894
 C     24  21   6     1.533076810771   112.65855577   180.22092330
 H     27  24  21     1.106275696579   109.21457012   302.36145006
 H     27  24  21     1.106218309427   109.20882160    57.69891632
 C     27  24  21     1.530239524091   113.16942378   180.02119511
 H     30  27  24     1.104026783760   111.31370642    59.91239594
 H     30  27  24     1.104060046015   111.30973629   300.19645147
 C      1   2   3     1.215753615340   178.98256342     3.27836756
 H     33   1   5     1.072503225888   179.68479541    19.74837674
 H     18  15  12     1.101845664646   111.44110119   180.03267647
 H     30  27  24     1.101980905520   111.52185837   180.05557325
 H      2   1   3     1.093883328866   179.80117721   170.17897041

---------------------------
INTERNAL COORDINATES (A.U.)
---------------------------
 C      0   0   0     0.000000000000     0.00000000     0.00000000
 C      1   0   0     7.997181729855     0.00000000     0.00000000
 C      2   1   0     2.692455659767    61.36156774     0.00000000
 C      3   2   1     2.688514692756   116.49286065     0.00000000
 C      4   3   2     2.644851063168   121.77909396     0.02725077
 C      5   4   3     2.694226290706   120.88827881   359.95955092
 C      2   1   3     2.624336058577    60.21615437   180.02609874
 H      4   3   2     2.060764292588   119.92063508   180.02557275
 H      7   2   1     2.061389927248   118.64161893   180.02237247
 C      3   2   1     2.680752249164   120.87812455   179.96915985
 H     10   3   2     2.070661666582   117.14382204   359.91111501
 C     10   3   2     2.832040196244   125.04376550   179.95634114
 H     12  10   3     2.097963891118   109.95934982   302.60075887
 H     12  10   3     2.098001656526   109.95624550    57.20736408
 C     12  10   3     2.898532650348   113.65401130   179.89868341
 H     15  12  10     2.089652595839   108.99520001   302.33424331
 H     15  12  10     2.089784691600   109.00006495    57.64859023
 C     15  12  10     2.890498472107   113.15831049   179.99880232
 H     18  15  12     2.086127182972   111.29908444    59.88439486
 H     18  15  12     2.086054137296   111.29930041   300.19483087
 C      6   5   4     2.862873040646   119.74116451   179.97078398
 H     21   6   5     2.091390101581   108.33233630   303.06009153
 H     21   6   5     2.091008560152   108.32480061    55.61689592
 C     21   6   5     2.892978445916   116.85339960   179.32952790
 H     24  21   6     2.090480654739   109.84379918   301.99565798
 H     24  21   6     2.090401685281   109.88107071    58.47976894
 C     24  21   6     2.897095314623   112.65855577   180.22092330
 H     27  24  21     2.090558095148   109.21457012   302.36145006
 H     27  24  21     2.090449649146   109.20882160    57.69891632
 C     27  24  21     2.891733619834   113.16942378   180.02119511
 H     30  27  24     2.086308265820   111.31370642    59.91239594
 H     30  27  24     2.086371122372   111.30973629   300.19645147
 C      1   2   3     2.297441379317   178.98256342     3.27836756
 H     33   1   5     2.026737374676   179.68479541    19.74837674
 H     18  15  12     2.082186548029   111.44110119   180.03267647
 H     30  27  24     2.082442116243   111.52185837   180.05557325
 H      2   1   3     2.067139914018   179.80117721   170.17897041

---------------------
BASIS SET INFORMATION
---------------------
There are 2 groups of distinct atoms

 Group   1 Type C   : 17s4p1d contracted to 3s2p1d pattern {881/31/1}
 Group   2 Type H   : 4s1p contracted to 2s1p pattern {31/1}

Atom   0C    basis set group =>   1
Atom   1C    basis set group =>   1
Atom   2C    basis set group =>   1
Atom   3C    basis set group =>   1
Atom   4C    basis set group =>   1
Atom   5C    basis set group =>   1
Atom   6C    basis set group =>   1
Atom   7H    basis set group =>   2
Atom   8H    basis set group =>   2
Atom   9C    basis set group =>   1
Atom  10H    basis set group =>   2
Atom  11C    basis set group =>   1
Atom  12H    basis set group =>   2
Atom  13H    basis set group =>   2
Atom  14C    basis set group =>   1
Atom  15H    basis set group =>   2
Atom  16H    basis set group =>   2
Atom  17C    basis set group =>   1
Atom  18H    basis set group =>   2
Atom  19H    basis set group =>   2
Atom  20C    basis set group =>   1
Atom  21H    basis set group =>   2
Atom  22H    basis set group =>   2
Atom  23C    basis set group =>   1
Atom  24H    basis set group =>   2
Atom  25H    basis set group =>   2
Atom  26C    basis set group =>   1
Atom  27H    basis set group =>   2
Atom  28H    basis set group =>   2
Atom  29C    basis set group =>   1
Atom  30H    basis set group =>   2
Atom  31H    basis set group =>   2
Atom  32C    basis set group =>   1
Atom  33H    basis set group =>   2
Atom  34H    basis set group =>   2
Atom  35H    basis set group =>   2
Atom  36H    basis set group =>   2
---------------------------------
AUXILIARY/J BASIS SET INFORMATION
---------------------------------
There are 2 groups of distinct atoms

 Group   1 Type C   : 14s11p10d2f contracted to 14s11p10d2f pattern {11111111111111/11111111111/1111111111/11}
 Group   2 Type H   : 9s2p1d contracted to 9s2p1d pattern {111111111/11/1}

Atom   0C    basis set group =>   1
Atom   1C    basis set group =>   1
Atom   2C    basis set group =>   1
Atom   3C    basis set group =>   1
Atom   4C    basis set group =>   1
Atom   5C    basis set group =>   1
Atom   6C    basis set group =>   1
Atom   7H    basis set group =>   2
Atom   8H    basis set group =>   2
Atom   9C    basis set group =>   1
Atom  10H    basis set group =>   2
Atom  11C    basis set group =>   1
Atom  12H    basis set group =>   2
Atom  13H    basis set group =>   2
Atom  14C    basis set group =>   1
Atom  15H    basis set group =>   2
Atom  16H    basis set group =>   2
Atom  17C    basis set group =>   1
Atom  18H    basis set group =>   2
Atom  19H    basis set group =>   2
Atom  20C    basis set group =>   1
Atom  21H    basis set group =>   2
Atom  22H    basis set group =>   2
Atom  23C    basis set group =>   1
Atom  24H    basis set group =>   2
Atom  25H    basis set group =>   2
Atom  26C    basis set group =>   1
Atom  27H    basis set group =>   2
Atom  28H    basis set group =>   2
Atom  29C    basis set group =>   1
Atom  30H    basis set group =>   2
Atom  31H    basis set group =>   2
Atom  32C    basis set group =>   1
Atom  33H    basis set group =>   2
Atom  34H    basis set group =>   2
Atom  35H    basis set group =>   2
Atom  36H    basis set group =>   2
---------------------------------
AUXILIARY/C BASIS SET INFORMATION
---------------------------------
There are 2 groups of distinct atoms

 Group   1 Type C   : 14s11p10d2f contracted to 14s11p10d2f pattern {11111111111111/11111111111/1111111111/11}
 Group   2 Type H   : 9s2p1d contracted to 9s2p1d pattern {111111111/11/1}

Atom   0C    basis set group =>   1
Atom   1C    basis set group =>   1
Atom   2C    basis set group =>   1
Atom   3C    basis set group =>   1
Atom   4C    basis set group =>   1
Atom   5C    basis set group =>   1
Atom   6C    basis set group =>   1
Atom   7H    basis set group =>   2
Atom   8H    basis set group =>   2
Atom   9C    basis set group =>   1
Atom  10H    basis set group =>   2
Atom  11C    basis set group =>   1
Atom  12H    basis set group =>   2
Atom  13H    basis set group =>   2
Atom  14C    basis set group =>   1
Atom  15H    basis set group =>   2
Atom  16H    basis set group =>   2
Atom  17C    basis set group =>   1
Atom  18H    basis set group =>   2
Atom  19H    basis set group =>   2
Atom  20C    basis set group =>   1
Atom  21H    basis set group =>   2
Atom  22H    basis set group =>   2
Atom  23C    basis set group =>   1
Atom  24H    basis set group =>   2
Atom  25H    basis set group =>   2
Atom  26C    basis set group =>   1
Atom  27H    basis set group =>   2
Atom  28H    basis set group =>   2
Atom  29C    basis set group =>   1
Atom  30H    basis set group =>   2
Atom  31H    basis set group =>   2
Atom  32C    basis set group =>   1
Atom  33H    basis set group =>   2
Atom  34H    basis set group =>   2
Atom  35H    basis set group =>   2
Atom  36H    basis set group =>   2
----------------------------------
AUXILIARY/JK BASIS SET INFORMATION
----------------------------------
There are 2 groups of distinct atoms

 Group   1 Type C   : 14s11p10d2f contracted to 14s11p10d2f pattern {11111111111111/11111111111/1111111111/11}
 Group   2 Type H   : 9s2p1d contracted to 9s2p1d pattern {111111111/11/1}

Atom   0C    basis set group =>   1
Atom   1C    basis set group =>   1
Atom   2C    basis set group =>   1
Atom   3C    basis set group =>   1
Atom   4C    basis set group =>   1
Atom   5C    basis set group =>   1
Atom   6C    basis set group =>   1
Atom   7H    basis set group =>   2
Atom   8H    basis set group =>   2
Atom   9C    basis set group =>   1
Atom  10H    basis set group =>   2
Atom  11C    basis set group =>   1
Atom  12H    basis set group =>   2
Atom  13H    basis set group =>   2
Atom  14C    basis set group =>   1
Atom  15H    basis set group =>   2
Atom  16H    basis set group =>   2
Atom  17C    basis set group =>   1
Atom  18H    basis set group =>   2
Atom  19H    basis set group =>   2
Atom  20C    basis set group =>   1
Atom  21H    basis set group =>   2
Atom  22H    basis set group =>   2
Atom  23C    basis set group =>   1
Atom  24H    basis set group =>   2
Atom  25H    basis set group =>   2
Atom  26C    basis set group =>   1
Atom  27H    basis set group =>   2
Atom  28H    basis set group =>   2
Atom  29C    basis set group =>   1
Atom  30H    basis set group =>   2
Atom  31H    basis set group =>   2
Atom  32C    basis set group =>   1
Atom  33H    basis set group =>   2
Atom  34H    basis set group =>   2
Atom  35H    basis set group =>   2
Atom  36H    basis set group =>   2


           ************************************************************
           *        Program running with 16 parallel MPI-processes    *
           *              working on a common directory               *
           ************************************************************
------------------------------------------------------------------------------
                           ORCA GTO INTEGRAL CALCULATION
------------------------------------------------------------------------------

                         BASIS SET STATISTICS AND STARTUP INFO

 # of primitive gaussian shells          ...  457
 # of primitive gaussian functions       ...  691
 # of contracted shells                  ...  159
 # of contracted basis functions         ...  329
 Highest angular momentum                ...    2
 Maximum contraction depth               ...    8
 Integral package used                   ... LIBINT
 Integral threshhold            Thresh   ...  1.000e-10
 Primitive cut-off              TCut     ...  1.000e-11


------------------------------ INTEGRAL EVALUATION ----------------------------


 * One electron integrals 
 Pre-screening matrix                    ... done
 Shell pair data                         ... done (   0.005 sec)



           ************************************************************
           *        Program running with 16 parallel MPI-processes    *
           *              working on a common directory               *
           ************************************************************
-------------------------------------------------------------------------------
                                 ORCA SCF
-------------------------------------------------------------------------------

------------
SCF SETTINGS
------------
Hamiltonian:
 Density Functional     Method          .... DFT(GTOs)
 Exchange Functional    Exchange        .... B88
   X-Alpha parameter    XAlpha          ....  0.666667
   Becke's b parameter  XBeta           ....  0.004200
 Correlation Functional Correlation     .... LYP
 LDA part of GGA corr.  LDAOpt          .... VWN-5
 Gradients option       PostSCFGGA      .... off
 Hybrid DFT is turned on
   Fraction HF Exchange ScalHFX         ....  0.200000
   Scaling of DF-GGA-X  ScalDFX         ....  0.720000
   Scaling of DF-GGA-C  ScalDFC         ....  0.810000
   Scaling of DF-LDA-C  ScalLDAC        ....  1.000000
   Perturbative correction              ....  0.000000
   Density functional embedding theory  .... OFF
   NL short-range parameter             ....  4.800000


General Settings:
 Integral files         IntName         .... g-tensor_cc-pVDZ_invariant
 Hartree-Fock type      HFTyp           .... UHF
 Total Charge           Charge          ....    0
 Multiplicity           Mult            ....    2
 Number of Electrons    NEL             ....  117
 Basis Dimension        Dim             ....  329
 Nuclear Repulsion      ENuc            ....    969.2976598215 Eh

Convergence Acceleration:
 DIIS                   CNVDIIS         .... on
   Start iteration      DIISMaxIt       ....    12
   Startup error        DIISStart       ....  0.200000
   # of expansion vecs  DIISMaxEq       ....     5
   Bias factor          DIISBfac        ....   1.050
   Max. coefficient     DIISMaxC        ....  10.000
 Newton-Raphson         CNVNR           .... off
 SOSCF                  CNVSOSCF        .... off
 Level Shifting         CNVShift        .... on
   Level shift para.    LevelShift      ....    0.2500
   Turn off err/grad.   ShiftErr        ....    0.0010
 Zerner damping         CNVZerner       .... off
 Static damping         CNVDamp         .... on
   Fraction old density DampFac         ....    0.7000
   Max. Damping (<1)    DampMax         ....    0.9800
   Min. Damping (>=0)   DampMin         ....    0.0000
   Turn off err/grad.   DampErr         ....    0.1000
 Fernandez-Rico         CNVRico         .... off

SCF Procedure:
 Maximum # iterations   MaxIter         ....   125
 SCF integral mode      SCFMode         .... Direct
   Integral package                     .... LIBINT
 Reset frequency        DirectResetFreq ....    20
 Integral Threshold     Thresh          ....  1.000e-10 Eh
 Primitive CutOff       TCut            ....  1.000e-11 Eh

Convergence Tolerance:
 Convergence Check Mode ConvCheckMode   .... Total+1el-Energy
 Convergence forced     ConvForced      .... 0
 Energy Change          TolE            ....  1.000e-06 Eh
 1-El. energy change                    ....  1.000e-03 Eh
 DIIS Error             TolErr          ....  1.000e-06


Diagonalization of the overlap matrix:
Smallest eigenvalue                        ... 1.556e-04
Time for diagonalization                   ...    0.021 sec
Threshold for overlap eigenvalues          ... 1.000e-08
Number of eigenvalues below threshold      ... 0
Time for construction of square roots      ...    0.039 sec
Total time needed                          ...    0.060 sec

-------------------
DFT GRID GENERATION
-------------------

General Integration Accuracy     IntAcc      ...  4.340
Radial Grid Type                 RadialGrid  ... Gauss-Chebyshev
Angular Grid (max. acc.)         AngularGrid ... Lebedev-110
Angular grid pruning method      GridPruning ... 3 (G Style)
Weight generation scheme         WeightScheme... Becke
Basis function cutoff            BFCut       ...    1.0000e-10
Integration weight cutoff        WCut        ...    1.0000e-14
Grids for H and He will be reduced by one unit

# of grid points (after initial pruning)     ...  43170 (   0.0 sec)
# of grid points (after weights+screening)   ...  38835 (   0.1 sec)
nearest neighbour list constructed           ...    0.0 sec
Grid point re-assignment to atoms done       ...    0.0 sec
Grid point division into batches done        ...    0.0 sec
Reduced shell lists constructed in    0.1 sec

Total number of grid points                  ...    38835
Total number of batches                      ...      624
Average number of points per batch           ...       62
Average number of grid points per atom       ...     1050
Average number of shells per batch           ...    90.17 (56.71%)
Average number of basis functions per batch  ...   179.48 (54.55%)
Average number of large shells per batch     ...    59.80 (66.32%)
Average number of large basis fcns per batch ...   124.00 (69.09%)
Maximum spatial batch extension              ...   3.47,  5.27, 18.22 au
Average spatial batch extension              ...   0.11,  0.13,  0.23 au

Time for grid setup =    0.209 sec

------------------------------
INITIAL GUESS: MODEL POTENTIAL
------------------------------
Loading Hartree-Fock densities                     ... done
Calculating cut-offs                               ... done
Setting up the integral package                    ... done
Initializing the effective Hamiltonian             ... done
Starting the Coulomb interaction                   ... done (   0.2 sec)
Reading the grid                                   ... done
Mapping shells                                     ... done
Starting the XC term evaluation                    ... done (   0.1 sec)
  promolecular density results
     # of electrons  =    117.024822906
     EX              =    -88.406732170
     EC              =     -3.812434881
     EX+EC           =    -92.219167051
Transforming the Hamiltonian                       ... done (   0.0 sec)
Diagonalizing the Hamiltonian                      ... done (   0.0 sec)
Back transforming the eigenvectors                 ... done (   0.0 sec)
Now organizing SCF variables                       ... done
                      ------------------
                      INITIAL GUESS DONE (   0.6 sec)
                      ------------------
--------------
SCF ITERATIONS
--------------
ITER       Energy         Delta-E        Max-DP      RMS-DP      [F,P]     Damp
               ***  Starting incremental Fock matrix formation  ***
  0   -621.4430180917   0.000000000000 0.06345734  0.00092077  0.1736156 0.7000
  1   -621.6294779885  -0.186459896791 0.04634466  0.00067859  0.0914782 0.7000
                               ***Turning on DIIS***
  2   -621.7121740537  -0.082696065171 0.08998064  0.00127537  0.0350123 0.0000
  3   -621.8276085050  -0.115434451311 0.01862498  0.00036875  0.0497739 0.0000
  4   -621.8593670963  -0.031758591238 0.00839196  0.00012868  0.0129535 0.0000
  5   -621.8614047069  -0.002037610627 0.00328203  0.00004475  0.0029216 0.0000
  6   -621.8616963573  -0.000291650401 0.00283909  0.00002440  0.0014129 0.0000
  7   -621.8617956455  -0.000099288246 0.00153849  0.00001467  0.0010007 0.0000
  8   -621.8618431248  -0.000047479227 0.00209647  0.00002386  0.0007090 0.0000
  9   -621.8618918349  -0.000048710101 0.00081483  0.00000869  0.0002660 0.0000
 10   -621.8619009651  -0.000009130279 0.00052687  0.00000539  0.0001649 0.0000
 11   -621.8619046182  -0.000003653058 0.00027272  0.00000283  0.0000307 0.0000
 12   -621.8619058949  -0.000001276741 0.00015449  0.00000156  0.0000299 0.0000
                 **** Energy Check signals convergence ****

               *****************************************************
               *                     SUCCESS                       *
               *           SCF CONVERGED AFTER  13 CYCLES          *
               *****************************************************

Setting up the final grid:

General Integration Accuracy     IntAcc      ...  4.670
Radial Grid Type                 RadialGrid  ... Gauss-Chebyshev
Angular Grid (max. acc.)         AngularGrid ... Lebedev-302
Angular grid pruning method      GridPruning ... 3 (G Style)
Weight generation scheme         WeightScheme... Becke
Basis function cutoff            BFCut       ...    1.0000e-10
Integration weight cutoff        WCut        ...    1.0000e-14
Grids for H and He will be reduced by one unit

# of grid points (after initial pruning)     ... 170666 (   0.0 sec)
# of grid points (after weights+screening)   ... 151092 (   0.2 sec)
nearest neighbour list constructed           ...    0.0 sec
Grid point re-assignment to atoms done       ...    0.0 sec
Grid point division into batches done        ...    0.5 sec
Reduced shell lists constructed in    0.8 sec

Total number of grid points                  ...   151092
Total number of batches                      ...     2379
Average number of points per batch           ...       63
Average number of grid points per atom       ...     4084
Average number of shells per batch           ...    84.59 (53.20%)
Average number of basis functions per batch  ...   168.60 (51.25%)
Average number of large shells per batch     ...    55.29 (65.37%)
Average number of large basis fcns per batch ...   114.96 (68.19%)
Maximum spatial batch extension              ...   3.54,  5.45, 17.17 au
Average spatial batch extension              ...   0.08,  0.09,  0.12 au

Final grid set up in    1.1 sec
Final integration                            ... done (   0.5 sec)
Change in XC energy                          ...     0.002276155
Integrated number of electrons               ...   117.000099300
Previous integrated no of electrons          ...   117.021018912

----------------
TOTAL SCF ENERGY
----------------

Total Energy       :         -621.85963028 Eh          -16921.66082 eV

Components:
Nuclear Repulsion  :          969.29765982 Eh           26375.93025 eV
Electronic Energy  :        -1591.15729010 Eh          -43297.59107 eV
One Electron Energy:        -2760.79481649 Eh          -75125.04624 eV
Two Electron Energy:         1169.63752640 Eh           31827.45517 eV

Virial components:
Potential Energy   :        -1239.22734400 Eh          -33721.09038 eV
Kinetic Energy     :          617.36771373 Eh           16799.42956 eV
Virial Ratio       :            2.00727592


DFT components:
N(Alpha)           :       59.000056831880 electrons
N(Beta)            :       58.000042468445 electrons
N(Total)           :      117.000099300325 electrons
E(X)               :      -71.620067104122 Eh       
E(C)               :       -4.507413008345 Eh       
E(XC)              :      -76.127480112467 Eh       
DFET-embed. en.    :        0.000000000000 Eh       

---------------
SCF CONVERGENCE
---------------

  Last Energy change         ...   -5.3634e-07  Tolerance :   1.0000e-06
  Last MAX-Density change    ...    1.2827e-04  Tolerance :   1.0000e-05
  Last RMS-Density change    ...    1.3993e-06  Tolerance :   1.0000e-06
  Last DIIS Error            ...    2.4457e-05  Tolerance :   1.0000e-06

             **** THE GBW FILE WAS UPDATED (g-tensor_cc-pVDZ_invariant.gbw) ****
             **** DENSITY FILE WAS UPDATED (g-tensor_cc-pVDZ_invariant.scfp) ****
             **** ENERGY FILE WAS UPDATED (g-tensor_cc-pVDZ_invariant.en.tmp) ****
----------------------
UHF SPIN CONTAMINATION
----------------------

Warning: in a DFT calculation there is little theoretical justification to 
         calculate <S**2> as in Hartree-Fock theory. We will do it anyways
         but you should keep in mind that the values have only limited relevance

Expectation value of <S**2>     :     0.780414
Ideal value S*(S+1) for S=0.5   :     0.750000
Deviation                       :     0.030414

             **** THE GBW FILE WAS UPDATED (g-tensor_cc-pVDZ_invariant.gbw) ****
             **** DENSITY FILE WAS UPDATED (g-tensor_cc-pVDZ_invariant.scfp) ****
----------------
ORBITAL ENERGIES
----------------
                 SPIN UP ORBITALS
  NO   OCC          E(Eh)            E(eV) 
   0   1.0000     -10.207314      -277.7551 
   1   1.0000     -10.199201      -277.5344 
   2   1.0000     -10.192108      -277.3413 
   3   1.0000     -10.191720      -277.3308 
   4   1.0000     -10.190571      -277.2995 
   5   1.0000     -10.189542      -277.2715 
   6   1.0000     -10.188227      -277.2358 
   7   1.0000     -10.187213      -277.2081 
   8   1.0000     -10.184578      -277.1365 
   9   1.0000     -10.184261      -277.1278 
  10   1.0000     -10.184225      -277.1269 
  11   1.0000     -10.182727      -277.0861 
  12   1.0000     -10.181026      -277.0398 
  13   1.0000     -10.180833      -277.0346 
  14   1.0000     -10.177058      -276.9318 
  15   1.0000     -10.175383      -276.8862 
  16   1.0000      -0.865802       -23.5597 
  17   1.0000      -0.814589       -22.1661 
  18   1.0000      -0.795100       -21.6358 
  19   1.0000      -0.780106       -21.2278 
  20   1.0000      -0.763734       -20.7822 
  21   1.0000      -0.730759       -19.8850 
  22   1.0000      -0.723559       -19.6890 
  23   1.0000      -0.696378       -18.9494 
  24   1.0000      -0.653678       -17.7875 
  25   1.0000      -0.622636       -16.9428 
  26   1.0000      -0.613033       -16.6815 
  27   1.0000      -0.588424       -16.0118 
  28   1.0000      -0.578909       -15.7529 
  29   1.0000      -0.559225       -15.2173 
  30   1.0000      -0.525886       -14.3101 
  31   1.0000      -0.494723       -13.4621 
  32   1.0000      -0.472679       -12.8622 
  33   1.0000      -0.469476       -12.7751 
  34   1.0000      -0.462272       -12.5791 
  35   1.0000      -0.461898       -12.5689 
  36   1.0000      -0.428659       -11.6644 
  37   1.0000      -0.426212       -11.5978 
  38   1.0000      -0.422690       -11.5020 
  39   1.0000      -0.419647       -11.4192 
  40   1.0000      -0.410429       -11.1683 
  41   1.0000      -0.395422       -10.7600 
  42   1.0000      -0.387856       -10.5541 
  43   1.0000      -0.375466       -10.2170 
  44   1.0000      -0.374400       -10.1879 
  45   1.0000      -0.363046        -9.8790 
  46   1.0000      -0.348180        -9.4745 
  47   1.0000      -0.347793        -9.4639 
  48   1.0000      -0.338395        -9.2082 
  49   1.0000      -0.331500        -9.0206 
  50   1.0000      -0.330620        -8.9966 
  51   1.0000      -0.325229        -8.8499 
  52   1.0000      -0.322726        -8.7818 
  53   1.0000      -0.321344        -8.7442 
  54   1.0000      -0.307996        -8.3810 
  55   1.0000      -0.271930        -7.3996 
  56   1.0000      -0.267977        -7.2920 
  57   1.0000      -0.236217        -6.4278 
  58   1.0000      -0.171300        -4.6613 
  59   0.0000      -0.031615        -0.8603 
  60   0.0000       0.015158         0.4125 
  61   0.0000       0.047982         1.3057 
  62   0.0000       0.062050         1.6885 
  63   0.0000       0.062265         1.6943 
  64   0.0000       0.077424         2.1068 
  65   0.0000       0.084535         2.3003 
  66   0.0000       0.088282         2.4023 
  67   0.0000       0.088363         2.4045 
  68   0.0000       0.094859         2.5812 
  69   0.0000       0.097390         2.6501 
  70   0.0000       0.097883         2.6635 
  71   0.0000       0.103534         2.8173 
  72   0.0000       0.111986         3.0473 
  73   0.0000       0.129695         3.5292 
  74   0.0000       0.132696         3.6109 
  75   0.0000       0.147501         4.0137 
  76   0.0000       0.148732         4.0472 
  77   0.0000       0.149786         4.0759 
  78   0.0000       0.160032         4.3547 
  79   0.0000       0.162558         4.4234 
  80   0.0000       0.168147         4.5755 
  81   0.0000       0.169767         4.6196 
  82   0.0000       0.172011         4.6807 
  83   0.0000       0.181024         4.9259 
  84   0.0000       0.191735         5.2174 
  85   0.0000       0.205979         5.6050 
  86   0.0000       0.212516         5.7828 
  87   0.0000       0.224469         6.1081 
  88   0.0000       0.229067         6.2332 
  89   0.0000       0.238471         6.4891 
  90   0.0000       0.255078         6.9410 
  91   0.0000       0.262382         7.1398 
  92   0.0000       0.283238         7.7073 
  93   0.0000       0.300831         8.1860 
  94   0.0000       0.319498         8.6940 
  95   0.0000       0.342112         9.3093 
  96   0.0000       0.347032         9.4432 
  97   0.0000       0.363730         9.8976 
  98   0.0000       0.368381        10.0242 
  99   0.0000       0.402806        10.9609 
 100   0.0000       0.410677        11.1751 
 101   0.0000       0.412463        11.2237 
 102   0.0000       0.412551        11.2261 
 103   0.0000       0.420516        11.4428 
 104   0.0000       0.430710        11.7202 
 105   0.0000       0.444603        12.0983 
 106   0.0000       0.453873        12.3505 
 107   0.0000       0.465696        12.6722 
 108   0.0000       0.466004        12.6806 
 109   0.0000       0.479258        13.0413 
 110   0.0000       0.482705        13.1351 
 111   0.0000       0.484890        13.1945 
 112   0.0000       0.492736        13.4080 
 113   0.0000       0.509010        13.8509 
 114   0.0000       0.513473        13.9723 
 115   0.0000       0.517507        14.0821 
 116   0.0000       0.522807        14.2263 
 117   0.0000       0.526773        14.3342 
 118   0.0000       0.535381        14.5685 
 119   0.0000       0.544910        14.8278 
 120   0.0000       0.554260        15.0822 
 121   0.0000       0.559158        15.2155 
 122   0.0000       0.569310        15.4917 
 123   0.0000       0.591204        16.0875 
 124   0.0000       0.595124        16.1941 
 125   0.0000       0.605000        16.4629 
 126   0.0000       0.615496        16.7485 
 127   0.0000       0.615710        16.7543 
 128   0.0000       0.619193        16.8491 
 129   0.0000       0.620872        16.8948 
 130   0.0000       0.639015        17.3885 
 131   0.0000       0.639971        17.4145 
 132   0.0000       0.643898        17.5214 
 133   0.0000       0.644183        17.5291 
 134   0.0000       0.651641        17.7321 
 135   0.0000       0.653783        17.7903 
 136   0.0000       0.657936        17.9034 
 137   0.0000       0.659647        17.9499 
 138   0.0000       0.660661        17.9775 
 139   0.0000       0.663388        18.0517 
 140   0.0000       0.668234        18.1836 
 141   0.0000       0.670739        18.2517 
 142   0.0000       0.684011        18.6129 
 143   0.0000       0.688307        18.7298 
 144   0.0000       0.690324        18.7847 
 145   0.0000       0.694236        18.8911 
 146   0.0000       0.695520        18.9261 
 147   0.0000       0.704316        19.1654 
 148   0.0000       0.710829        19.3427 
 149   0.0000       0.713409        19.4128 
 150   0.0000       0.728742        19.8301 
 151   0.0000       0.732195        19.9240 
 152   0.0000       0.733004        19.9461 
 153   0.0000       0.742189        20.1960 
 154   0.0000       0.747181        20.3318 
 155   0.0000       0.753692        20.5090 
 156   0.0000       0.764094        20.7920 
 157   0.0000       0.784258        21.3408 
 158   0.0000       0.813695        22.1418 
 159   0.0000       0.819532        22.3006 
 160   0.0000       0.832219        22.6458 
 161   0.0000       0.837044        22.7771 
 162   0.0000       0.841596        22.9010 
 163   0.0000       0.871682        23.7197 
 164   0.0000       0.888035        24.1647 
 165   0.0000       0.904727        24.6189 
 166   0.0000       0.921393        25.0724 
 167   0.0000       0.923755        25.1367 
 168   0.0000       0.940865        25.6022 
 169   0.0000       0.950712        25.8702 
 170   0.0000       0.957946        26.0670 
 171   0.0000       0.994172        27.0528 
 172   0.0000       0.995170        27.0799 
 173   0.0000       1.012541        27.5526 
 174   0.0000       1.018675        27.7196 
 175   0.0000       1.036588        28.2070 
 176   0.0000       1.040347        28.3093 
 177   0.0000       1.053427        28.6652 
 178   0.0000       1.061133        28.8749 
 179   0.0000       1.069081        29.0912 
 180   0.0000       1.081684        29.4341 
 181   0.0000       1.082697        29.4617 
 182   0.0000       1.133891        30.8547 
 183   0.0000       1.160538        31.5798 
 184   0.0000       1.185939        32.2710 
 185   0.0000       1.204910        32.7873 
 186   0.0000       1.209007        32.8988 
 187   0.0000       1.210680        32.9443 
 188   0.0000       1.217153        33.1204 
 189   0.0000       1.218028        33.1442 
 190   0.0000       1.223596        33.2957 
 191   0.0000       1.226822        33.3835 
 192   0.0000       1.233476        33.5646 
 193   0.0000       1.252856        34.0920 
 194   0.0000       1.285696        34.9856 
 195   0.0000       1.294530        35.2260 
 196   0.0000       1.311160        35.6785 
 197   0.0000       1.322561        35.9887 
 198   0.0000       1.340245        36.4699 
 199   0.0000       1.343494        36.5583 
 200   0.0000       1.345222        36.6054 
 201   0.0000       1.374136        37.3921 
 202   0.0000       1.379910        37.5493 
 203   0.0000       1.392314        37.8868 
 204   0.0000       1.414214        38.4827 
 205   0.0000       1.425019        38.7767 
 206   0.0000       1.426448        38.8156 
 207   0.0000       1.426951        38.8293 
 208   0.0000       1.433239        39.0004 
 209   0.0000       1.444359        39.3030 
 210   0.0000       1.464945        39.8632 
 211   0.0000       1.469096        39.9761 
 212   0.0000       1.470598        40.0170 
 213   0.0000       1.492265        40.6066 
 214   0.0000       1.500160        40.8214 
 215   0.0000       1.522626        41.4328 
 216   0.0000       1.531334        41.6697 
 217   0.0000       1.546196        42.0741 
 218   0.0000       1.572709        42.7956 
 219   0.0000       1.578715        42.9590 
 220   0.0000       1.591948        43.3191 
 221   0.0000       1.596003        43.4294 
 222   0.0000       1.601962        43.5916 
 223   0.0000       1.616086        43.9759 
 224   0.0000       1.623122        44.1674 
 225   0.0000       1.626776        44.2668 
 226   0.0000       1.629869        44.3510 
 227   0.0000       1.632395        44.4197 
 228   0.0000       1.635381        44.5010 
 229   0.0000       1.640022        44.6273 
 230   0.0000       1.645236        44.7692 
 231   0.0000       1.652762        44.9739 
 232   0.0000       1.658050        45.1178 
 233   0.0000       1.670795        45.4646 
 234   0.0000       1.678907        45.6854 
 235   0.0000       1.683065        45.7985 
 236   0.0000       1.686229        45.8846 
 237   0.0000       1.692815        46.0639 
 238   0.0000       1.696551        46.1655 
 239   0.0000       1.701624        46.3035 
 240   0.0000       1.704147        46.3722 
 241   0.0000       1.709510        46.5181 
 242   0.0000       1.713297        46.6212 
 243   0.0000       1.723132        46.8888 
 244   0.0000       1.732730        47.1500 
 245   0.0000       1.740760        47.3685 
 246   0.0000       1.751485        47.6603 
 247   0.0000       1.755943        47.7816 
 248   0.0000       1.760235        47.8984 
 249   0.0000       1.775954        48.3262 
 250   0.0000       1.779504        48.4228 
 251   0.0000       1.791681        48.7541 
 252   0.0000       1.796584        48.8875 
 253   0.0000       1.798280        48.9337 
 254   0.0000       1.817279        49.4507 
 255   0.0000       1.820327        49.5336 
 256   0.0000       1.824404        49.6445 
 257   0.0000       1.837232        49.9936 
 258   0.0000       1.859526        50.6003 
 259   0.0000       1.878424        51.1145 
 260   0.0000       1.878878        51.1269 
 261   0.0000       1.894507        51.5521 
 262   0.0000       1.910933        51.9991 
 263   0.0000       1.920665        52.2639 
 264   0.0000       1.929131        52.4943 
 265   0.0000       1.937603        52.7248 
 266   0.0000       1.941725        52.8370 
 267   0.0000       1.950717        53.0817 
 268   0.0000       1.971651        53.6513 
 269   0.0000       1.997035        54.3421 
 270   0.0000       2.001515        54.4640 
 271   0.0000       2.010898        54.7193 
 272   0.0000       2.030541        55.2538 
 273   0.0000       2.043243        55.5995 
 274   0.0000       2.063204        56.1426 
 275   0.0000       2.076779        56.5120 
 276   0.0000       2.090188        56.8769 
 277   0.0000       2.091231        56.9053 
 278   0.0000       2.115720        57.5717 
 279   0.0000       2.134921        58.0941 
 280   0.0000       2.153801        58.6079 
 281   0.0000       2.158983        58.7489 
 282   0.0000       2.170256        59.0557 
 283   0.0000       2.179709        59.3129 
 284   0.0000       2.184494        59.4431 
 285   0.0000       2.202629        59.9366 
 286   0.0000       2.207561        60.0708 
 287   0.0000       2.221368        60.4465 
 288   0.0000       2.223766        60.5117 
 289   0.0000       2.227192        60.6050 
 290   0.0000       2.262927        61.5774 
 291   0.0000       2.278962        62.0137 
 292   0.0000       2.287492        62.2458 
 293   0.0000       2.294525        62.4372 
 294   0.0000       2.298691        62.5506 
 295   0.0000       2.302919        62.6656 
 296   0.0000       2.321120        63.1609 
 297   0.0000       2.334007        63.5116 
 298   0.0000       2.352656        64.0190 
 299   0.0000       2.355358        64.0925 
 300   0.0000       2.405648        65.4610 
 301   0.0000       2.409788        65.5737 
 302   0.0000       2.411992        65.6336 
 303   0.0000       2.412714        65.6533 
 304   0.0000       2.413090        65.6635 
 305   0.0000       2.426240        66.0213 
 306   0.0000       2.445866        66.5554 
 307   0.0000       2.465790        67.0976 
 308   0.0000       2.474729        67.3408 
 309   0.0000       2.506462        68.2043 
 310   0.0000       2.535064        68.9826 
 311   0.0000       2.536101        69.0108 
 312   0.0000       2.556926        69.5775 
 313   0.0000       2.596221        70.6468 
 314   0.0000       2.596762        70.6615 
 315   0.0000       2.626636        71.4744 
 316   0.0000       2.640810        71.8601 
 317   0.0000       2.679735        72.9193 
 318   0.0000       2.688914        73.1691 
 319   0.0000       2.712979        73.8239 
 320   0.0000       2.721583        74.0580 
 321   0.0000       2.742638        74.6310 
 322   0.0000       2.771423        75.4142 
 323   0.0000       2.820502        76.7498 
 324   0.0000       2.837562        77.2140 
 325   0.0000       2.931144        79.7605 
 326   0.0000       2.989848        81.3579 
 327   0.0000       3.196850        86.9907 
 328   0.0000       3.434895        93.4682 

                 SPIN DOWN ORBITALS
  NO   OCC          E(Eh)            E(eV) 
   0   1.0000     -10.208765      -277.7946 
   1   1.0000     -10.195715      -277.4395 
   2   1.0000     -10.194268      -277.4001 
   3   1.0000     -10.187932      -277.2277 
   4   1.0000     -10.187927      -277.2276 
   5   1.0000     -10.187513      -277.2163 
   6   1.0000     -10.186469      -277.1879 
   7   1.0000     -10.185644      -277.1655 
   8   1.0000     -10.184784      -277.1421 
   9   1.0000     -10.184219      -277.1267 
  10   1.0000     -10.183224      -277.0996 
  11   1.0000     -10.181412      -277.0503 
  12   1.0000     -10.181026      -277.0398 
  13   1.0000     -10.180831      -277.0345 
  14   1.0000     -10.177066      -276.9320 
  15   1.0000     -10.175384      -276.8863 
  16   1.0000      -0.862313       -23.4647 
  17   1.0000      -0.808744       -22.0070 
  18   1.0000      -0.793491       -21.5920 
  19   1.0000      -0.779399       -21.2085 
  20   1.0000      -0.761564       -20.7232 
  21   1.0000      -0.726621       -19.7724 
  22   1.0000      -0.721494       -19.6329 
  23   1.0000      -0.694071       -18.8866 
  24   1.0000      -0.650543       -17.7022 
  25   1.0000      -0.619963       -16.8701 
  26   1.0000      -0.607427       -16.5289 
  27   1.0000      -0.587329       -15.9820 
  28   1.0000      -0.576720       -15.6934 
  29   1.0000      -0.556546       -15.1444 
  30   1.0000      -0.524166       -14.2633 
  31   1.0000      -0.492310       -13.3964 
  32   1.0000      -0.470583       -12.8052 
  33   1.0000      -0.468665       -12.7530 
  34   1.0000      -0.460460       -12.5298 
  35   1.0000      -0.458404       -12.4738 
  36   1.0000      -0.426340       -11.6013 
  37   1.0000      -0.425086       -11.5672 
  38   1.0000      -0.421738       -11.4761 
  39   1.0000      -0.417175       -11.3519 
  40   1.0000      -0.409925       -11.1546 
  41   1.0000      -0.387569       -10.5463 
  42   1.0000      -0.386605       -10.5201 
  43   1.0000      -0.372388       -10.1332 
  44   1.0000      -0.370801       -10.0900 
  45   1.0000      -0.362039        -9.8516 
  46   1.0000      -0.346777        -9.4363 
  47   1.0000      -0.345143        -9.3918 
  48   1.0000      -0.336320        -9.1517 
  49   1.0000      -0.330847        -9.0028 
  50   1.0000      -0.328626        -8.9424 
  51   1.0000      -0.324724        -8.8362 
  52   1.0000      -0.322149        -8.7661 
  53   1.0000      -0.320430        -8.7193 
  54   1.0000      -0.305547        -8.3144 
  55   1.0000      -0.271829        -7.3969 
  56   1.0000      -0.252780        -6.8785 
  57   1.0000      -0.227958        -6.2031 
  58   0.0000      -0.074800        -2.0354 
  59   0.0000      -0.022543        -0.6134 
  60   0.0000       0.032956         0.8968 
  61   0.0000       0.048402         1.3171 
  62   0.0000       0.062147         1.6911 
  63   0.0000       0.062941         1.7127 
  64   0.0000       0.078773         2.1435 
  65   0.0000       0.085180         2.3179 
  66   0.0000       0.089084         2.4241 
  67   0.0000       0.091325         2.4851 
  68   0.0000       0.094771         2.5789 
  69   0.0000       0.098323         2.6755 
  70   0.0000       0.098432         2.6785 
  71   0.0000       0.104341         2.8392 
  72   0.0000       0.112465         3.0603 
  73   0.0000       0.130533         3.5520 
  74   0.0000       0.133113         3.6222 
  75   0.0000       0.147707         4.0193 
  76   0.0000       0.149734         4.0745 
  77   0.0000       0.151601         4.1253 
  78   0.0000       0.160756         4.3744 
  79   0.0000       0.162885         4.4323 
  80   0.0000       0.169182         4.6037 
  81   0.0000       0.171622         4.6701 
  82   0.0000       0.175400         4.7729 
  83   0.0000       0.181355         4.9349 
  84   0.0000       0.195926         5.3314 
  85   0.0000       0.207006         5.6329 
  86   0.0000       0.213115         5.7991 
  87   0.0000       0.224725         6.1151 
  88   0.0000       0.231952         6.3117 
  89   0.0000       0.240115         6.5339 
  90   0.0000       0.255678         6.9574 
  91   0.0000       0.265549         7.2260 
  92   0.0000       0.283410         7.7120 
  93   0.0000       0.303283         8.2527 
  94   0.0000       0.319833         8.7031 
  95   0.0000       0.343794         9.3551 
  96   0.0000       0.348577         9.4853 
  97   0.0000       0.365011         9.9324 
  98   0.0000       0.370044        10.0694 
  99   0.0000       0.404411        11.0046 
 100   0.0000       0.410881        11.1807 
 101   0.0000       0.412855        11.2343 
 102   0.0000       0.413089        11.2407 
 103   0.0000       0.421104        11.4588 
 104   0.0000       0.434227        11.8159 
 105   0.0000       0.456795        12.4300 
 106   0.0000       0.460791        12.5388 
 107   0.0000       0.466557        12.6957 
 108   0.0000       0.469556        12.7773 
 109   0.0000       0.482429        13.1276 
 110   0.0000       0.488425        13.2907 
 111   0.0000       0.490500        13.3472 
 112   0.0000       0.495433        13.4814 
 113   0.0000       0.510401        13.8887 
 114   0.0000       0.514531        14.0011 
 115   0.0000       0.522705        14.2235 
 116   0.0000       0.525266        14.2932 
 117   0.0000       0.536910        14.6101 
 118   0.0000       0.538973        14.6662 
 119   0.0000       0.545800        14.8520 
 120   0.0000       0.555486        15.1156 
 121   0.0000       0.570966        15.5368 
 122   0.0000       0.572666        15.5830 
 123   0.0000       0.593110        16.1393 
 124   0.0000       0.596683        16.2366 
 125   0.0000       0.605851        16.4860 
 126   0.0000       0.616208        16.7679 
 127   0.0000       0.617583        16.8053 
 128   0.0000       0.621409        16.9094 
 129   0.0000       0.624879        17.0038 
 130   0.0000       0.639474        17.4010 
 131   0.0000       0.640124        17.4187 
 132   0.0000       0.644167        17.5287 
 133   0.0000       0.647729        17.6256 
 134   0.0000       0.652367        17.7518 
 135   0.0000       0.655274        17.8309 
 136   0.0000       0.658272        17.9125 
 137   0.0000       0.660595        17.9757 
 138   0.0000       0.660973        17.9860 
 139   0.0000       0.666256        18.1297 
 140   0.0000       0.669850        18.2276 
 141   0.0000       0.672205        18.2916 
 142   0.0000       0.685576        18.6555 
 143   0.0000       0.688683        18.7400 
 144   0.0000       0.691272        18.8105 
 145   0.0000       0.695232        18.9182 
 146   0.0000       0.696697        18.9581 
 147   0.0000       0.705348        19.1935 
 148   0.0000       0.712273        19.3819 
 149   0.0000       0.715605        19.4726 
 150   0.0000       0.729828        19.8596 
 151   0.0000       0.734423        19.9847 
 152   0.0000       0.737298        20.0629 
 153   0.0000       0.745166        20.2770 
 154   0.0000       0.748888        20.3783 
 155   0.0000       0.755654        20.5624 
 156   0.0000       0.765061        20.8184 
 157   0.0000       0.787406        21.4264 
 158   0.0000       0.814755        22.1706 
 159   0.0000       0.821828        22.3631 
 160   0.0000       0.834437        22.7062 
 161   0.0000       0.838011        22.8034 
 162   0.0000       0.842592        22.9281 
 163   0.0000       0.875070        23.8119 
 164   0.0000       0.891920        24.2704 
 165   0.0000       0.905555        24.6414 
 166   0.0000       0.927646        25.2425 
 167   0.0000       0.927969        25.2513 
 168   0.0000       0.951159        25.8824 
 169   0.0000       0.952424        25.9168 
 170   0.0000       0.960739        26.1430 
 171   0.0000       0.994783        27.0694 
 172   0.0000       0.997423        27.1413 
 173   0.0000       1.014484        27.6055 
 174   0.0000       1.022777        27.8312 
 175   0.0000       1.038897        28.2698 
 176   0.0000       1.041145        28.3310 
 177   0.0000       1.058159        28.7940 
 178   0.0000       1.062419        28.9099 
 179   0.0000       1.069026        29.0897 
 180   0.0000       1.085040        29.5254 
 181   0.0000       1.085252        29.5312 
 182   0.0000       1.134876        30.8816 
 183   0.0000       1.160400        31.5761 
 184   0.0000       1.187046        32.3012 
 185   0.0000       1.205247        32.7964 
 186   0.0000       1.209556        32.9137 
 187   0.0000       1.211590        32.9690 
 188   0.0000       1.217652        33.1340 
 189   0.0000       1.219451        33.1829 
 190   0.0000       1.223983        33.3063 
 191   0.0000       1.227767        33.4093 
 192   0.0000       1.236568        33.6487 
 193   0.0000       1.253600        34.1122 
 194   0.0000       1.286987        35.0207 
 195   0.0000       1.296521        35.2801 
 196   0.0000       1.311999        35.7013 
 197   0.0000       1.327184        36.1145 
 198   0.0000       1.341130        36.4940 
 199   0.0000       1.344825        36.5945 
 200   0.0000       1.358098        36.9557 
 201   0.0000       1.376333        37.4519 
 202   0.0000       1.380502        37.5654 
 203   0.0000       1.397375        38.0245 
 204   0.0000       1.415958        38.5302 
 205   0.0000       1.425126        38.7796 
 206   0.0000       1.426469        38.8162 
 207   0.0000       1.428422        38.8693 
 208   0.0000       1.442174        39.2436 
 209   0.0000       1.445692        39.3393 
 210   0.0000       1.467628        39.9362 
 211   0.0000       1.469657        39.9914 
 212   0.0000       1.473373        40.0925 
 213   0.0000       1.495734        40.7010 
 214   0.0000       1.502080        40.8737 
 215   0.0000       1.524904        41.4948 
 216   0.0000       1.533540        41.7298 
 217   0.0000       1.550391        42.1883 
 218   0.0000       1.574535        42.8453 
 219   0.0000       1.581469        43.0339 
 220   0.0000       1.592898        43.3449 
 221   0.0000       1.598385        43.4943 
 222   0.0000       1.602875        43.6164 
 223   0.0000       1.616967        43.9999 
 224   0.0000       1.623560        44.1793 
 225   0.0000       1.628873        44.3239 
 226   0.0000       1.630207        44.3602 
 227   0.0000       1.634319        44.4721 
 228   0.0000       1.636911        44.5426 
 229   0.0000       1.640600        44.6430 
 230   0.0000       1.645846        44.7857 
 231   0.0000       1.653665        44.9985 
 232   0.0000       1.659104        45.1465 
 233   0.0000       1.673702        45.5438 
 234   0.0000       1.679700        45.7070 
 235   0.0000       1.683767        45.8176 
 236   0.0000       1.686502        45.8921 
 237   0.0000       1.695475        46.1362 
 238   0.0000       1.696885        46.1746 
 239   0.0000       1.702748        46.3341 
 240   0.0000       1.705297        46.4035 
 241   0.0000       1.711740        46.5788 
 242   0.0000       1.714530        46.6547 
 243   0.0000       1.723959        46.9113 
 244   0.0000       1.733646        47.1749 
 245   0.0000       1.745056        47.4854 
 246   0.0000       1.754086        47.7311 
 247   0.0000       1.757121        47.8137 
 248   0.0000       1.760737        47.9121 
 249   0.0000       1.777798        48.3763 
 250   0.0000       1.782379        48.5010 
 251   0.0000       1.793517        48.8041 
 252   0.0000       1.799343        48.9626 
 253   0.0000       1.799757        48.9739 
 254   0.0000       1.820135        49.5284 
 255   0.0000       1.822706        49.5984 
 256   0.0000       1.826579        49.7037 
 257   0.0000       1.839861        50.0652 
 258   0.0000       1.860409        50.6243 
 259   0.0000       1.879676        51.1486 
 260   0.0000       1.887906        51.3725 
 261   0.0000       1.894784        51.5597 
 262   0.0000       1.911997        52.0281 
 263   0.0000       1.924464        52.3673 
 264   0.0000       1.930613        52.5346 
 265   0.0000       1.937716        52.7279 
 266   0.0000       1.944632        52.9161 
 267   0.0000       1.952028        53.1174 
 268   0.0000       1.973736        53.7081 
 269   0.0000       2.002052        54.4786 
 270   0.0000       2.004594        54.5478 
 271   0.0000       2.011585        54.7380 
 272   0.0000       2.035243        55.3818 
 273   0.0000       2.047157        55.7060 
 274   0.0000       2.064378        56.1746 
 275   0.0000       2.077760        56.5387 
 276   0.0000       2.090696        56.8907 
 277   0.0000       2.095286        57.0156 
 278   0.0000       2.119327        57.6698 
 279   0.0000       2.138261        58.1850 
 280   0.0000       2.156531        58.6822 
 281   0.0000       2.162227        58.8372 
 282   0.0000       2.174617        59.1743 
 283   0.0000       2.180539        59.3355 
 284   0.0000       2.188275        59.5460 
 285   0.0000       2.203219        59.9526 
 286   0.0000       2.210242        60.1437 
 287   0.0000       2.223693        60.5098 
 288   0.0000       2.224614        60.5348 
 289   0.0000       2.228962        60.6531 
 290   0.0000       2.263552        61.5944 
 291   0.0000       2.282077        62.0985 
 292   0.0000       2.288325        62.2685 
 293   0.0000       2.295471        62.4629 
 294   0.0000       2.300454        62.5985 
 295   0.0000       2.306551        62.7644 
 296   0.0000       2.321338        63.1668 
 297   0.0000       2.335517        63.5527 
 298   0.0000       2.356262        64.1171 
 299   0.0000       2.357788        64.1587 
 300   0.0000       2.406665        65.4887 
 301   0.0000       2.410783        65.6007 
 302   0.0000       2.412362        65.6437 
 303   0.0000       2.413773        65.6821 
 304   0.0000       2.414041        65.6894 
 305   0.0000       2.428087        66.0716 
 306   0.0000       2.446961        66.5852 
 307   0.0000       2.467898        67.1549 
 308   0.0000       2.475452        67.3605 
 309   0.0000       2.507402        68.2299 
 310   0.0000       2.535738        69.0009 
 311   0.0000       2.537327        69.0442 
 312   0.0000       2.557913        69.6044 
 313   0.0000       2.596960        70.6669 
 314   0.0000       2.597531        70.6824 
 315   0.0000       2.627907        71.5090 
 316   0.0000       2.642244        71.8991 
 317   0.0000       2.681755        72.9743 
 318   0.0000       2.690266        73.2059 
 319   0.0000       2.713245        73.8312 
 320   0.0000       2.722149        74.0734 
 321   0.0000       2.743778        74.6620 
 322   0.0000       2.772764        75.4508 
 323   0.0000       2.821771        76.7843 
 324   0.0000       2.838952        77.2518 
 325   0.0000       2.931575        79.7722 
 326   0.0000       2.992622        81.4334 
 327   0.0000       3.196357        86.9773 
 328   0.0000       3.436620        93.5152 

                    ********************************
                    * MULLIKEN POPULATION ANALYSIS *
                    ********************************

--------------------------------------------
MULLIKEN ATOMIC CHARGES AND SPIN POPULATIONS
--------------------------------------------
   0 C :    0.597444    0.023502
   1 C :    0.019363    0.215187
   2 C :    0.083295   -0.158509
   3 C :    0.001753    0.219311
   4 C :   -0.047454   -0.100831
   5 C :   -0.088024    0.238427
   6 C :    0.033410   -0.110767
   7 H :   -0.052258   -0.009191
   8 H :   -0.042232    0.004007
   9 C :   -0.076565    0.737906
  10 H :   -0.035510   -0.032302
  11 C :    0.029190   -0.050449
  12 H :    0.027442    0.033314
  13 H :    0.028056    0.033272
  14 C :   -0.042640    0.002189
  15 H :    0.011230    0.000583
  16 H :    0.011985    0.000570
  17 C :    0.003142   -0.000161
  18 H :    0.017712    0.000161
  19 H :    0.017335    0.000161
  20 C :    0.040746   -0.018982
  21 H :    0.032490    0.010383
  22 H :    0.031991    0.010094
  23 C :   -0.037701    0.000857
  24 H :    0.014516    0.000169
  25 H :    0.014349    0.000144
  26 C :   -0.024269    0.000021
  27 H :    0.006417    0.000058
  28 H :    0.005920    0.000058
  29 C :    0.003413   -0.000081
  30 H :    0.016032    0.000023
  31 H :    0.016380    0.000023
  32 C :   -0.573032   -0.041189
  33 H :   -0.025209    0.001516
  34 H :    0.014812   -0.000212
  35 H :    0.011793   -0.000006
  36 H :   -0.045322   -0.009259
Sum of atomic charges         :    0.0000000
Sum of atomic spin populations:    1.0000000

-----------------------------------------------------
MULLIKEN REDUCED ORBITAL CHARGES AND SPIN POPULATIONS
-----------------------------------------------------
CHARGE
  0 C s       :     3.125403  s :     3.125403
      pz      :     0.960595  p :     2.222580
      px      :     0.329041
      py      :     0.932944
      dz2     :     0.003549  d :     0.054573
      dxz     :     0.021501
      dyz     :     0.000195
      dx2y2   :     0.009173
      dxy     :     0.020154
  1 C s       :     3.152187  s :     3.152187
      pz      :     0.980620  p :     2.763189
      px      :     0.820213
      py      :     0.962356
      dz2     :     0.003155  d :     0.065261
      dxz     :     0.003718
      dyz     :     0.013309
      dx2y2   :     0.026577
      dxy     :     0.018501
  2 C s       :     3.098408  s :     3.098408
      pz      :     0.951606  p :     2.732661
      px      :     0.948641
      py      :     0.832414
      dz2     :     0.004615  d :     0.085636
      dxz     :     0.012731
      dyz     :     0.014066
      dx2y2   :     0.027112
      dxy     :     0.027113
  3 C s       :     3.217406  s :     3.217406
      pz      :     0.988135  p :     2.717204
      px      :     0.894409
      py      :     0.834660
      dz2     :     0.003379  d :     0.063637
      dxz     :     0.010274
      dyz     :     0.006920
      dx2y2   :     0.019139
      dxy     :     0.023925
  4 C s       :     3.222501  s :     3.222501
      pz      :     1.001157  p :     2.736860
      px      :     0.816231
      py      :     0.919472
      dz2     :     0.004712  d :     0.088093
      dxz     :     0.012341
      dyz     :     0.013963
      dx2y2   :     0.030005
      dxy     :     0.027071
  5 C s       :     3.172855  s :     3.172855
      pz      :     0.955814  p :     2.831765
      px      :     0.939049
      py      :     0.936902
      dz2     :     0.004713  d :     0.083405
      dxz     :     0.014076
      dyz     :     0.012172
      dx2y2   :     0.024555
      dxy     :     0.027889
  6 C s       :     3.127264  s :     3.127264
      pz      :     0.995260  p :     2.774329
      px      :     0.950776
      py      :     0.828292
      dz2     :     0.003038  d :     0.064998
      dxz     :     0.010732
      dyz     :     0.006616
      dx2y2   :     0.020075
      dxy     :     0.024536
  7 H s       :     1.024051  s :     1.024051
      pz      :     0.006276  p :     0.028206
      px      :     0.008559
      py      :     0.013371
  8 H s       :     1.013580  s :     1.013580
      pz      :     0.006204  p :     0.028652
      px      :     0.008354
      py      :     0.014094
  9 C s       :     3.218487  s :     3.218487
      pz      :     0.997856  p :     2.798583
      px      :     0.884855
      py      :     0.915872
      dz2     :     0.003412  d :     0.059496
      dxz     :     0.003844
      dyz     :     0.012287
      dx2y2   :     0.023109
      dxy     :     0.016844
 10 H s       :     1.006932  s :     1.006932
      pz      :     0.006423  p :     0.028578
      px      :     0.017921
      py      :     0.004235
 11 C s       :     3.029192  s :     3.029192
      pz      :     0.956668  p :     2.873179
      px      :     0.981738
      py      :     0.934773
      dz2     :     0.008319  d :     0.068439
      dxz     :     0.018389
      dyz     :     0.009883
      dx2y2   :     0.015775
      dxy     :     0.016074
 12 H s       :     0.944864  s :     0.944864
      pz      :     0.013437  p :     0.027694
      px      :     0.009451
      py      :     0.004805
 13 H s       :     0.944261  s :     0.944261
      pz      :     0.012977  p :     0.027683
      px      :     0.009885
      py      :     0.004820
 14 C s       :     3.076125  s :     3.076125
      pz      :     0.968957  p :     2.897050
      px      :     0.977914
      py      :     0.950179
      dz2     :     0.008985  d :     0.069464
      dxz     :     0.018863
      dyz     :     0.009041
      dx2y2   :     0.014995
      dxy     :     0.017580
 15 H s       :     0.961513  s :     0.961513
      pz      :     0.013300  p :     0.027257
      px      :     0.009280
      py      :     0.004676
 16 H s       :     0.960759  s :     0.960759
      pz      :     0.012840  p :     0.027255
      px      :     0.009731
      py      :     0.004684
 17 C s       :     3.016027  s :     3.016027
      pz      :     0.986717  p :     2.932742
      px      :     0.969728
      py      :     0.976297
      dz2     :     0.007438  d :     0.048089
      dxz     :     0.013156
      dyz     :     0.005967
      dx2y2   :     0.007811
      dxy     :     0.013718
 18 H s       :     0.953887  s :     0.953887
      pz      :     0.012972  p :     0.028401
      px      :     0.010019
      py      :     0.005410
 19 H s       :     0.954254  s :     0.954254
      pz      :     0.013421  p :     0.028411
      px      :     0.009602
      py      :     0.005388
 20 C s       :     2.969155  s :     2.969155
      pz      :     0.971744  p :     2.922965
      px      :     1.020121
      py      :     0.931099
      dz2     :     0.008830  d :     0.067135
      dxz     :     0.017370
      dyz     :     0.009624
      dx2y2   :     0.015405
      dxy     :     0.015907
 21 H s       :     0.939401  s :     0.939401
      pz      :     0.013141  p :     0.028109
      px      :     0.010316
      py      :     0.004651
 22 H s       :     0.939883  s :     0.939883
      pz      :     0.013316  p :     0.028126
      px      :     0.010158
      py      :     0.004652
 23 C s       :     3.071188  s :     3.071188
      pz      :     0.958598  p :     2.898062
      px      :     0.988231
      py      :     0.951233
      dz2     :     0.008651  d :     0.068451
      dxz     :     0.019791
      dyz     :     0.008858
      dx2y2   :     0.014069
      dxy     :     0.017081
 24 H s       :     0.958215  s :     0.958215
      pz      :     0.012892  p :     0.027269
      px      :     0.009673
      py      :     0.004704
 25 H s       :     0.958367  s :     0.958367
      pz      :     0.013120  p :     0.027284
      px      :     0.009445
      py      :     0.004718
 26 C s       :     3.070934  s :     3.070934
      pz      :     0.964322  p :     2.883948
      px      :     0.975591
      py      :     0.944034
      dz2     :     0.008899  d :     0.069388
      dxz     :     0.019358
      dyz     :     0.008745
      dx2y2   :     0.015330
      dxy     :     0.017056
 27 H s       :     0.966205  s :     0.966205
      pz      :     0.012942  p :     0.027378
      px      :     0.009754
      py      :     0.004682
 28 H s       :     0.966697  s :     0.966697
      pz      :     0.013187  p :     0.027384
      px      :     0.009518
      py      :     0.004679
 29 C s       :     3.017131  s :     3.017131
      pz      :     0.985706  p :     2.931328
      px      :     0.971832
      py      :     0.973790
      dz2     :     0.007417  d :     0.048128
      dxz     :     0.014637
      dyz     :     0.004530
      dx2y2   :     0.008612
      dxy     :     0.012931
 30 H s       :     0.955560  s :     0.955560
      pz      :     0.013282  p :     0.028408
      px      :     0.009715
      py      :     0.005410
 31 H s       :     0.955212  s :     0.955212
      pz      :     0.013038  p :     0.028408
      px      :     0.009968
      py      :     0.005402
 32 C s       :     3.660492  s :     3.660492
      pz      :     1.013947  p :     2.883690
      px      :     0.848195
      py      :     1.021547
      dz2     :     0.001942  d :     0.028850
      dxz     :     0.010502
      dyz     :     0.000008
      dx2y2   :     0.005767
      dxy     :     0.010631
 33 H s       :     0.992381  s :     0.992381
      pz      :     0.007200  p :     0.032828
      px      :     0.018723
      py      :     0.006906
 34 H s       :     0.956775  s :     0.956775
      pz      :     0.006312  p :     0.028413
      px      :     0.010664
      py      :     0.011437
 35 H s       :     0.959733  s :     0.959733
      pz      :     0.006315  p :     0.028474
      px      :     0.009247
      py      :     0.012913
 36 H s       :     1.017071  s :     1.017071
      pz      :     0.006164  p :     0.028251
      px      :     0.017882
      py      :     0.004206

SPIN
  0 C s       :     0.004966  s :     0.004966
      pz      :     0.015617  p :     0.020772
      px      :     0.000847
      py      :     0.004309
      dz2     :    -0.000043  d :    -0.002236
      dxz     :    -0.002016
      dyz     :     0.000043
      dx2y2   :    -0.000043
      dxy     :    -0.000177
  1 C s       :     0.017234  s :     0.017234
      pz      :     0.183516  p :     0.200540
      px      :     0.009585
      py      :     0.007438
      dz2     :    -0.000676  d :    -0.002587
      dxz     :    -0.000123
      dyz     :    -0.001524
      dx2y2   :    -0.000184
      dxy     :    -0.000080
  2 C s       :    -0.020740  s :    -0.020740
      pz      :    -0.115822  p :    -0.151674
      px      :    -0.016534
      py      :    -0.019319
      dz2     :     0.000362  d :     0.013905
      dxz     :     0.003828
      dyz     :     0.009361
      dx2y2   :     0.000179
      dxy     :     0.000175
  3 C s       :     0.016983  s :     0.016983
      pz      :     0.185323  p :     0.204997
      px      :     0.010733
      py      :     0.008942
      dz2     :    -0.000666  d :    -0.002670
      dxz     :    -0.001213
      dyz     :    -0.000522
      dx2y2   :    -0.000037
      dxy     :    -0.000232
  4 C s       :    -0.008611  s :    -0.008611
      pz      :    -0.076934  p :    -0.098086
      px      :    -0.009657
      py      :    -0.011494
      dz2     :     0.000271  d :     0.005866
      dxz     :     0.000455
      dyz     :     0.004966
      dx2y2   :     0.000025
      dxy     :     0.000148
  5 C s       :     0.014616  s :     0.014616
      pz      :     0.197270  p :     0.225705
      px      :     0.014481
      py      :     0.013953
      dz2     :    -0.000740  d :    -0.001893
      dxz     :    -0.000831
      dyz     :    -0.000343
      dx2y2   :     0.000010
      dxy     :     0.000012
  6 C s       :    -0.012149  s :    -0.012149
      pz      :    -0.084570  p :    -0.104466
[...]
B( 23-C , 24-H ) :   0.9304 B( 23-C , 25-H ) :   0.9299 B( 23-C , 26-C ) :   1.0751 
B( 26-C , 27-H ) :   0.9418 B( 26-C , 28-H ) :   0.9417 B( 26-C , 29-C ) :   1.1036 
B( 29-C , 30-H ) :   0.9666 B( 29-C , 31-H ) :   0.9666 B( 29-C , 35-H ) :   0.9628 
B( 32-C , 33-H ) :   1.1027 

-------
TIMINGS
-------

Total SCF time: 0 days 0 hours 0 min 47 sec 

Total time                  ....      47.172 sec
Sum of individual times     ....      46.049 sec  ( 97.6%)

Fock matrix formation       ....      42.198 sec  ( 89.5%)
  XC integration            ....       2.815 sec  (  6.7% of F)
    Basis function eval.    ....       0.452 sec  ( 16.0% of XC)
    Density eval.           ....       0.376 sec  ( 13.3% of XC)
    XC-Functional eval.     ....       0.087 sec  (  3.1% of XC)
    XC-Potential eval.      ....       0.555 sec  ( 19.7% of XC)
Diagonalization             ....       1.076 sec  (  2.3%)
Density matrix formation    ....       0.076 sec  (  0.2%)
Population analysis         ....       0.161 sec  (  0.3%)
Initial guess               ....       0.439 sec  (  0.9%)
Orbital Transformation      ....       0.000 sec  (  0.0%)
Orbital Orthonormalization  ....       0.000 sec  (  0.0%)
DIIS solution               ....       0.809 sec  (  1.7%)
Grid generation             ....       1.290 sec  (  2.7%)

-------------------------   --------------------
FINAL SINGLE POINT ENERGY      -621.859630275819
-------------------------   --------------------

   --->>> g-tensor requested, so NeedSOC=true

                            ***************************************
                            *     ORCA property calculations      *
                            ***************************************

                                    ---------------------
                                    Active property flags
                                    ---------------------
   (+) Dipole Moment
   (+) g-tensor
   (+) Nuclear properties (Hyperfine,Quadrupole)
   (+) Spin-Orbit Integrals are needed


------------------------------------------------------------------------------
                       ORCA ELECTRIC PROPERTIES CALCULATION
------------------------------------------------------------------------------

Dipole Moment Calculation                       ... on
Quadrupole Moment Calculation                   ... off
Polarizability Calculation                      ... off
GBWName                                         ... g-tensor_cc-pVDZ_invariant.gbw
Electron density file                           ... g-tensor_cc-pVDZ_invariant.scfp
The origin for moment calculation is the CENTER OF MASS  = (-0.844138, -0.005213  0.017001)

-------------
DIPOLE MOMENT
-------------
                                X             Y             Z
Electronic contribution:     -4.84727       2.14968      -0.03813
Nuclear contribution   :      4.98876      -2.15176       0.04000
                        -----------------------------------------
Total Dipole Moment    :      0.14150      -0.00208       0.00187
                        -----------------------------------------
Magnitude (a.u.)       :      0.14152
Magnitude (Debye)      :      0.35972



--------------------
Rotational spectrum 
--------------------
 
Rotational constants in cm-1:     0.039542     0.006002     0.005247 
Rotational constants in MHz :  1185.439831   179.939804   157.297060 

 Dipole components along the rotational axes: 
x,y,z [a.u.] :    -0.032150     0.137822    -0.000591 
x,y,z [Debye]:    -0.081718     0.350317    -0.001501 

 


           ************************************************************
           *        Program running with 16 parallel MPI-processes    *
           *              working on a common directory               *
           ************************************************************
------------------------------------------------------------------------------
                         ORCA SPIN-ORBIT COUPLING CALCULATION
------------------------------------------------------------------------------

GBW file                                    ... g-tensor_cc-pVDZ_invariant.gbw
Input density                               ... g-tensor_cc-pVDZ_invariant.scfp
Output integrals                            ... g-tensor_cc-pVDZ_invariant
Operator type                               ... Mean-field/Effective potential
   One-Electron Terms                       ... 1
   Coulomb Contribution                     ... 2
   Exchange Contribution                    ... 3
   Correlation Contribution                 ... 0
   Maximum number of centers                ... 4
Setting up the integration grid             ... done
Evaluating density on the grid              ... (NumEl=  117.021019) done
Evaluating Coulomb term semi-analytically   ... done
One-Center Exchange (+SOO)                  ... done
Evaluating the spin-orbit operator          ... done
Total time for SOC: 14.755


           ************************************************************
           *        Program running with 16 parallel MPI-processes    *
           *              working on a common directory               *
           ************************************************************
------------------------------------------------------------------------------
                                ORCA EPR/NMR CALCULATION
------------------------------------------------------------------------------

GBWName                      ... g-tensor_cc-pVDZ_invariant.gbw
Electron density file        ... g-tensor_cc-pVDZ_invariant.scfp
Spin density file            ... g-tensor_cc-pVDZ_invariant.scfr
Spin-orbit integrals         ... g-tensor_cc-pVDZ_invariant
Treatment of gauge           ... GIAO (approximations 1/2el = 0,3)
Details of the CP(SCF) procedure:
       Solver   = POPLE   
       MaxIter  =    64   
       Tolerance=    1.000e-06
       Op-0     =   0- 58 =>  59-328
       Op-1     =   0- 57 =>  58-328
Multiplicity                 ... 2
g-tensor                     ... 1
NMR chemical shifts          ... 0
Number of nuclei for epr/nmr ... 21
   Nucleus:   7H 
       Hyperfine : Isotope=    1 I=   0.500 P= 533.551
       Quadrupole: Isotope=    2 I=   1.000 Q=   0.003
       Spin-Orbit: Zeff=   1.000
       Ncuelar Spin-Spin: Gn=   0.000
       rho(0)=N f(grad)=N a(iso)=Y a(dip)=Y a(orb)=Y sigma(nmr)=N spin-spin(nmr)=all-N,DSO-N,PSO-N,FC-N,SD-N
   Nucleus:   8H 
       Hyperfine : Isotope=    1 I=   0.500 P= 533.551
       Quadrupole: Isotope=    2 I=   1.000 Q=   0.003
       Spin-Orbit: Zeff=   1.000
       Ncuelar Spin-Spin: Gn=   0.000
       rho(0)=N f(grad)=N a(iso)=Y a(dip)=Y a(orb)=Y sigma(nmr)=N spin-spin(nmr)=all-N,DSO-N,PSO-N,FC-N,SD-N
   Nucleus:  10H 
       Hyperfine : Isotope=    1 I=   0.500 P= 533.551
       Quadrupole: Isotope=    2 I=   1.000 Q=   0.003
       Spin-Orbit: Zeff=   1.000
       Ncuelar Spin-Spin: Gn=   0.000
       rho(0)=N f(grad)=N a(iso)=Y a(dip)=Y a(orb)=Y sigma(nmr)=N spin-spin(nmr)=all-N,DSO-N,PSO-N,FC-N,SD-N
   Nucleus:  12H 
       Hyperfine : Isotope=    1 I=   0.500 P= 533.551
       Quadrupole: Isotope=    2 I=   1.000 Q=   0.003
       Spin-Orbit: Zeff=   1.000
       Ncuelar Spin-Spin: Gn=   0.000
       rho(0)=N f(grad)=N a(iso)=Y a(dip)=Y a(orb)=Y sigma(nmr)=N spin-spin(nmr)=all-N,DSO-N,PSO-N,FC-N,SD-N
   Nucleus:  13H 
       Hyperfine : Isotope=    1 I=   0.500 P= 533.551
       Quadrupole: Isotope=    2 I=   1.000 Q=   0.003
       Spin-Orbit: Zeff=   1.000
       Ncuelar Spin-Spin: Gn=   0.000
       rho(0)=N f(grad)=N a(iso)=Y a(dip)=Y a(orb)=Y sigma(nmr)=N spin-spin(nmr)=all-N,DSO-N,PSO-N,FC-N,SD-N
   Nucleus:  15H 
       Hyperfine : Isotope=    1 I=   0.500 P= 533.551
       Quadrupole: Isotope=    2 I=   1.000 Q=   0.003
       Spin-Orbit: Zeff=   1.000
       Ncuelar Spin-Spin: Gn=   0.000
       rho(0)=N f(grad)=N a(iso)=Y a(dip)=Y a(orb)=Y sigma(nmr)=N spin-spin(nmr)=all-N,DSO-N,PSO-N,FC-N,SD-N
   Nucleus:  16H 
       Hyperfine : Isotope=    1 I=   0.500 P= 533.551
       Quadrupole: Isotope=    2 I=   1.000 Q=   0.003
       Spin-Orbit: Zeff=   1.000
       Ncuelar Spin-Spin: Gn=   0.000
       rho(0)=N f(grad)=N a(iso)=Y a(dip)=Y a(orb)=Y sigma(nmr)=N spin-spin(nmr)=all-N,DSO-N,PSO-N,FC-N,SD-N
   Nucleus:  18H 
       Hyperfine : Isotope=    1 I=   0.500 P= 533.551
       Quadrupole: Isotope=    2 I=   1.000 Q=   0.003
       Spin-Orbit: Zeff=   1.000
       Ncuelar Spin-Spin: Gn=   0.000
       rho(0)=N f(grad)=N a(iso)=Y a(dip)=Y a(orb)=Y sigma(nmr)=N spin-spin(nmr)=all-N,DSO-N,PSO-N,FC-N,SD-N
   Nucleus:  19H 
       Hyperfine : Isotope=    1 I=   0.500 P= 533.551
       Quadrupole: Isotope=    2 I=   1.000 Q=   0.003
       Spin-Orbit: Zeff=   1.000
       Ncuelar Spin-Spin: Gn=   0.000
       rho(0)=N f(grad)=N a(iso)=Y a(dip)=Y a(orb)=Y sigma(nmr)=N spin-spin(nmr)=all-N,DSO-N,PSO-N,FC-N,SD-N
   Nucleus:  21H 
       Hyperfine : Isotope=    1 I=   0.500 P= 533.551
       Quadrupole: Isotope=    2 I=   1.000 Q=   0.003
       Spin-Orbit: Zeff=   1.000
       Ncuelar Spin-Spin: Gn=   0.000
       rho(0)=N f(grad)=N a(iso)=Y a(dip)=Y a(orb)=Y sigma(nmr)=N spin-spin(nmr)=all-N,DSO-N,PSO-N,FC-N,SD-N
   Nucleus:  22H 
       Hyperfine : Isotope=    1 I=   0.500 P= 533.551
       Quadrupole: Isotope=    2 I=   1.000 Q=   0.003
       Spin-Orbit: Zeff=   1.000
       Ncuelar Spin-Spin: Gn=   0.000
       rho(0)=N f(grad)=N a(iso)=Y a(dip)=Y a(orb)=Y sigma(nmr)=N spin-spin(nmr)=all-N,DSO-N,PSO-N,FC-N,SD-N
   Nucleus:  24H 
       Hyperfine : Isotope=    1 I=   0.500 P= 533.551
       Quadrupole: Isotope=    2 I=   1.000 Q=   0.003
       Spin-Orbit: Zeff=   1.000
       Ncuelar Spin-Spin: Gn=   0.000
       rho(0)=N f(grad)=N a(iso)=Y a(dip)=Y a(orb)=Y sigma(nmr)=N spin-spin(nmr)=all-N,DSO-N,PSO-N,FC-N,SD-N
   Nucleus:  25H 
       Hyperfine : Isotope=    1 I=   0.500 P= 533.551
       Quadrupole: Isotope=    2 I=   1.000 Q=   0.003
       Spin-Orbit: Zeff=   1.000
       Ncuelar Spin-Spin: Gn=   0.000
       rho(0)=N f(grad)=N a(iso)=Y a(dip)=Y a(orb)=Y sigma(nmr)=N spin-spin(nmr)=all-N,DSO-N,PSO-N,FC-N,SD-N
   Nucleus:  27H 
       Hyperfine : Isotope=    1 I=   0.500 P= 533.551
       Quadrupole: Isotope=    2 I=   1.000 Q=   0.003
       Spin-Orbit: Zeff=   1.000
       Ncuelar Spin-Spin: Gn=   0.000
       rho(0)=N f(grad)=N a(iso)=Y a(dip)=Y a(orb)=Y sigma(nmr)=N spin-spin(nmr)=all-N,DSO-N,PSO-N,FC-N,SD-N
   Nucleus:  28H 
       Hyperfine : Isotope=    1 I=   0.500 P= 533.551
       Quadrupole: Isotope=    2 I=   1.000 Q=   0.003
       Spin-Orbit: Zeff=   1.000
       Ncuelar Spin-Spin: Gn=   0.000
       rho(0)=N f(grad)=N a(iso)=Y a(dip)=Y a(orb)=Y sigma(nmr)=N spin-spin(nmr)=all-N,DSO-N,PSO-N,FC-N,SD-N
   Nucleus:  30H 
       Hyperfine : Isotope=    1 I=   0.500 P= 533.551
       Quadrupole: Isotope=    2 I=   1.000 Q=   0.003
       Spin-Orbit: Zeff=   1.000
       Ncuelar Spin-Spin: Gn=   0.000
       rho(0)=N f(grad)=N a(iso)=Y a(dip)=Y a(orb)=Y sigma(nmr)=N spin-spin(nmr)=all-N,DSO-N,PSO-N,FC-N,SD-N
   Nucleus:  31H 
       Hyperfine : Isotope=    1 I=   0.500 P= 533.551
       Quadrupole: Isotope=    2 I=   1.000 Q=   0.003
       Spin-Orbit: Zeff=   1.000
       Ncuelar Spin-Spin: Gn=   0.000
       rho(0)=N f(grad)=N a(iso)=Y a(dip)=Y a(orb)=Y sigma(nmr)=N spin-spin(nmr)=all-N,DSO-N,PSO-N,FC-N,SD-N
   Nucleus:  33H 
       Hyperfine : Isotope=    1 I=   0.500 P= 533.551
       Quadrupole: Isotope=    2 I=   1.000 Q=   0.003
       Spin-Orbit: Zeff=   1.000
       Ncuelar Spin-Spin: Gn=   0.000
       rho(0)=N f(grad)=N a(iso)=Y a(dip)=Y a(orb)=Y sigma(nmr)=N spin-spin(nmr)=all-N,DSO-N,PSO-N,FC-N,SD-N
   Nucleus:  34H 
       Hyperfine : Isotope=    1 I=   0.500 P= 533.551
       Quadrupole: Isotope=    2 I=   1.000 Q=   0.003
       Spin-Orbit: Zeff=   1.000
       Ncuelar Spin-Spin: Gn=   0.000
       rho(0)=N f(grad)=N a(iso)=Y a(dip)=Y a(orb)=Y sigma(nmr)=N spin-spin(nmr)=all-N,DSO-N,PSO-N,FC-N,SD-N
   Nucleus:  35H 
       Hyperfine : Isotope=    1 I=   0.500 P= 533.551
       Quadrupole: Isotope=    2 I=   1.000 Q=   0.003
       Spin-Orbit: Zeff=   1.000
       Ncuelar Spin-Spin: Gn=   0.000
       rho(0)=N f(grad)=N a(iso)=Y a(dip)=Y a(orb)=Y sigma(nmr)=N spin-spin(nmr)=all-N,DSO-N,PSO-N,FC-N,SD-N
   Nucleus:  36H 
       Hyperfine : Isotope=    1 I=   0.500 P= 533.551
       Quadrupole: Isotope=    2 I=   1.000 Q=   0.003
       Spin-Orbit: Zeff=   1.000
       Ncuelar Spin-Spin: Gn=   0.000
       rho(0)=N f(grad)=N a(iso)=Y a(dip)=Y a(orb)=Y sigma(nmr)=N spin-spin(nmr)=all-N,DSO-N,PSO-N,FC-N,SD-N
Forming RHS of the CP-SCF equations         ... 
Calculating right hand sides for GIAO treatment        ... 
  Entering RightHandSide GIAO. ScalHFX=    0.2000 NeedHFX=1
     -> 1-electron GIAO integrals will be done analytically
     -> SCF done analytically but RIJK chosen for GIAO calculation.
     Making grid for GIAO integrations   ... 
General Integration Accuracy     IntAcc      ...  4.340
Radial Grid Type                 RadialGrid  ... Gauss-Chebyshev
Angular Grid (max. acc.)         AngularGrid ... Lebedev-110
Angular grid pruning method      GridPruning ... 3 (G Style)
Weight generation scheme         WeightScheme... Becke
Basis function cutoff            BFCut       ...    1.0000e-10
Integration weight cutoff        WCut        ...    1.0000e-14
Grids for H and He will be reduced by one unit

# of grid points (after initial pruning)     ...  43170 (   0.0 sec)
# of grid points (after weights+screening)   ...  38835 (   0.1 sec)
nearest neighbour list constructed           ...    0.0 sec
Grid point re-assignment to atoms done       ...    0.0 sec
Grid point division into batches done        ...    0.0 sec
Reduced shell lists constructed in    0.1 sec

Total number of grid points                  ...    38835
Total number of batches                      ...      624
Average number of points per batch           ...       62
Average number of grid points per atom       ...     1050
Average number of shells per batch           ...    90.17 (56.71%)
Average number of basis functions per batch  ...   179.48 (54.55%)
Average number of large shells per batch     ...    59.80 (66.32%)
Average number of large basis fcns per batch ...   124.00 (69.09%)
Maximum spatial batch extension              ...   3.47,  5.27, 18.22 au
Average spatial batch extension              ...   0.11,  0.13,  0.23 au

done
  One-electron GIAO integrals             ... done
  Calculating G(B)[P]                     ... (RI-JK: P(aux)-ok JK-RI-ok) (add-J+K:ok) => dG/dB done
  DFT XC-terms                            ... done
  Extracting occupied and virtual blocks  ... 
  Operator  0  NO=  59 NV= 270 
  Operator  1  NO=  58 NV= 271 
  Transforming and RHS contribution       ... done
  Adding eps_i * S(B)_ai terms            ... done
  Projecting overlap derivatives          ... done
  Building G[dS/dB_ij] (Direct)           ... done
  Transforming to MO basis                ... done
  Summing G[dS/dB_ij] into RHS contribs.  ... done

  GIAO profiling information: 
    Total GIAO time               ...      32.1 sec
       GIAO 1-electron integrals  ...       0.1 sec (  0.2%)
       GIAO G(dS/dB) terms        ...       6.2 sec ( 19.2%)
       GIAO RI-JK                 ...      24.2 sec ( 75.4%)
       GIAO XC-terms              ...       0.8 sec (  2.5%)
       Right hand side assembly   ...       0.0 sec (  0.1%)

  GIAO right hand side done


------------------------------------------------------------------------------
                           ORCA CP-SCF CALCULATION
------------------------------------------------------------------------------

Input orbitals are from        ... g-tensor_cc-pVDZ_invariant.gbw
Input Perturbation             ... g-tensor_cc-pVDZ_invariant.pin.tmp
Wavefunction output            ... g-tensor_cc-pVDZ_invariant.pout.tmp
Perturbation mode              ... Imaginary perturbation
Solver                         ... POPLE
Max. number of iterations      ... 64
Convergence tolerance          ... 1.000e-06
Integral handling              ... Direct
Number of perturbations        ... 3
Number of operators            ... 2
Orbital ranges used for CP-SCF:
 Operator 0:  Orbitals   0... 58  to  59...328
 Operator 1:  Orbitals   0... 57  to  58...328
DFT calculation                         ... on
Variables per vector in CP-SCF ... 31648
Number of vectors sought       ... 3
     CP-SCF ITERATION   0: 
     CP-SCF ITERATION   1:      0.001895133381
     CP-SCF ITERATION   2:      0.000010059483
     CP-SCF ITERATION   3:      0.000000885337

Forming final perturbed densities           ... done
Transforming perturbed density to AO basis  ... done

Magnetic field perturbation calculated in 53.897 sec
GIAO: Doing diamagnetic term integrals analytically ...done
GIAO: Doing 1el-GIAO-SOC integrals analytically ... done

-------------------
ELECTRONIC G-MATRIX
-------------------

 The g-matrix: 
              2.0027777    0.0000501    0.0000117
              0.0000479    2.0027703   -0.0000021
              0.0000115   -0.0000034    2.0021784

 gel          2.0023193    2.0023193    2.0023193
 gRMC        -0.0001417   -0.0001417   -0.0001417
 gDSO(tot)    0.0000290    0.0000823    0.0000850
 gPSO(tot)   -0.0000284    0.0004651    0.0005606
             ----------   ----------   ----------
 g(tot)       2.0021781    2.0027250    2.0028232 iso=  2.0025755
 Delta-g     -0.0001411    0.0004058    0.0005039 iso=  0.0002562
 Orientation: 
  X          -0.0198006   -0.6789179   -0.7339472
  Y           0.0062921    0.7339919   -0.6791290
  Z           0.9997842   -0.0180652   -0.0102616

Notes:  (1) The g-matrix conforms to the "BgS" spin Hamiltonian convention. 
        (2) The principal values are square roots of the eigenvalues of g*gT.
        (3) Orientations are eigenvectors of g*gT written as column vectors.
        (4) Individual contributions are projections of the full matrices onto the eigenvectors of g*gT.
        (5) Tensor is right-handed.


-----------------------------------------
ELECTRIC AND MAGNETIC HYPERFINE STRUCTURE
-----------------------------------------

 -----------------------------------------------------------
 Nucleus   7H : A:ISTP=    1 I=  0.5 P=533.5514 MHz/au**3
                Q:ISTP=    2 I=  1.0 Q=  0.0029 barn     
 -----------------------------------------------------------
 Solving for nuclear perturbation:
Forming RHS of the CP-SCF equations         ... 
Using LibInt in CPSCF-CP

Calculating nucleus orbit integrals         ... done

------------------------------------------------------------------------------
                           ORCA CP-SCF CALCULATION
------------------------------------------------------------------------------

Input orbitals are from        ... g-tensor_cc-pVDZ_invariant.gbw
Input Perturbation             ... g-tensor_cc-pVDZ_invariant.pin.tmp
Wavefunction output            ... g-tensor_cc-pVDZ_invariant.pout.tmp
Perturbation mode              ... Imaginary perturbation
Solver                         ... POPLE
Max. number of iterations      ... 64
Convergence tolerance          ... 1.000e-06
Integral handling              ... Direct
Number of perturbations        ... 3
Number of operators            ... 2
Orbital ranges used for CP-SCF:
 Operator 0:  Orbitals   0... 58  to  59...328
 Operator 1:  Orbitals   0... 57  to  58...328
DFT calculation                         ... on
Variables per vector in CP-SCF ... 31648
Number of vectors sought       ... 3
     CP-SCF ITERATION   0: 
     CP-SCF ITERATION   1:      0.000004379590
     CP-SCF ITERATION   2:      0.000000021030

Forming final perturbed densities           ...
ORCA finished by error termination in EPR/NMR
Calling Command: mpirun -np 16  /hits/sw/ccc/ORCA421/orca_4_2_1_linux_x86-64_openmpi314/orca_eprnmr_mpi g-tensor_cc-pVDZ_invariant.eprnmr.inp g-tensor_cc-pVDZ_invariant 
[file orca_tools/qcmsg.cpp, line 458]: 
  .... aborting the run

