
                                 *****************
                                 * O   R   C   A *
                                 *****************

           --- An Ab Initio, DFT and Semiempirical electronic structure package ---

                  #######################################################
                  #                        -***-                        #
                  #          Department of theory and spectroscopy      #
                  #               Directorship: Frank Neese             #
                  #        Max Planck Institute fuer Kohlenforschung    #
                  #                Kaiser Wilhelm Platz 1               #
                  #                 D-45470 Muelheim/Ruhr               #
                  #                      Germany                        #
                  #                                                     #
                  #                  All rights reserved                #
                  #                        -***-                        #
                  #######################################################


                         Program Version 4.2.1 -  RELEASE  -


 With contributions from (in alphabetic order):
   Daniel Aravena         : Magnetic Suceptibility
   Michael Atanasov       : Ab Initio Ligand Field Theory (pilot matlab implementation)
   Alexander A. Auer      : GIAO ZORA, VPT2
   Ute Becker             : Parallelization
   Giovanni Bistoni       : ED, misc. LED, open-shell LED, HFLD
   Martin Brehm           : Molecular dynamics
   Dmytro Bykov           : SCF Hessian
   Vijay G. Chilkuri      : MRCI spin determinant printing, contributions to CSF-ICE
   Dipayan Datta          : RHF DLPNO-CCSD density
   Achintya Kumar Dutta   : EOM-CC, STEOM-CC
   Dmitry Ganyushin       : Spin-Orbit,Spin-Spin,Magnetic field MRCI
   Miquel Garcia          : C-PCM Hessian, Gaussian charge scheme
   Yang Guo               : DLPNO-NEVPT2, CIM, IAO-localization
   Andreas Hansen         : Spin unrestricted coupled pair/coupled cluster methods
   Benjamin Helmich-Paris : CASSCF linear response (MC-RPA)
   Lee Huntington         : MR-EOM, pCC
   Robert Izsak           : Overlap fitted RIJCOSX, COSX-SCS-MP3, EOM
   Christian Kollmar      : KDIIS, OOCD, Brueckner-CCSD(T), CCSD density
   Simone Kossmann        : Meta GGA functionals, TD-DFT gradient, OOMP2, MP2 Hessian
   Martin Krupicka        : AUTO-CI
   Lucas Lang             : DCDCAS
   Dagmar Lenk            : GEPOL surface, SMD
   Dimitrios Liakos       : Extrapolation schemes; Compound Job, initial MDCI parallelization
   Dimitrios Manganas     : Further ROCIS development; embedding schemes
   Dimitrios Pantazis     : SARC Basis sets
   Taras Petrenko         : DFT Hessian,TD-DFT gradient, ASA, ECA, R-Raman, ABS, FL, XAS/XES, NRVS
   Peter Pinski           : DLPNO-MP2, DLPNO-MP2 Gradient
   Christoph Reimann      : Effective Core Potentials
   Marius Retegan         : Local ZFS, SOC
   Christoph Riplinger    : Optimizer, TS searches, QM/MM, DLPNO-CCSD(T), (RO)-DLPNO pert. Triples
   Tobias Risthaus        : Range-separated hybrids, TD-DFT gradient, RPA, STAB
   Michael Roemelt        : Original ROCIS implementation
   Masaaki Saitow         : Open-shell DLPNO-CCSD energy and density
   Barbara Sandhoefer     : DKH picture change effects
   Avijit Sen             : IP-ROCIS
   Kantharuban Sivalingam : CASSCF convergence, NEVPT2, FIC-MRCI
   Bernardo de Souza      : ESD, SOC TD-DFT
   Georgi Stoychev        : AutoAux, RI-MP2 NMR
   Willem Van den Heuvel  : Paramagnetic NMR
   Boris Wezisla          : Elementary symmetry handling
   Frank Wennmohs         : Technical directorship


 We gratefully acknowledge several colleagues who have allowed us to
 interface, adapt or use parts of their codes:
   Stefan Grimme, W. Hujo, H. Kruse,             : VdW corrections, initial TS optimization,
                  C. Bannwarth                     DFT functionals, gCP, sTDA/sTD-DF
   Ed Valeev, F. Pavosevic, A. Kumar             : LibInt (2-el integral package), F12 methods
   Garnet Chan, S. Sharma, J. Yang, R. Olivares  : DMRG
   Ulf Ekstrom                                   : XCFun DFT Library
   Mihaly Kallay                                 : mrcc  (arbitrary order and MRCC methods)
   Andreas Klamt, Michael Diedenhofen            : otool_cosmo (COSMO solvation model)
   Jiri Pittner, Ondrej Demel                    : Mk-CCSD
   Frank Weinhold                                : gennbo (NPA and NBO analysis)
   Christopher J. Cramer and Donald G. Truhlar   : smd solvation model
   Lars Goerigk                                  : TD-DFT with DH, B97 family of functionals
   V. Asgeirsson, H. Jonsson                     : NEB implementation
   FAccTs GmbH                                   : IRC, NEB, NEB-TS, Multilevel, MM, QM/MM, CI optimization
   S Lehtola, MJT Oliveira, MAL Marques          : LibXC Library


 Your calculation uses the libint2 library for the computation of 2-el integrals
 For citations please refer to: http://libint.valeyev.net

 Your ORCA version has been built with support for libXC version: 4.2.3
 For citations please refer to: https://tddft.org/programs/libxc/

 This ORCA versions uses:
   CBLAS   interface :  Fast vector & matrix operations
   LAPACKE interface :  Fast linear algebra routines
   SCALAPACK package :  Parallel linear algebra routines




***************************************
The coordinates will be read from file: Hshift.xyz
***************************************


----- Orbital basis set information -----
Your calculation utilizes the basis: cc-pVDZ 
       H, B-Ne : Obtained from the ccRepo (grant-hill.group.shef.ac.uk/ccrepo) Feb. 2017
                 T. H. Dunning, Jr., J. Chem. Phys. 90, 1007 (1989)
            He : Obtained from the ccRepo (grant-hill.group.shef.ac.uk/ccrepo) Feb. 2017
                 D. E. Woon, T. H. Dunning, Jr., J. Chem. Phys. 100, 2975 (1994)
  Li-Be, Na-Mg : Obtained from the ccRepo (grant-hill.group.shef.ac.uk/ccrepo) Feb. 2017
                 B. P. Prascher, D. E. Woon, K. A. Peterson, T. H. Dunning, Jr., A. K. Wilson, Theor. Chem. Acc. 128, 69 (2011)
         Al-Ar : Obtained from the ccRepo (grant-hill.group.shef.ac.uk/ccrepo) Feb. 2017
                 D. E. Woon, T. H. Dunning, Jr., J. Chem. Phys. 98, 1358 (1993)
            Ca : Obtained from the Peterson Research Group Website (tyr0.chem.wsu.edu/~kipeters) Feb. 2017
                 J. Koput, K. A. Peterson, J. Phys. Chem. 106, 9595 (2002)
         Sc-Zn : Obtained from the ccRepo (grant-hill.group.shef.ac.uk/ccrepo) Feb. 2017
                 N. B. Balabanov, K. A. Peterson, J. Chem. Phys. 123, 064107 (2005)
                 N. B. Balabanov, K. A. Peterson, J. Chem. Phys. 125, 074110 (2006)
         Ga-Kr : Obtained from the ccRepo (grant-hill.group.shef.ac.uk/ccrepo) Feb. 2017
                 A. K. Wilson, D. E. Woon, K. A. Peterson, T. H. Dunning, Jr., J. Chem. Phys. 110, 7667 (1999)

================================================================================
                                        WARNINGS
                       Please study these warnings very carefully!
================================================================================


WARNING: your system is open-shell and RHF/RKS was chosen
  ===> : WILL SWITCH to UHF/UKS


WARNING: Geometry Optimization
  ===> : Switching off AutoStart
         For restart on a previous wavefunction, please use MOREAD

INFO   : the flag for use of LIBINT has been found!

================================================================================
                                       INPUT FILE
================================================================================
NAME = opt.inp
|  1> ! B3LYP cc-pVDZ OPT
|  2> %pal nprocs 16 end
|  3> *XYZFile 0 2 Hshift.xyz
|  4> 
|  5>                          ****END OF INPUT****
================================================================================

                       *****************************
                       * Geometry Optimization Run *
                       *****************************

Geometry optimization settings:
Update method            Update   .... BFGS
Choice of coordinates    CoordSys .... Z-matrix Internals
Initial Hessian          InHess   .... Almoef's Model

Convergence Tolerances:
Energy Change            TolE     ....  5.0000e-06 Eh
Max. Gradient            TolMAXG  ....  3.0000e-04 Eh/bohr
RMS Gradient             TolRMSG  ....  1.0000e-04 Eh/bohr
Max. Displacement        TolMAXD  ....  4.0000e-03 bohr
RMS Displacement         TolRMSD  ....  2.0000e-03 bohr
Strict Convergence                ....  False
------------------------------------------------------------------------------
                        ORCA OPTIMIZATION COORDINATE SETUP
------------------------------------------------------------------------------

The optimization will be done in new redundant internal coordinates
Making redundant internal coordinates   ...  (new redundants) done
Evaluating the initial hessian          ...  (Almloef) done
Evaluating the coordinates              ...  done
Calculating the B-matrix                .... done
Calculating the G-matrix                .... done
Diagonalizing the G-matrix              .... done
Small eigenvalue found = 2.347e-03
Small eigenvalue found = 5.434e-03
Small eigenvalue found = 9.607e-03
Small eigenvalue found = 1.655e-02
Small eigenvalue found = 2.959e-02
The first mode is                       ....   84
The number of degrees of freedom        ....  105

    -----------------------------------------------------------------
                    Redundant Internal Coordinates


    -----------------------------------------------------------------
         Definition                    Initial Value    Approx d2E/dq
    -----------------------------------------------------------------
      1. B(C   2,C   1)                  1.4111         0.578224   
      2. B(C   3,C   2)                  1.3878         0.629955   
      3. B(C   4,C   0)                  1.4259         0.547693   
      4. B(C   4,C   3)                  1.4019         0.598152   
      5. B(C   5,C   4)                  1.4111         0.578125   
      6. B(C   6,C   5)                  1.3876         0.630222   
      7. B(C   6,C   1)                  1.4020         0.597867   
      8. B(H   7,C   3)                  1.0809         0.372351   
      9. B(H   8,C   6)                  1.0809         0.372365   
     10. B(C   9,C   2)                  1.5127         0.398023   
     11. B(H  10,C   9)                  1.0960         0.352269   
     12. B(C  11,C   9)                  1.5275         0.377009   
     13. B(H  12,C  11)                  1.0957         0.352646   
     14. B(H  13,C  11)                  1.0958         0.352550   
     15. B(C  14,C  11)                  1.5301         0.373432   
     16. B(H  15,C  14)                  1.0955         0.352935   
     17. B(H  16,C  14)                  1.0956         0.352755   
     18. B(C  17,C  14)                  1.5274         0.377135   
     19. B(H  18,C  17)                  1.0934         0.355623   
     20. B(H  19,C  17)                  1.0934         0.355570   
     21. B(C  20,C   5)                  1.5128         0.397870   
     22. B(H  21,C  20)                  1.0959         0.352417   
     23. B(H  22,C  20)                  1.0958         0.352455   
     24. B(C  23,C  20)                  1.5273         0.377284   
     25. B(H  24,C  23)                  1.0958         0.352524   
     26. B(H  25,C  23)                  1.0957         0.352615   
     27. B(C  26,C  23)                  1.5300         0.373552   
     28. B(H  27,C  26)                  1.0956         0.352759   
     29. B(H  28,C  26)                  1.0955         0.352927   
     30. B(C  29,C  26)                  1.5275         0.377029   
     31. B(H  30,C  29)                  1.0934         0.355592   
     32. B(H  31,C  29)                  1.0934         0.355603   
     33. B(C  32,C   0)                  1.2038         1.238027   
     34. B(H  33,C  32)                  1.0624         0.398518   
     35. B(H  34,C  17)                  1.0916         0.357963   
     36. B(H  35,C  29)                  1.0916         0.357977   
     37. B(H  36,C   1)                  1.0624         0.398517   
     38. L(C   4,C   0,C  32,C   3, 1) 179.4466         0.481365   
     39. L(C   4,C   0,C  32,C   3, 2) 179.7268         0.481365   
     40. A(C   2,C   1,C   6)          120.2893         0.425877   
     41. A(C   2,C   1,H  36)          118.7492         0.354804   
     42. A(C   6,C   1,H  36)          120.9616         0.356821   
     43. A(C   3,C   2,C   9)          122.7248         0.402258   
     44. A(C   1,C   2,C   9)          119.9748         0.396241   
     45. A(C   1,C   2,C   3)          117.3003         0.429887   
     46. A(C   2,C   3,C   4)          122.4149         0.432512   
     47. A(C   4,C   3,H   7)          117.6841         0.352764   
     48. A(C   2,C   3,H   7)          119.9011         0.355875   
     49. A(C   0,C   4,C   3)          118.8863         0.421802   
     50. A(C   3,C   4,C   5)          120.2795         0.425901   
     51. A(C   0,C   4,C   5)          120.8342         0.419247   
     52. A(C   4,C   5,C  20)          119.9659         0.396202   
     53. A(C   6,C   5,C  20)          122.7207         0.402260   
     54. A(C   4,C   5,C   6)          117.3134         0.429907   
     55. A(C   5,C   6,H   8)          119.8973         0.355903   
     56. A(C   1,C   6,H   8)          117.7000         0.352738   
     57. A(C   1,C   6,C   5)          122.4027         0.432508   
     58. A(C   2,C   9,H  10)          108.2119         0.326534   
     59. A(H  10,C   9,C  11)          109.0822         0.323636   
     60. A(C   2,C   9,C  11)          116.8036         0.367893   
     61. A(H  13,C  11,C  14)          108.9438         0.323173   
     62. A(H  12,C  11,C  14)          109.0293         0.323187   
     63. A(C   9,C  11,C  14)          112.5404         0.363896   
     64. A(H  12,C  11,H  13)          106.3186         0.288925   
     65. A(C   9,C  11,H  13)          109.9290         0.323678   
     66. A(C   9,C  11,H  12)          109.8805         0.323693   
     67. A(H  16,C  14,C  17)          109.4356         0.323727   
     68. A(H  15,C  14,C  17)          109.4449         0.323754   
     69. A(C  11,C  14,C  17)          113.2208         0.363917   
     70. A(H  15,C  14,H  16)          106.0313         0.288988   
     71. A(C  11,C  14,H  16)          109.2541         0.323204   
     72. A(C  11,C  14,H  15)          109.2016         0.323231   
     73. A(H  19,C  17,H  34)          107.6706         0.289991   
     74. A(H  18,C  17,H  34)          107.6746         0.289998   
     75. A(C  14,C  17,H  34)          111.3061         0.324507   
     76. A(C  14,C  17,H  18)          111.2630         0.324158   
     77. A(C  14,C  17,H  19)          111.2520         0.324150   
     78. A(H  18,C  17,H  19)          107.4850         0.289693   
     79. A(H  22,C  20,C  23)          109.1286         0.323703   
     80. A(H  21,C  20,C  23)          109.1467         0.323697   
     81. A(C   5,C  20,C  23)          116.8158         0.367915   
     82. A(H  21,C  20,H  22)          104.7028         0.288883   
     83. A(C   5,C  20,H  22)          108.1602         0.326542   
     84. A(C   5,C  20,H  21)          108.2070         0.326536   
     85. A(H  25,C  23,C  26)          109.0073         0.323199   
     86. A(H  24,C  23,C  26)          108.9616         0.323186   
     87. A(C  20,C  23,C  26)          112.5497         0.363962   
     88. A(H  24,C  23,H  25)          106.3172         0.288918   
     89. A(C  20,C  23,H  25)          109.8944         0.323727   
     90. A(C  20,C  23,H  24)          109.9108         0.323713   
     91. A(H  28,C  26,C  29)          109.4367         0.323738   
     92. A(H  27,C  26,C  29)          109.4295         0.323713   
     93. A(C  23,C  26,C  29)          113.2199         0.363920   
     94. A(H  27,C  26,H  28)          106.0224         0.288988   
     95. A(C  23,C  26,H  28)          109.2068         0.323246   
     96. A(C  23,C  26,H  27)          109.2724         0.323221   
     97. A(C  26,C  29,H  35)          111.2996         0.324494   
     98. A(H  30,C  29,H  31)          107.4879         0.289693   
     99. A(C  26,C  29,H  31)          111.2603         0.324140   
    100. A(C  26,C  29,H  30)          111.2574         0.324138   
    101. A(H  31,C  29,H  35)          107.6732         0.289997   
    102. A(H  30,C  29,H  35)          107.6733         0.289996   
    103. L(C   0,C  32,H  33, 2)       179.9290         0.404788   
    104. L(C   0,C  32,H  33, 1)       179.9000         0.404788   
    105. D(C   3,C   2,C   1,C   6)     -0.0321         0.022964   
    106. D(C   3,C   2,C   1,H  36)    179.9899         0.022964   
    107. D(C   9,C   2,C   1,H  36)     -0.1363         0.022964   
    108. D(C   9,C   2,C   1,C   6)    179.8417         0.022964   
    109. D(C   4,C   3,C   2,C   9)   -179.8492         0.027515   
    110. D(H   7,C   3,C   2,C   1)   -179.9596         0.027515   
    111. D(H   7,C   3,C   2,C   9)      0.1704         0.027515   
    112. D(C   4,C   3,C   2,C   1)      0.0208         0.027515   
    113. D(C   5,C   4,C   3,C   2)     -0.0119         0.024657   
    114. D(C   0,C   4,C   3,C   2)    179.9861         0.024657   
    115. D(C   0,C   4,C   3,H   7)     -0.0331         0.024657   
    116. D(C   5,C   4,C   3,H   7)    179.9689         0.024657   
    117. D(C  20,C   5,C   4,C   0)      0.0695         0.022956   
    118. D(C   6,C   5,C   4,C   0)   -179.9846         0.022956   
    119. D(C  20,C   5,C   4,C   3)   -179.9325         0.022956   
    120. D(C   6,C   5,C   4,C   3)      0.0135         0.022956   
    121. D(H   8,C   6,C   5,C  20)     -0.0479         0.027540   
    122. D(C   1,C   6,C   5,C  20)    179.9186         0.027540   
    123. D(H   8,C   6,C   1,H  36)     -0.0193         0.024632   
    124. D(C   5,C   6,C   1,H  36)   -179.9865         0.024632   
    125. D(C   1,C   6,C   5,C   4)     -0.0258         0.027540   
    126. D(H   8,C   6,C   5,C   4)   -179.9923         0.027540   
    127. D(C   5,C   6,C   1,C   2)      0.0360         0.024632   
    128. D(H   8,C   6,C   1,C   2)   -179.9967         0.024632   
    129. D(C  11,C   9,C   2,C   3)     -1.5594         0.010899   
    130. D(C  11,C   9,C   2,C   1)    178.5739         0.010899   
    131. D(H  10,C   9,C   2,C   3)    121.9324         0.010899   
    132. D(H  10,C   9,C   2,C   1)    -57.9343         0.010899   
    133. D(H  13,C  11,C   9,C   2)     58.4862         0.010617   
    134. D(H  12,C  11,C   9,H  10)    178.7674         0.010617   
    135. D(H  12,C  11,C   9,C   2)    -58.1884         0.010617   
    136. D(C  14,C  11,C   9,H  10)     57.0673         0.010617   
    137. D(C  14,C  11,C   9,C   2)   -179.8885         0.010617   
    138. D(H  13,C  11,C   9,H  10)    -64.5579         0.010617   
    139. D(C  17,C  14,C  11,C   9)   -179.8043         0.011136   
    140. D(C  17,C  14,C  11,H  12)     58.0133         0.011136   
    141. D(H  16,C  14,C  11,H  13)   -179.8554         0.011136   
    142. D(H  16,C  14,C  11,H  12)    -64.2214         0.011136   
    143. D(H  16,C  14,C  11,C   9)     57.9609         0.011136   
    144. D(H  15,C  14,C  11,H  13)     64.5878         0.011136   
    145. D(H  15,C  14,C  11,H  12)   -179.7782         0.011136   
    146. D(C  17,C  14,C  11,H  13)    -57.6207         0.011136   
    147. D(H  15,C  14,C  11,C   9)    -57.5958         0.011136   
    148. D(H  34,C  17,C  14,H  16)    -57.7452         0.011345   
    149. D(H  34,C  17,C  14,H  15)     58.0487         0.011345   
    150. D(H  34,C  17,C  14,C  11)   -179.8787         0.011345   
    151. D(H  19,C  17,C  14,H  16)     62.3387         0.011345   
    152. D(H  19,C  17,C  14,H  15)    178.1326         0.011345   
    153. D(H  19,C  17,C  14,C  11)    -59.7947         0.011345   
    154. D(H  18,C  17,C  14,H  16)   -177.8416         0.011345   
    155. D(H  18,C  17,C  14,H  15)    -62.0478         0.011345   
    156. D(H  18,C  17,C  14,C  11)     60.0249         0.011345   
    157. D(C  23,C  20,C   5,C   6)     -0.0631         0.011754   
    158. D(C  23,C  20,C   5,C   4)    179.8799         0.011754   
    159. D(H  22,C  20,C   5,C   6)   -123.5830         0.011754   
    160. D(H  22,C  20,C   5,C   4)     56.3599         0.011754   
    161. D(H  21,C  20,C   5,C   6)    123.5198         0.011754   
    162. D(H  21,C  20,C   5,C   4)    -56.5373         0.011754   
    163. D(H  25,C  23,C  20,H  21)    -64.6200         0.011353   
    164. D(H  25,C  23,C  20,C   5)     58.4800         0.011353   
    165. D(H  24,C  23,C  20,H  22)     64.8315         0.011353   
    166. D(H  24,C  23,C  20,H  21)    178.7095         0.011353   
    167. D(H  24,C  23,C  20,C   5)    -58.1905         0.011353   
    168. D(C  26,C  23,C  20,H  22)    -56.8099         0.011353   
    169. D(C  26,C  23,C  20,H  21)     57.0681         0.011353   
    170. D(C  26,C  23,C  20,C   5)   -179.8318         0.011353   
    171. D(H  25,C  23,C  20,H  22)   -178.4980         0.011353   
    172. D(C  29,C  26,C  23,H  25)    -57.7273         0.011142   
    173. D(C  29,C  26,C  23,C  20)   -179.9180         0.011142   
    174. D(H  28,C  26,C  23,H  25)   -179.9285         0.011142   
    175. D(H  28,C  26,C  23,H  24)    -64.2984         0.011142   
    176. D(H  28,C  26,C  23,C  20)     57.8808         0.011142   
    177. D(H  27,C  26,C  23,H  25)     64.5123         0.011142   
    178. D(C  29,C  26,C  23,H  24)     57.9028         0.011142   
    179. D(H  27,C  26,C  23,H  24)   -179.8576         0.011142   
    180. D(H  27,C  26,C  23,C  20)    -57.6784         0.011142   
    181. D(H  35,C  29,C  26,H  28)    -57.7990         0.011339   
    182. D(H  35,C  29,C  26,H  27)     57.9762         0.011339   
    183. D(H  35,C  29,C  26,C  23)   -179.8718         0.011339   
    184. D(H  31,C  29,C  26,H  28)     62.2893         0.011339   
    185. D(H  31,C  29,C  26,H  27)    178.0645         0.011339   
    186. D(H  31,C  29,C  26,C  23)    -59.7835         0.011339   
    187. D(H  30,C  29,C  26,H  28)   -177.8855         0.011339   
    188. D(H  30,C  29,C  26,H  27)    -62.1104         0.011339   
    189. D(H  30,C  29,C  26,C  23)     60.0416         0.011339   
    -----------------------------------------------------------------

Number of atoms                         .... 37
Number of degrees of freedom            .... 189

         *************************************************************
         *                GEOMETRY OPTIMIZATION CYCLE   1            *
         *************************************************************
---------------------------------
CARTESIAN COORDINATES (ANGSTROEM)
---------------------------------
  C     -2.818573    0.051745    0.000055
  C      1.393659    0.000000    0.000000
  C      0.714960    1.237147   -0.000000
  C     -0.672358    1.202059   -0.000217
  C     -1.393659   -0.000000   -0.000000
  C     -0.714822   -1.237125    0.000202
  C      0.672385   -1.202227    0.000465
  H     -1.234707    2.125148   -0.000887
  H      1.234543   -2.125420    0.000501
  C      1.500316    2.530052    0.003117
  H      2.148685    2.534853    0.886733
  C      0.693094    3.826397   -0.031015
  H      0.055703    3.845082   -0.922042
  H      0.018245    3.868977    0.831235
  C      1.582505    5.071449   -0.027653
  H      2.223927    5.053627    0.860219
  H      2.257870    5.035325   -0.889591
  C      0.790682    6.377272   -0.056776
  H      0.133172    6.461776    0.812750
  H      0.163563    6.440674   -0.950268
  C     -1.500315   -2.530072   -0.001108
  H     -2.169550   -2.525019    0.866666
  H     -2.169751   -2.522131   -0.868668
  C     -0.693122   -3.826648   -0.003657
  H     -0.035552   -3.855138   -0.879752
  H     -0.038107   -3.859801    0.874098
  C     -1.582598   -5.071540   -0.008963
  H     -2.244242   -5.046953    0.863949
  H     -2.238133   -5.042350   -0.886170
  C     -0.790535   -6.377632   -0.009557
  H     -0.152401   -6.454678    0.874998
  H     -0.143909   -6.448783   -0.888409
  C     -4.021148    0.107043   -0.002842
  H     -5.082515    0.153992   -0.004083
  H      1.454567    7.243811   -0.055741
  H     -1.454541   -7.244044   -0.015654
  H      2.456065    0.000000    0.000000

----------------------------
CARTESIAN COORDINATES (A.U.)
----------------------------
  NO LB      ZA    FRAG     MASS         X           Y           Z
   0 C     6.0000    0    12.011   -5.326330    0.097783    0.000103
   1 C     6.0000    0    12.011    2.633633    0.000000    0.000000
   2 C     6.0000    0    12.011    1.351079    2.337870   -0.000000
   3 C     6.0000    0    12.011   -1.270573    2.271563   -0.000410
   4 C     6.0000    0    12.011   -2.633633   -0.000000   -0.000000
   5 C     6.0000    0    12.011   -1.350819   -2.337828    0.000382
   6 C     6.0000    0    12.011    1.270623   -2.271879    0.000879
   7 H     1.0000    0     1.008   -2.333258    4.015948   -0.001676
   8 H     1.0000    0     1.008    2.332949   -4.016462    0.000946
   9 C     6.0000    0    12.011    2.835187    4.781104    0.005891
  10 H     1.0000    0     1.008    4.060427    4.790177    1.675683
  11 C     6.0000    0    12.011    1.309757    7.230842   -0.058609
  12 H     1.0000    0     1.008    0.105264    7.266152   -1.742406
  13 H     1.0000    0     1.008    0.034478    7.311307    1.570806
  14 C     6.0000    0    12.011    2.990501    9.583649   -0.052256
  15 H     1.0000    0     1.008    4.202614    9.549971    1.625578
  16 H     1.0000    0     1.008    4.266757    9.515386   -1.681083
  17 C     6.0000    0    12.011    1.494173   12.051298   -0.107291
  18 H     1.0000    0     1.008    0.251658   12.210988    1.535874
  19 H     1.0000    0     1.008    0.309090   12.171110   -1.795745
  20 C     6.0000    0    12.011   -2.835185   -4.781143   -0.002094
  21 H     1.0000    0     1.008   -4.099855   -4.771594    1.637761
  22 H     1.0000    0     1.008   -4.100236   -4.766137   -1.641545
  23 C     6.0000    0    12.011   -1.309810   -7.231316   -0.006911
  24 H     1.0000    0     1.008   -0.067184   -7.285155   -1.662491
  25 H     1.0000    0     1.008   -0.072012   -7.293966    1.651806
  26 C     6.0000    0    12.011   -2.990676   -9.583821   -0.016938
  27 H     1.0000    0     1.008   -4.241004   -9.537359    1.632627
  28 H     1.0000    0     1.008   -4.229459   -9.528661   -1.674618
  29 C     6.0000    0    12.011   -1.493895  -12.051977   -0.018059
  30 H     1.0000    0     1.008   -0.287997  -12.197575    1.653506
  31 H     1.0000    0     1.008   -0.271949  -12.186434   -1.678849
  32 C     6.0000    0    12.011   -7.598868    0.202282   -0.005370
  33 H     1.0000    0     1.008   -9.604562    0.291003   -0.007715
  34 H     1.0000    0     1.008    2.748734   13.688819   -0.105336
  35 H     1.0000    0     1.008   -2.748684  -13.689260   -0.029581
  36 H     1.0000    0     1.008    4.641290    0.000000    0.000000

--------------------------------
INTERNAL COORDINATES (ANGSTROEM)
--------------------------------
 C      0   0   0     0.000000000000     0.00000000     0.00000000
 C      1   0   0     4.212549303454     0.00000000     0.00000000
 C      2   1   0     1.411086633428    60.54702879     0.00000000
 C      3   2   1     1.387761920996   117.30034524     0.00000000
 C      4   3   2     1.401863375292   122.41485317     0.00000000
 C      5   4   3     1.411133481108   120.27947144     0.00000000
 C      6   5   4     1.387646348646   117.31337577     0.00000000
 H      4   3   2     1.080892855044   119.90109021   180.04044018
 H      7   6   5     1.080883273782   119.89727687   180.00769194
 C      3   2   1     1.512744356891   119.97477233   179.86285303
 H     10   3   2     1.095984883155   108.21194902   302.06568303
 C     10   3   2     1.527509332378   116.80360948   178.57389866
 H     12  10   3     1.095693645981   109.88046130   301.81157975
 H     12  10   3     1.095768266505   109.92897137    58.48624734
 C     12  10   3     1.530103928367   112.54043221   180.11146288
 H     15  12  10     1.095470909427   109.20155305   302.40417201
 H     15  12  10     1.095609709221   109.25405862    57.96093231
 C     15  12  10     1.527418096054   113.22077308   180.19569179
 H     18  15  12     1.093405655023   111.26298617    60.02490164
 H     18  15  12     1.093446450698   111.25201110   300.20526395
 C      6   5   4     1.512848780336   119.96591861   180.06749764
 H     21   6   5     1.095870924105   108.20701101   303.46272917
 H     21   6   5     1.095841281134   108.16016191    56.35991169
 C     21   6   5     1.527310222597   116.81581982   179.87986148
 H     24  21   6     1.095787989935   109.91080347   301.80953668
 H     24  21   6     1.095717639302   109.89438895    58.48003791
 C     24  21   6     1.530016852502   112.54969228   180.16815780
 H     27  24  21     1.095606289580   109.27241885   302.32164834
 H     27  24  21     1.095477300878   109.20676463    57.88084967
 C     27  24  21     1.527494702029   113.21991690   180.08204844
 H     30  27  24     1.093428987579   111.25739340    60.04162327
 H     30  27  24     1.093420895170   111.26026010   300.21647161
 C      1   2   3     1.203849298127   178.06603760     4.11004971
 H     33   1   5     1.062406061917   179.87740535   201.14468535
 H     18  15  12     1.091620136040   111.30614148   180.12133675
 H     30  27  24     1.091609964378   111.29959344   180.12816969
 H      2   1   3     1.062406300000   179.29619232     0.06090570

---------------------------
INTERNAL COORDINATES (A.U.)
---------------------------
 C      0   0   0     0.000000000000     0.00000000     0.00000000
 C      1   0   0     7.960564509169     0.00000000     0.00000000
 C      2   1   0     2.666567288416    60.54702879     0.00000000
 C      3   2   1     2.622489969766   117.30034524     0.00000000
 C      4   3   2     2.649137856476   122.41485317     0.00000000
 C      5   4   3     2.666655817701   120.27947144     0.00000000
 C      6   5   4     2.622271569676   117.31337577     0.00000000
 H      4   3   2     2.042591476145   119.90109021   180.04044018
 H      7   6   5     2.042573370184   119.89727687   180.00769194
 C      3   2   1     2.858672545160   119.97477233   179.86285303
 H     10   3   2     2.071111276080   108.21194902   302.06568303
 C     10   3   2     2.886574305204   116.80360948   178.57389866
 H     12  10   3     2.070560917582   109.88046130   301.81157975
 H     12  10   3     2.070701929936   109.92897137    58.48624734
 C     12  10   3     2.891477381051   112.54043221   180.11146288
 H     15  12  10     2.070140006495   109.20155305   302.40417201
 H     15  12  10     2.070402300094   109.25405862    57.96093231
 C     15  12  10     2.886401893538   113.22077308   180.19569179
 H     18  15  12     2.066237241275   111.26298617    60.02490164
 H     18  15  12     2.066314333927   111.25201110   300.20526395
 C      6   5   4     2.858869876871   119.96591861   180.06749764
 H     21   6   5     2.070895924685   108.20701101   303.46272917
 H     21   6   5     2.070839907588   108.16016191    56.35991169
 C     21   6   5     2.886198042247   116.81581982   179.87986148
 H     24  21   6     2.070739201817   109.91080347   301.80953668
 H     24  21   6     2.070606258388   109.89438895    58.48003791
 C     24  21   6     2.891312831512   112.54969228   180.16815780
 H     27  24  21     2.070395837908   109.27241885   302.32164834
 H     27  24  21     2.070152084587   109.20676463    57.88084967
 C     27  24  21     2.886546657851   113.21991690   180.08204844
 H     30  27  24     2.066281333415   111.25739340    60.04162327
 H     30  27  24     2.066266040979   111.26026010   300.21647161
 C      1   2   3     2.274945479974   178.06603760     4.11004971
 H     33   1   5     2.007656500042   179.87740535   201.14468535
 H     18  15  12     2.062863099390   111.30614148   180.12133675
 H     30  27  24     2.062843877734   111.29959344   180.12816969
 H      2   1   3     2.007656949953   179.29619232     0.06090570

---------------------
BASIS SET INFORMATION
---------------------
There are 2 groups of distinct atoms

 Group   1 Type C   : 17s4p1d contracted to 3s2p1d pattern {881/31/1}
 Group   2 Type H   : 4s1p contracted to 2s1p pattern {31/1}

Atom   0C    basis set group =>   1
Atom   1C    basis set group =>   1
Atom   2C    basis set group =>   1
Atom   3C    basis set group =>   1
Atom   4C    basis set group =>   1
Atom   5C    basis set group =>   1
Atom   6C    basis set group =>   1
Atom   7H    basis set group =>   2
Atom   8H    basis set group =>   2
Atom   9C    basis set group =>   1
Atom  10H    basis set group =>   2
Atom  11C    basis set group =>   1
Atom  12H    basis set group =>   2
Atom  13H    basis set group =>   2
Atom  14C    basis set group =>   1
Atom  15H    basis set group =>   2
Atom  16H    basis set group =>   2
Atom  17C    basis set group =>   1
Atom  18H    basis set group =>   2
Atom  19H    basis set group =>   2
Atom  20C    basis set group =>   1
Atom  21H    basis set group =>   2
Atom  22H    basis set group =>   2
Atom  23C    basis set group =>   1
Atom  24H    basis set group =>   2
Atom  25H    basis set group =>   2
Atom  26C    basis set group =>   1
Atom  27H    basis set group =>   2
Atom  28H    basis set group =>   2
Atom  29C    basis set group =>   1
Atom  30H    basis set group =>   2
Atom  31H    basis set group =>   2
Atom  32C    basis set group =>   1
Atom  33H    basis set group =>   2
Atom  34H    basis set group =>   2
Atom  35H    basis set group =>   2
Atom  36H    basis set group =>   2


           ************************************************************
           *        Program running with 16 parallel MPI-processes    *
           *              working on a common directory               *
           ************************************************************
------------------------------------------------------------------------------
                           ORCA GTO INTEGRAL CALCULATION
------------------------------------------------------------------------------

                         BASIS SET STATISTICS AND STARTUP INFO

 # of primitive gaussian shells          ...  457
 # of primitive gaussian functions       ...  691
 # of contracted shells                  ...  159
 # of contracted basis functions         ...  329
 Highest angular momentum                ...    2
 Maximum contraction depth               ...    8
 Integral package used                   ... LIBINT
 Integral threshhold            Thresh   ...  2.500e-11
 Primitive cut-off              TCut     ...  2.500e-12


------------------------------ INTEGRAL EVALUATION ----------------------------


 * One electron integrals 
 Pre-screening matrix                    ... done
 Shell pair data                         ... done (   0.006 sec)



           ************************************************************
           *        Program running with 16 parallel MPI-processes    *
           *              working on a common directory               *
           ************************************************************
-------------------------------------------------------------------------------
                                 ORCA SCF
-------------------------------------------------------------------------------

------------
SCF SETTINGS
------------
Hamiltonian:
 Density Functional     Method          .... DFT(GTOs)
 Exchange Functional    Exchange        .... B88
   X-Alpha parameter    XAlpha          ....  0.666667
   Becke's b parameter  XBeta           ....  0.004200
 Correlation Functional Correlation     .... LYP
 LDA part of GGA corr.  LDAOpt          .... VWN-5
 Gradients option       PostSCFGGA      .... off
 Hybrid DFT is turned on
   Fraction HF Exchange ScalHFX         ....  0.200000
   Scaling of DF-GGA-X  ScalDFX         ....  0.720000
   Scaling of DF-GGA-C  ScalDFC         ....  0.810000
   Scaling of DF-LDA-C  ScalLDAC        ....  1.000000
   Perturbative correction              ....  0.000000
   Density functional embedding theory  .... OFF
   NL short-range parameter             ....  4.800000


General Settings:
 Integral files         IntName         .... opt
 Hartree-Fock type      HFTyp           .... UHF
 Total Charge           Charge          ....    0
 Multiplicity           Mult            ....    2
 Number of Electrons    NEL             ....  117
 Basis Dimension        Dim             ....  329
 Nuclear Repulsion      ENuc            ....    973.2433000832 Eh

Convergence Acceleration:
 DIIS                   CNVDIIS         .... on
   Start iteration      DIISMaxIt       ....    12
   Startup error        DIISStart       ....  0.200000
   # of expansion vecs  DIISMaxEq       ....     5
   Bias factor          DIISBfac        ....   1.050
   Max. coefficient     DIISMaxC        ....  10.000
 Newton-Raphson         CNVNR           .... off
 SOSCF                  CNVSOSCF        .... off
 Level Shifting         CNVShift        .... on
   Level shift para.    LevelShift      ....    0.2500
   Turn off err/grad.   ShiftErr        ....    0.0010
 Zerner damping         CNVZerner       .... off
 Static damping         CNVDamp         .... on
   Fraction old density DampFac         ....    0.7000
   Max. Damping (<1)    DampMax         ....    0.9800
   Min. Damping (>=0)   DampMin         ....    0.0000
   Turn off err/grad.   DampErr         ....    0.1000
 Fernandez-Rico         CNVRico         .... off

SCF Procedure:
 Maximum # iterations   MaxIter         ....   125
 SCF integral mode      SCFMode         .... Direct
   Integral package                     .... LIBINT
 Reset frequency        DirectResetFreq ....    20
 Integral Threshold     Thresh          ....  2.500e-11 Eh
 Primitive CutOff       TCut            ....  2.500e-12 Eh

Convergence Tolerance:
 Convergence Check Mode ConvCheckMode   .... Total+1el-Energy
 Convergence forced     ConvForced      .... 0
 Energy Change          TolE            ....  1.000e-08 Eh
 1-El. energy change                    ....  1.000e-05 Eh
 DIIS Error             TolErr          ....  5.000e-07


Diagonalization of the overlap matrix:
Smallest eigenvalue                        ... 1.440e-04
Time for diagonalization                   ...    0.020 sec
Threshold for overlap eigenvalues          ... 1.000e-08
Number of eigenvalues below threshold      ... 0
Time for construction of square roots      ...    0.045 sec
Total time needed                          ...    0.066 sec

-------------------
DFT GRID GENERATION
-------------------

General Integration Accuracy     IntAcc      ...  4.340
Radial Grid Type                 RadialGrid  ... Gauss-Chebyshev
Angular Grid (max. acc.)         AngularGrid ... Lebedev-110
Angular grid pruning method      GridPruning ... 3 (G Style)
Weight generation scheme         WeightScheme... Becke
Basis function cutoff            BFCut       ...    1.0000e-11
Integration weight cutoff        WCut        ...    1.0000e-14
Grids for H and He will be reduced by one unit

# of grid points (after initial pruning)     ...  43170 (   0.0 sec)
# of grid points (after weights+screening)   ...  38797 (   0.1 sec)
nearest neighbour list constructed           ...    0.0 sec
Grid point re-assignment to atoms done       ...    0.0 sec
Grid point division into batches done        ...    0.0 sec
Reduced shell lists constructed in    0.1 sec

Total number of grid points                  ...    38797
Total number of batches                      ...      624
Average number of points per batch           ...       62
Average number of grid points per atom       ...     1049
Average number of shells per batch           ...    96.40 (60.63%)
Average number of basis functions per batch  ...   191.35 (58.16%)
Average number of large shells per batch     ...    64.05 (66.44%)
Average number of large basis fcns per batch ...   132.00 (68.98%)
Maximum spatial batch extension              ...   3.63,  4.71, 17.23 au
Average spatial batch extension              ...   0.11,  0.13,  0.21 au

Time for grid setup =    0.255 sec

------------------------------
INITIAL GUESS: MODEL POTENTIAL
------------------------------
Loading Hartree-Fock densities                     ... done
Calculating cut-offs                               ... done
Setting up the integral package                    ... done
Initializing the effective Hamiltonian             ... done
Starting the Coulomb interaction                   ... done (   0.1 sec)
Reading the grid                                   ... done
Mapping shells                                     ... done
Starting the XC term evaluation                    ... done (   0.1 sec)
  promolecular density results
     # of electrons  =    117.028115440
     EX              =    -88.450019231
     EC              =     -3.816364841
     EX+EC           =    -92.266384073
Transforming the Hamiltonian                       ... done (   0.0 sec)
Diagonalizing the Hamiltonian                      ... done (   0.0 sec)
Back transforming the eigenvectors                 ... done (   0.0 sec)
Now organizing SCF variables                       ... done
                      ------------------
                      INITIAL GUESS DONE (   0.7 sec)
                      ------------------
--------------
SCF ITERATIONS
--------------
ITER       Energy         Delta-E        Max-DP      RMS-DP      [F,P]     Damp
               ***  Starting incremental Fock matrix formation  ***
  0   -621.4083684636   0.000000000000 0.07077150  0.00095454  0.1772076 0.7000
  1   -621.5984120085  -0.190043544910 0.05158453  0.00070453  0.0936175 0.7000
                               ***Turning on DIIS***
  2   -621.6831135624  -0.084701553907 0.10016008  0.00132917  0.0361863 0.0000
  3   -621.8022832378  -0.119169675435 0.02081229  0.00038122  0.0505653 0.0000
  4   -621.8342344565  -0.031951218638 0.00907150  0.00013553  0.0126698 0.0000
  5   -621.8362129198  -0.001978463354 0.00171102  0.00004515  0.0029067 0.0000
  6   -621.8364666052  -0.000253685364 0.00172555  0.00002388  0.0013051 0.0000
  7   -621.8365397917  -0.000073186530 0.00147588  0.00002639  0.0009240 0.0000
  8   -621.8365883542  -0.000048562496 0.00036888  0.00000553  0.0011195 0.0000
  9   -621.8365944997  -0.000006145452 0.00046394  0.00000768  0.0002686 0.0000
 10   -621.8365986768  -0.000004177145 0.00020918  0.00000275  0.0001783 0.0000
 11   -621.8365994084  -0.000000731598 0.00010480  0.00000123  0.0000496 0.0000
 12   -621.8365996344  -0.000000225958 0.00007104  0.00000073  0.0000286 0.0000
 13   -621.8365997398  -0.000000105416 0.00006347  0.00000069  0.0000239 0.0000
 14   -621.8365998184  -0.000000078615 0.00003950  0.00000042  0.0000059 0.0000
 15   -621.8365998573  -0.000000038859 0.00004169  0.00000049  0.0000048 0.0000
 16   -621.8365998938  -0.000000036505 0.00003337  0.00000040  0.0000037 0.0000
 17   -621.8365999150  -0.000000021191 0.00005305  0.00000065  0.0000027 0.0000
 18   -621.8365999327  -0.000000017793 0.00001603  0.00000019  0.0000012 0.0000
                            ***DIIS convergence achieved***

               *****************************************************
               *                     SUCCESS                       *
               *           SCF CONVERGED AFTER  19 CYCLES          *
               *****************************************************

Setting up the final grid:

General Integration Accuracy     IntAcc      ...  4.670
Radial Grid Type                 RadialGrid  ... Gauss-Chebyshev
Angular Grid (max. acc.)         AngularGrid ... Lebedev-302
Angular grid pruning method      GridPruning ... 3 (G Style)
Weight generation scheme         WeightScheme... Becke
Basis function cutoff            BFCut       ...    1.0000e-11
Integration weight cutoff        WCut        ...    1.0000e-14
Grids for H and He will be reduced by one unit

# of grid points (after initial pruning)     ... 170666 (   0.0 sec)
# of grid points (after weights+screening)   ... 150922 (   0.2 sec)
nearest neighbour list constructed           ...    0.0 sec
Grid point re-assignment to atoms done       ...    0.1 sec
Grid point division into batches done        ...    0.6 sec
Reduced shell lists constructed in    0.8 sec

Total number of grid points                  ...   150922
Total number of batches                      ...     2380
Average number of points per batch           ...       63
Average number of grid points per atom       ...     4079
Average number of shells per batch           ...    91.39 (57.48%)
Average number of basis functions per batch  ...   180.83 (54.96%)
Average number of large shells per batch     ...    59.84 (65.48%)
Average number of large basis fcns per batch ...   123.27 (68.17%)
Maximum spatial batch extension              ...   3.45,  3.73, 15.03 au
Average spatial batch extension              ...   0.08,  0.09,  0.11 au

Final grid set up in    1.1 sec
Final integration                            ... done (   0.5 sec)
Change in XC energy                          ...     0.002639281
Integrated number of electrons               ...   117.000382438
Previous integrated no of electrons          ...   117.022556355

----------------
TOTAL SCF ENERGY
----------------

Total Energy       :         -621.83396065 Eh          -16920.96231 eV

Components:
Nuclear Repulsion  :          973.24330008 Eh           26483.29658 eV
Electronic Energy  :        -1595.07726074 Eh          -43404.25889 eV
One Electron Energy:        -2768.53247746 Eh          -75335.59870 eV
Two Electron Energy:         1173.45521673 Eh           31931.33981 eV

Virial components:
Potential Energy   :        -1239.62578990 Eh          -33731.93264 eV
Kinetic Energy     :          617.79182924 Eh           16810.97033 eV
Virial Ratio       :            2.00654287


DFT components:
N(Alpha)           :       59.000194563098 electrons
N(Beta)            :       58.000187875369 electrons
N(Total)           :      117.000382438467 electrons
E(X)               :      -71.697950350444 Eh       
E(C)               :       -4.510136660027 Eh       
E(XC)              :      -76.208087010471 Eh       
DFET-embed. en.    :        0.000000000000 Eh       

---------------
SCF CONVERGENCE
---------------

  Last Energy change         ...   -2.2654e-09  Tolerance :   1.0000e-08
  Last MAX-Density change    ...    1.5420e-05  Tolerance :   1.0000e-07
  Last RMS-Density change    ...    1.9005e-07  Tolerance :   5.0000e-09
  Last DIIS Error            ...    6.8975e-07  Tolerance :   5.0000e-07

             **** THE GBW FILE WAS UPDATED (opt.gbw) ****
             **** DENSITY FILE WAS UPDATED (opt.scfp) ****
             **** ENERGY FILE WAS UPDATED (opt.en.tmp) ****
----------------------
UHF SPIN CONTAMINATION
----------------------

Warning: in a DFT calculation there is little theoretical justification to 
         calculate <S**2> as in Hartree-Fock theory. We will do it anyways
         but you should keep in mind that the values have only limited relevance

Expectation value of <S**2>     :     0.762240
Ideal value S*(S+1) for S=0.5   :     0.750000
Deviation                       :     0.012240

             **** THE GBW FILE WAS UPDATED (opt.gbw) ****
             **** DENSITY FILE WAS UPDATED (opt.scfp) ****
----------------
ORBITAL ENERGIES
----------------
                 SPIN UP ORBITALS
  NO   OCC          E(Eh)            E(eV) 
   0   1.0000     -10.205998      -277.7193 
   1   1.0000     -10.200284      -277.5638 
   2   1.0000     -10.198331      -277.5107 
   3   1.0000     -10.193461      -277.3782 
   4   1.0000     -10.187987      -277.2292 
   5   1.0000     -10.187541      -277.2171 
   6   1.0000     -10.186233      -277.1815 
   7   1.0000     -10.184008      -277.1209 
   8   1.0000     -10.183296      -277.1016 
   9   1.0000     -10.181960      -277.0652 
  10   1.0000     -10.180695      -277.0308 
  11   1.0000     -10.179034      -276.9856 
  12   1.0000     -10.178757      -276.9781 
  13   1.0000     -10.177802      -276.9521 
  14   1.0000     -10.172453      -276.8065 
  15   1.0000     -10.171432      -276.7787 
  16   1.0000      -0.870362       -23.6837 
  17   1.0000      -0.813475       -22.1358 
  18   1.0000      -0.796529       -21.6746 
  19   1.0000      -0.781810       -21.2741 
  20   1.0000      -0.765729       -20.8365 
  21   1.0000      -0.730777       -19.8855 
  22   1.0000      -0.726001       -19.7555 
  23   1.0000      -0.698755       -19.0141 
  24   1.0000      -0.651616       -17.7314 
  25   1.0000      -0.627438       -17.0735 
  26   1.0000      -0.615873       -16.7588 
  27   1.0000      -0.590760       -16.0754 
  28   1.0000      -0.579064       -15.7571 
  29   1.0000      -0.561454       -15.2779 
  30   1.0000      -0.527426       -14.3520 
  31   1.0000      -0.496492       -13.5102 
  32   1.0000      -0.473562       -12.8863 
  33   1.0000      -0.473123       -12.8743 
  34   1.0000      -0.465539       -12.6680 
  35   1.0000      -0.464659       -12.6440 
  36   1.0000      -0.427973       -11.6457 
  37   1.0000      -0.423692       -11.5293 
  38   1.0000      -0.422723       -11.5029 
  39   1.0000      -0.420691       -11.4476 
  40   1.0000      -0.412166       -11.2156 
  41   1.0000      -0.402220       -10.9450 
  42   1.0000      -0.388517       -10.5721 
  43   1.0000      -0.377243       -10.2653 
  44   1.0000      -0.364526        -9.9193 
  45   1.0000      -0.363361        -9.8876 
  46   1.0000      -0.352219        -9.5844 
  47   1.0000      -0.347364        -9.4522 
  48   1.0000      -0.335885        -9.1399 
  49   1.0000      -0.330179        -8.9846 
  50   1.0000      -0.326578        -8.8867 
  51   1.0000      -0.325747        -8.8640 
  52   1.0000      -0.324595        -8.8327 
  53   1.0000      -0.318896        -8.6776 
  54   1.0000      -0.307238        -8.3604 
  55   1.0000      -0.275490        -7.4965 
  56   1.0000      -0.264730        -7.2037 
  57   1.0000      -0.235754        -6.4152 
  58   1.0000      -0.200426        -5.4539 
  59   0.0000      -0.033645        -0.9155 
  60   0.0000       0.007972         0.2169 
  61   0.0000       0.050196         1.3659 
  62   0.0000       0.062377         1.6974 
  63   0.0000       0.064337         1.7507 
  64   0.0000       0.079493         2.1631 
  65   0.0000       0.084563         2.3011 
  66   0.0000       0.087347         2.3768 
  67   0.0000       0.093386         2.5412 
  68   0.0000       0.095942         2.6107 
  69   0.0000       0.097704         2.6587 
  70   0.0000       0.099349         2.7034 
  71   0.0000       0.110335         3.0024 
  72   0.0000       0.114452         3.1144 
  73   0.0000       0.131776         3.5858 
  74   0.0000       0.137101         3.7307 
  75   0.0000       0.148845         4.0503 
  76   0.0000       0.149156         4.0587 
  77   0.0000       0.155563         4.2331 
  78   0.0000       0.163002         4.4355 
  79   0.0000       0.163580         4.4512 
  80   0.0000       0.170314         4.6345 
  81   0.0000       0.173716         4.7271 
  82   0.0000       0.175468         4.7747 
  83   0.0000       0.184322         5.0156 
  84   0.0000       0.195991         5.3332 
  85   0.0000       0.207115         5.6359 
  86   0.0000       0.215485         5.8637 
  87   0.0000       0.221493         6.0271 
  88   0.0000       0.228764         6.2250 
  89   0.0000       0.235768         6.4156 
  90   0.0000       0.241825         6.5804 
  91   0.0000       0.264108         7.1867 
  92   0.0000       0.282804         7.6955 
  93   0.0000       0.287358         7.8194 
  94   0.0000       0.321377         8.7451 
  95   0.0000       0.325468         8.8564 
  96   0.0000       0.351121         9.5545 
  97   0.0000       0.360146         9.8001 
  98   0.0000       0.378480        10.2990 
  99   0.0000       0.402684        10.9576 
 100   0.0000       0.412124        11.2145 
 101   0.0000       0.412671        11.2294 
 102   0.0000       0.416314        11.3285 
 103   0.0000       0.421867        11.4796 
 104   0.0000       0.436409        11.8753 
 105   0.0000       0.439912        11.9706 
 106   0.0000       0.443951        12.0805 
 107   0.0000       0.459892        12.5143 
 108   0.0000       0.463320        12.6076 
 109   0.0000       0.474434        12.9100 
 110   0.0000       0.485740        13.2177 
 111   0.0000       0.493399        13.4261 
 112   0.0000       0.497117        13.5272 
 113   0.0000       0.505965        13.7680 
 114   0.0000       0.510848        13.9009 
 115   0.0000       0.514512        14.0006 
 116   0.0000       0.519064        14.1244 
 117   0.0000       0.527521        14.3546 
 118   0.0000       0.540106        14.6970 
 119   0.0000       0.547879        14.9085 
 120   0.0000       0.557921        15.1818 
 121   0.0000       0.562113        15.2959 
 122   0.0000       0.564047        15.3485 
 123   0.0000       0.584303        15.8997 
 124   0.0000       0.601996        16.3811 
 125   0.0000       0.604772        16.4567 
 126   0.0000       0.614122        16.7111 
 127   0.0000       0.619488        16.8571 
 128   0.0000       0.622508        16.9393 
 129   0.0000       0.626992        17.0613 
 130   0.0000       0.635737        17.2993 
 131   0.0000       0.645340        17.5606 
 132   0.0000       0.646445        17.5907 
 133   0.0000       0.647642        17.6232 
 134   0.0000       0.652193        17.7471 
 135   0.0000       0.660438        17.9714 
 136   0.0000       0.661307        17.9951 
 137   0.0000       0.663866        18.0647 
 138   0.0000       0.664797        18.0900 
 139   0.0000       0.668568        18.1927 
 140   0.0000       0.670850        18.2547 
 141   0.0000       0.678347        18.4588 
 142   0.0000       0.682630        18.5753 
 143   0.0000       0.686956        18.6930 
 144   0.0000       0.690617        18.7927 
 145   0.0000       0.693614        18.8742 
 146   0.0000       0.696190        18.9443 
 147   0.0000       0.702800        19.1242 
 148   0.0000       0.709428        19.3045 
 149   0.0000       0.719178        19.5698 
 150   0.0000       0.721093        19.6220 
 151   0.0000       0.727080        19.7849 
 152   0.0000       0.735125        20.0038 
 153   0.0000       0.745925        20.2976 
 154   0.0000       0.748959        20.3802 
 155   0.0000       0.761928        20.7331 
 156   0.0000       0.768425        20.9099 
 157   0.0000       0.788308        21.4510 
 158   0.0000       0.810969        22.0676 
 159   0.0000       0.823443        22.4070 
 160   0.0000       0.833522        22.6813 
 161   0.0000       0.838259        22.8102 
 162   0.0000       0.842715        22.9315 
 163   0.0000       0.860332        23.4108 
 164   0.0000       0.879934        23.9442 
 165   0.0000       0.890449        24.2304 
 166   0.0000       0.912131        24.8204 
 167   0.0000       0.924605        25.1598 
 168   0.0000       0.927369        25.2350 
 169   0.0000       0.952738        25.9253 
 170   0.0000       0.985070        26.8051 
 171   0.0000       0.997251        27.1366 
 172   0.0000       1.006340        27.3839 
 173   0.0000       1.009486        27.4695 
 174   0.0000       1.016952        27.6727 
 175   0.0000       1.046715        28.4826 
 176   0.0000       1.048011        28.5178 
 177   0.0000       1.053038        28.6546 
 178   0.0000       1.067411        29.0457 
 179   0.0000       1.075640        29.2697 
 180   0.0000       1.085513        29.5383 
 181   0.0000       1.094105        29.7721 
 182   0.0000       1.139474        31.0067 
 183   0.0000       1.163209        31.6525 
 184   0.0000       1.178474        32.0679 
 185   0.0000       1.190884        32.4056 
 186   0.0000       1.207972        32.8706 
 187   0.0000       1.215710        33.0811 
 188   0.0000       1.216217        33.0949 
 189   0.0000       1.219862        33.1941 
 190   0.0000       1.224180        33.3116 
 191   0.0000       1.226850        33.3843 
 192   0.0000       1.236581        33.6491 
 193   0.0000       1.254830        34.1457 
 194   0.0000       1.277648        34.7666 
 195   0.0000       1.296863        35.2894 
 196   0.0000       1.307574        35.5809 
 197   0.0000       1.330535        36.2057 
 198   0.0000       1.335692        36.3460 
 199   0.0000       1.341380        36.5008 
 200   0.0000       1.343232        36.5512 
 201   0.0000       1.360836        37.0302 
 202   0.0000       1.382691        37.6249 
 203   0.0000       1.392961        37.9044 
 204   0.0000       1.415237        38.5106 
 205   0.0000       1.423324        38.7306 
 206   0.0000       1.432694        38.9856 
 207   0.0000       1.433621        39.0108 
 208   0.0000       1.440708        39.2037 
 209   0.0000       1.453737        39.5582 
 210   0.0000       1.467030        39.9199 
 211   0.0000       1.470699        40.0198 
 212   0.0000       1.487411        40.4745 
 213   0.0000       1.497750        40.7559 
 214   0.0000       1.506687        40.9990 
 215   0.0000       1.513468        41.1836 
 216   0.0000       1.530777        41.6546 
 217   0.0000       1.549860        42.1738 
 218   0.0000       1.565744        42.6061 
 219   0.0000       1.589430        43.2506 
 220   0.0000       1.601583        43.5813 
 221   0.0000       1.603223        43.6259 
 222   0.0000       1.615918        43.9714 
 223   0.0000       1.623644        44.1816 
 224   0.0000       1.630494        44.3680 
 225   0.0000       1.634738        44.4835 
 226   0.0000       1.638909        44.5970 
 227   0.0000       1.643334        44.7174 
 228   0.0000       1.651214        44.9318 
 229   0.0000       1.652526        44.9675 
 230   0.0000       1.653582        44.9962 
 231   0.0000       1.663606        45.2690 
 232   0.0000       1.671953        45.4961 
 233   0.0000       1.676558        45.6215 
 234   0.0000       1.683659        45.8147 
 235   0.0000       1.695654        46.1411 
 236   0.0000       1.697734        46.1977 
 237   0.0000       1.699994        46.2592 
 238   0.0000       1.702942        46.3394 
 239   0.0000       1.709944        46.5299 
 240   0.0000       1.713212        46.6189 
 241   0.0000       1.714604        46.6567 
 242   0.0000       1.719782        46.7976 
 243   0.0000       1.730113        47.0788 
 244   0.0000       1.739024        47.3213 
 245   0.0000       1.741803        47.3969 
 246   0.0000       1.744155        47.4609 
 247   0.0000       1.764137        48.0046 
 248   0.0000       1.770294        48.1722 
 249   0.0000       1.777868        48.3782 
 250   0.0000       1.782542        48.5054 
 251   0.0000       1.793700        48.8090 
 252   0.0000       1.798623        48.9430 
 253   0.0000       1.800802        49.0023 
 254   0.0000       1.803940        49.0877 
 255   0.0000       1.821339        49.5612 
 256   0.0000       1.829857        49.7929 
 257   0.0000       1.852988        50.4224 
 258   0.0000       1.864948        50.7478 
 259   0.0000       1.883386        51.2495 
 260   0.0000       1.893546        51.5260 
 261   0.0000       1.905158        51.8420 
 262   0.0000       1.918328        52.2004 
 263   0.0000       1.926166        52.4136 
 264   0.0000       1.937222        52.7145 
 265   0.0000       1.944355        52.9086 
 266   0.0000       1.947294        52.9886 
 267   0.0000       1.957094        53.2552 
 268   0.0000       1.968784        53.5733 
 269   0.0000       2.001728        54.4698 
 270   0.0000       2.010312        54.7034 
 271   0.0000       2.018784        54.9339 
 272   0.0000       2.023031        55.0495 
 273   0.0000       2.043437        55.6047 
 274   0.0000       2.050092        55.7858 
 275   0.0000       2.084580        56.7243 
 276   0.0000       2.096472        57.0479 
 277   0.0000       2.102854        57.2216 
 278   0.0000       2.108325        57.3705 
 279   0.0000       2.117250        57.6133 
 280   0.0000       2.137862        58.1742 
 281   0.0000       2.162882        58.8550 
 282   0.0000       2.177820        59.2615 
 283   0.0000       2.192682        59.6659 
 284   0.0000       2.210189        60.1423 
 285   0.0000       2.219169        60.3866 
 286   0.0000       2.228011        60.6273 
 287   0.0000       2.234390        60.8008 
 288   0.0000       2.240828        60.9760 
 289   0.0000       2.252190        61.2852 
 290   0.0000       2.262449        61.5644 
 291   0.0000       2.276762        61.9538 
 292   0.0000       2.304197        62.7004 
 293   0.0000       2.310191        62.8635 
 294   0.0000       2.317702        63.0679 
 295   0.0000       2.324984        63.2660 
 296   0.0000       2.333151        63.4883 
 297   0.0000       2.337553        63.6080 
 298   0.0000       2.365295        64.3629 
 299   0.0000       2.366026        64.3828 
 300   0.0000       2.421703        65.8979 
 301   0.0000       2.433091        66.2078 
 302   0.0000       2.435479        66.2727 
 303   0.0000       2.437111        66.3172 
 304   0.0000       2.438698        66.3604 
 305   0.0000       2.455592        66.8201 
 306   0.0000       2.466879        67.1272 
 307   0.0000       2.494010        67.8654 
 308   0.0000       2.509788        68.2948 
 309   0.0000       2.514069        68.4113 
 310   0.0000       2.536233        69.0144 
 311   0.0000       2.552203        69.4490 
 312   0.0000       2.577209        70.1294 
 313   0.0000       2.602728        70.8238 
 314   0.0000       2.614443        71.1426 
 315   0.0000       2.625818        71.4521 
 316   0.0000       2.673879        72.7599 
 317   0.0000       2.692994        73.2801 
 318   0.0000       2.715926        73.9041 
 319   0.0000       2.731527        74.3286 
 320   0.0000       2.734193        74.4012 
 321   0.0000       2.740138        74.5629 
 322   0.0000       2.762420        75.1693 
 323   0.0000       2.812839        76.5412 
 324   0.0000       2.838382        77.2363 
 325   0.0000       2.899812        78.9079 
 326   0.0000       2.962823        80.6225 
 327   0.0000       3.246776        88.3493 
 328   0.0000       3.450325        93.8881 

                 SPIN DOWN ORBITALS
  NO   OCC          E(Eh)            E(eV) 
   0   1.0000     -10.206693      -277.7382 
   1   1.0000     -10.196778      -277.4684 
   2   1.0000     -10.194772      -277.4139 
   3   1.0000     -10.187115      -277.2055 
   4   1.0000     -10.186274      -277.1826 
   5   1.0000     -10.186053      -277.1766 
   6   1.0000     -10.185880      -277.1719 
   7   1.0000     -10.184742      -277.1409 
   8   1.0000     -10.183382      -277.1039 
   9   1.0000     -10.182294      -277.0743 
  10   1.0000     -10.180964      -277.0381 
  11   1.0000     -10.179033      -276.9856 
  12   1.0000     -10.178758      -276.9781 
  13   1.0000     -10.177635      -276.9475 
  14   1.0000     -10.172454      -276.8066 
  15   1.0000     -10.171437      -276.7789 
  16   1.0000      -0.868372       -23.6296 
  17   1.0000      -0.809286       -22.0218 
  18   1.0000      -0.793946       -21.6044 
  19   1.0000      -0.781242       -21.2587 
  20   1.0000      -0.764476       -20.8025 
  21   1.0000      -0.728016       -19.8103 
  22   1.0000      -0.723094       -19.6764 
  23   1.0000      -0.695783       -18.9332 
  24   1.0000      -0.649467       -17.6729 
  25   1.0000      -0.625407       -17.0182 
  26   1.0000      -0.609199       -16.5771 
  27   1.0000      -0.590130       -16.0582 
  28   1.0000      -0.576854       -15.6970 
  29   1.0000      -0.558167       -15.1885 
  30   1.0000      -0.525664       -14.3040 
  31   1.0000      -0.494067       -13.4442 
  32   1.0000      -0.472762       -12.8645 
  33   1.0000      -0.472142       -12.8476 
  34   1.0000      -0.464503       -12.6398 
  35   1.0000      -0.460249       -12.5240 
  36   1.0000      -0.427208       -11.6249 
  37   1.0000      -0.422351       -11.4928 
  38   1.0000      -0.421274       -11.4634 
  39   1.0000      -0.418330       -11.3833 
  40   1.0000      -0.410814       -11.1788 
  41   1.0000      -0.395761       -10.7692 
  42   1.0000      -0.386670       -10.5218 
  43   1.0000      -0.375431       -10.2160 
  44   1.0000      -0.363718        -9.8973 
  45   1.0000      -0.360555        -9.8112 
  46   1.0000      -0.350548        -9.5389 
  47   1.0000      -0.345833        -9.4106 
  48   1.0000      -0.333477        -9.0744 
  49   1.0000      -0.328800        -8.9471 
  50   1.0000      -0.326007        -8.8711 
  51   1.0000      -0.324865        -8.8400 
  52   1.0000      -0.324126        -8.8199 
  53   1.0000      -0.316513        -8.6128 
  54   1.0000      -0.305217        -8.3054 
  55   1.0000      -0.274851        -7.4791 
  56   1.0000      -0.250877        -6.8267 
  57   1.0000      -0.228435        -6.2160 
  58   0.0000      -0.080090        -2.1794 
  59   0.0000      -0.028484        -0.7751 
  60   0.0000       0.019159         0.5213 
  61   0.0000       0.050496         1.3741 
  62   0.0000       0.062491         1.7005 
  63   0.0000       0.065630         1.7859 
  64   0.0000       0.082219         2.2373 
  65   0.0000       0.084860         2.3092 
  66   0.0000       0.087769         2.3883 
  67   0.0000       0.094407         2.5690 
  68   0.0000       0.096406         2.6233 
  69   0.0000       0.098261         2.6738 
  70   0.0000       0.099604         2.7104 
  71   0.0000       0.111201         3.0259 
  72   0.0000       0.114960         3.1282 
  73   0.0000       0.132489         3.6052 
  74   0.0000       0.137439         3.7399 
  75   0.0000       0.149244         4.0611 
  76   0.0000       0.149396         4.0653 
  77   0.0000       0.157132         4.2758 
  78   0.0000       0.163734         4.4554 
  79   0.0000       0.164215         4.4685 
  80   0.0000       0.171373         4.6633 
  81   0.0000       0.174262         4.7419 
  82   0.0000       0.176704         4.8083 
  83   0.0000       0.186449         5.0735 
  84   0.0000       0.197947         5.3864 
  85   0.0000       0.209026         5.6879 
  86   0.0000       0.217287         5.9127 
  87   0.0000       0.223519         6.0823 
  88   0.0000       0.232190         6.3182 
  89   0.0000       0.240292         6.5387 
  90   0.0000       0.243109         6.6153 
  91   0.0000       0.266654         7.2560 
  92   0.0000       0.286546         7.7973 
  93   0.0000       0.289556         7.8792 
  94   0.0000       0.323429         8.8010 
  95   0.0000       0.326900         8.8954 
  96   0.0000       0.352811         9.6005 
  97   0.0000       0.360718         9.8156 
  98   0.0000       0.379827        10.3356 
  99   0.0000       0.404674        11.0117 
 100   0.0000       0.412724        11.2308 
 101   0.0000       0.412900        11.2356 
 102   0.0000       0.416751        11.3404 
 103   0.0000       0.422051        11.4846 
 104   0.0000       0.438407        11.9297 
 105   0.0000       0.446883        12.1603 
 106   0.0000       0.455649        12.3988 
 107   0.0000       0.462877        12.5955 
 108   0.0000       0.465988        12.6802 
 109   0.0000       0.479416        13.0456 
 110   0.0000       0.488860        13.3025 
 111   0.0000       0.496480        13.5099 
 112   0.0000       0.499540        13.5932 
 113   0.0000       0.509917        13.8756 
 114   0.0000       0.513889        13.9836 
 115   0.0000       0.517441        14.0803 
 116   0.0000       0.521357        14.1868 
 117   0.0000       0.529760        14.4155 
 118   0.0000       0.543131        14.7793 
 119   0.0000       0.549627        14.9561 
 120   0.0000       0.561517        15.2797 
 121   0.0000       0.565352        15.3840 
 122   0.0000       0.574065        15.6211 
 123   0.0000       0.587192        15.9783 
 124   0.0000       0.603687        16.4272 
 125   0.0000       0.608412        16.5557 
 126   0.0000       0.615382        16.7454 
 127   0.0000       0.620338        16.8802 
 128   0.0000       0.623452        16.9650 
 129   0.0000       0.631196        17.1757 
 130   0.0000       0.638071        17.3628 
 131   0.0000       0.645945        17.5771 
 132   0.0000       0.646697        17.5975 
 133   0.0000       0.648356        17.6427 
 134   0.0000       0.656058        17.8522 
 135   0.0000       0.660849        17.9826 
 136   0.0000       0.662464        18.0266 
 137   0.0000       0.664421        18.0798 
 138   0.0000       0.665743        18.1158 
 139   0.0000       0.668997        18.2043 
 140   0.0000       0.671603        18.2753 
 141   0.0000       0.679596        18.4927 
 142   0.0000       0.683488        18.5986 
 143   0.0000       0.689748        18.7690 
 144   0.0000       0.692055        18.8318 
 145   0.0000       0.695396        18.9227 
 146   0.0000       0.699311        19.0292 
 147   0.0000       0.703691        19.1484 
 148   0.0000       0.710486        19.3333 
 149   0.0000       0.719809        19.5870 
 150   0.0000       0.723142        19.6777 
 151   0.0000       0.727729        19.8025 
 152   0.0000       0.736228        20.0338 
 153   0.0000       0.747366        20.3369 
 154   0.0000       0.750050        20.4099 
 155   0.0000       0.764691        20.8083 
 156   0.0000       0.771061        20.9816 
 157   0.0000       0.796121        21.6636 
 158   0.0000       0.811829        22.0910 
 159   0.0000       0.825768        22.4703 
 160   0.0000       0.835058        22.7231 
 161   0.0000       0.838987        22.8300 
 162   0.0000       0.844203        22.9719 
 163   0.0000       0.861651        23.4467 
 164   0.0000       0.881514        23.9872 
 165   0.0000       0.895044        24.3554 
 166   0.0000       0.912555        24.8319 
 167   0.0000       0.930069        25.3085 
 168   0.0000       0.935198        25.4480 
 169   0.0000       0.953918        25.9574 
 170   0.0000       0.986936        26.8559 
 171   0.0000       0.998615        27.1737 
 172   0.0000       1.007456        27.4143 
 173   0.0000       1.010779        27.5047 
 174   0.0000       1.020634        27.7729 
 175   0.0000       1.047514        28.5043 
 176   0.0000       1.049120        28.5480 
 177   0.0000       1.055342        28.7173 
 178   0.0000       1.068493        29.0752 
 179   0.0000       1.075912        29.2771 
 180   0.0000       1.087077        29.5809 
 181   0.0000       1.098608        29.8946 
 182   0.0000       1.142643        31.0929 
 183   0.0000       1.163304        31.6551 
 184   0.0000       1.181044        32.1378 
 185   0.0000       1.191745        32.4290 
 186   0.0000       1.208141        32.8752 
 187   0.0000       1.216263        33.0962 
 188   0.0000       1.216807        33.1110 
 189   0.0000       1.219984        33.1975 
 190   0.0000       1.225296        33.3420 
 191   0.0000       1.227663        33.4064 
 192   0.0000       1.237721        33.6801 
 193   0.0000       1.255751        34.1707 
 194   0.0000       1.287124        35.0244 
 195   0.0000       1.298454        35.3327 
 196   0.0000       1.309551        35.6347 
 197   0.0000       1.331887        36.2425 
 198   0.0000       1.337990        36.4086 
 199   0.0000       1.342243        36.5243 
 200   0.0000       1.344005        36.5722 
 201   0.0000       1.366826        37.1932 
 202   0.0000       1.383762        37.6541 
 203   0.0000       1.402070        38.1523 
 204   0.0000       1.415830        38.5267 
 205   0.0000       1.426896        38.8278 
 206   0.0000       1.432709        38.9860 
 207   0.0000       1.433708        39.0132 
 208   0.0000       1.443952        39.2919 
 209   0.0000       1.456591        39.6359 
 210   0.0000       1.468230        39.9526 
 211   0.0000       1.471732        40.0479 
 212   0.0000       1.491187        40.5773 
 213   0.0000       1.501220        40.8503 
 214   0.0000       1.513755        41.1914 
 215   0.0000       1.515418        41.2366 
 216   0.0000       1.531883        41.6846 
 217   0.0000       1.551458        42.2173 
 218   0.0000       1.568711        42.6868 
 219   0.0000       1.590649        43.2838 
 220   0.0000       1.603078        43.6220 
 221   0.0000       1.605465        43.6869 
 222   0.0000       1.616963        43.9998 
 223   0.0000       1.626869        44.2694 
 224   0.0000       1.631773        44.4028 
 225   0.0000       1.635535        44.5052 
 226   0.0000       1.639036        44.6004 
 227   0.0000       1.643799        44.7300 
 228   0.0000       1.652595        44.9694 
 229   0.0000       1.653618        44.9972 
 230   0.0000       1.654850        45.0308 
 231   0.0000       1.664238        45.2862 
 232   0.0000       1.673448        45.5368 
 233   0.0000       1.678651        45.6784 
 234   0.0000       1.685344        45.8605 
 235   0.0000       1.696314        46.1591 
 236   0.0000       1.698750        46.2253 
 237   0.0000       1.700879        46.2833 
 238   0.0000       1.705303        46.4037 
 239   0.0000       1.710230        46.5377 
 240   0.0000       1.715104        46.6703 
 241   0.0000       1.718201        46.7546 
 242   0.0000       1.721200        46.8362 
 243   0.0000       1.730747        47.0960 
 244   0.0000       1.740471        47.3606 
 245   0.0000       1.744888        47.4808 
 246   0.0000       1.745975        47.5104 
 247   0.0000       1.764747        48.0212 
 248   0.0000       1.770947        48.1899 
 249   0.0000       1.779571        48.4246 
 250   0.0000       1.783420        48.5293 
 251   0.0000       1.795415        48.8557 
 252   0.0000       1.800146        48.9845 
 253   0.0000       1.802156        49.0392 
 254   0.0000       1.805289        49.1244 
 255   0.0000       1.822978        49.6058 
 256   0.0000       1.832026        49.8520 
 257   0.0000       1.856425        50.5159 
 258   0.0000       1.866730        50.7963 
 259   0.0000       1.887992        51.3749 
 260   0.0000       1.897850        51.6431 
 261   0.0000       1.908008        51.9195 
 262   0.0000       1.920450        52.2581 
 263   0.0000       1.929229        52.4970 
 264   0.0000       1.938388        52.7462 
 265   0.0000       1.944757        52.9195 
 266   0.0000       1.949970        53.0614 
 267   0.0000       1.958718        53.2994 
 268   0.0000       1.974115        53.7184 
 269   0.0000       2.008786        54.6618 
 270   0.0000       2.015039        54.8320 
 271   0.0000       2.021936        55.0197 
 272   0.0000       2.026652        55.1480 
 273   0.0000       2.044260        55.6271 
 274   0.0000       2.051829        55.8331 
 275   0.0000       2.085703        56.7549 
 276   0.0000       2.097473        57.0751 
 277   0.0000       2.104630        57.2699 
 278   0.0000       2.111325        57.4521 
 279   0.0000       2.122232        57.7489 
 280   0.0000       2.141152        58.2637 
 281   0.0000       2.165189        58.9178 
 282   0.0000       2.179989        59.3205 
 283   0.0000       2.193967        59.7009 
 284   0.0000       2.212982        60.2183 
 285   0.0000       2.220555        60.4244 
 286   0.0000       2.229568        60.6696 
 287   0.0000       2.235465        60.8301 
 288   0.0000       2.241769        61.0016 
 289   0.0000       2.255521        61.3759 
 290   0.0000       2.265980        61.6604 
 291   0.0000       2.277820        61.9826 
 292   0.0000       2.304616        62.7118 
 293   0.0000       2.310762        62.8790 
 294   0.0000       2.317945        63.0745 
 295   0.0000       2.330291        63.4104 
 296   0.0000       2.335451        63.5509 
 297   0.0000       2.338123        63.6236 
 298   0.0000       2.366209        64.3878 
 299   0.0000       2.366902        64.4067 
 300   0.0000       2.423182        65.9381 
 301   0.0000       2.434063        66.2342 
 302   0.0000       2.436529        66.3013 
 303   0.0000       2.438018        66.3418 
 304   0.0000       2.438902        66.3659 
 305   0.0000       2.458214        66.8914 
 306   0.0000       2.468373        67.1679 
 307   0.0000       2.495123        67.8957 
 308   0.0000       2.512977        68.3816 
 309   0.0000       2.514894        68.4337 
 310   0.0000       2.537486        69.0485 
 311   0.0000       2.552523        69.4577 
 312   0.0000       2.578504        70.1647 
 313   0.0000       2.604152        70.8626 
 314   0.0000       2.615479        71.1708 
 315   0.0000       2.626686        71.4758 
 316   0.0000       2.676094        72.8202 
 317   0.0000       2.694611        73.3241 
 318   0.0000       2.718520        73.9747 
 319   0.0000       2.732091        74.3440 
 320   0.0000       2.737134        74.4812 
 321   0.0000       2.740547        74.5741 
 322   0.0000       2.763073        75.1870 
 323   0.0000       2.815345        76.6094 
 324   0.0000       2.838937        77.2514 
 325   0.0000       2.901043        78.9414 
 326   0.0000       2.963163        80.6318 
 327   0.0000       3.246538        88.3428 
 328   0.0000       3.451569        93.9220 

                    ********************************
                    * MULLIKEN POPULATION ANALYSIS *
                    ********************************

--------------------------------------------
MULLIKEN ATOMIC CHARGES AND SPIN POPULATIONS
--------------------------------------------
   0 C :    0.623700    0.013213
   1 C :    0.063065    0.111478
   2 C :   -0.005657   -0.110597
   3 C :    0.050426    0.116783
   4 C :   -0.069244   -0.049211
   5 C :   -0.076584    0.106021
   6 C :    0.033726   -0.056206
   7 H :   -0.058912   -0.004605
   8 H :   -0.046393    0.002016
   9 C :   -0.058912    0.888696
  10 H :    0.025422   -0.019246
  11 C :   -0.029167   -0.037862
  12 H :    0.021837    0.006562
  13 H :    0.027475    0.047817
  14 C :   -0.016760    0.004425
  15 H :    0.001377   -0.000701
  16 H :    0.009684    0.002621
  17 C :    0.009409    0.000675
  18 H :    0.013053    0.000148
  19 H :    0.014145    0.000071
  20 C :    0.051143   -0.008223
  21 H :    0.030169    0.004317
  22 H :    0.030601    0.004667
  23 C :   -0.033721    0.000368
  24 H :    0.012251    0.000068
  25 H :    0.011607    0.000091
  26 C :   -0.019874    0.000009
  27 H :    0.003246    0.000022
  28 H :    0.003240    0.000024
  29 C :    0.014432   -0.000036
  30 H :    0.013527    0.000010
  31 H :    0.013736    0.000009
  32 C :   -0.587568   -0.021474
  33 H :   -0.033416    0.000850
  34 H :    0.009620   -0.000310
  35 H :    0.009596   -0.000002
  36 H :   -0.060279   -0.002487
Sum of atomic charges         :   -0.0000000
Sum of atomic spin populations:    1.0000000

-----------------------------------------------------
MULLIKEN REDUCED ORBITAL CHARGES AND SPIN POPULATIONS
-----------------------------------------------------
CHARGE
  0 C s       :     3.112204  s :     3.112204
      pz      :     0.960833  p :     2.208275
      px      :     0.312756
      py      :     0.934685
      dz2     :     0.003551  d :     0.055821
      dxz     :     0.022188
      dyz     :     0.000168
      dx2y2   :     0.009243
      dxy     :     0.020671
  1 C s       :     3.145267  s :     3.145267
      pz      :     0.968100  p :     2.726257
[...]
      dz2     :     0.026059  d :     0.145905
      dxz     :     0.042198
      dyz     :     0.012896
      dx2y2   :     0.022544
      dxy     :     0.042207
 18 H s       :     0.898245  s :     0.898245
      pz      :     0.033957  p :     0.076102
      px      :     0.026082
      py      :     0.016063
 19 H s       :     0.898307  s :     0.898307
      pz      :     0.035167  p :     0.076107
      px      :     0.024932
      py      :     0.016009
 20 C s       :     2.791404  s :     2.791404
      pz      :     1.046070  p :     3.053705
      px      :     1.022248
      py      :     0.985387
      dz2     :     0.026826  d :     0.191756
      dxz     :     0.053779
      dyz     :     0.020867
      dx2y2   :     0.042530
      dxy     :     0.047755
 21 H s       :     0.882891  s :     0.882891
      pz      :     0.034236  p :     0.077576
      px      :     0.028000
      py      :     0.015339
 22 H s       :     0.882981  s :     0.882981
      pz      :     0.034743  p :     0.077635
      px      :     0.027565
      py      :     0.015327
 23 C s       :     2.799293  s :     2.799293
      pz      :     1.040225  p :     3.054115
      px      :     1.022962
      py      :     0.990928
      dz2     :     0.027579  d :     0.190780
      dxz     :     0.058191
      dyz     :     0.018476
      dx2y2   :     0.038450
      dxy     :     0.048083
 24 H s       :     0.899584  s :     0.899584
      pz      :     0.034093  p :     0.076782
      px      :     0.026853
      py      :     0.015836
 25 H s       :     0.899733  s :     0.899733
      pz      :     0.034720  p :     0.076791
      px      :     0.026210
      py      :     0.015862
 26 C s       :     2.799448  s :     2.799448
      pz      :     1.041660  p :     3.055690
      px      :     1.021396
      py      :     0.992635
      dz2     :     0.027831  d :     0.191946
      dxz     :     0.057237
      dyz     :     0.018585
      dx2y2   :     0.039588
      dxy     :     0.048705
 27 H s       :     0.900084  s :     0.900084
      pz      :     0.033547  p :     0.075748
      px      :     0.026643
      py      :     0.015558
 28 H s       :     0.900178  s :     0.900178
      pz      :     0.034194  p :     0.075745
      px      :     0.025995
      py      :     0.015556
 29 C s       :     2.806627  s :     2.806627
      pz      :     1.053417  p :     3.114803
      px      :     1.041773
      py      :     1.019614
      dz2     :     0.026052  d :     0.146155
      dxz     :     0.045839
      dyz     :     0.009325
      dx2y2   :     0.024487
      dxy     :     0.040452
 30 H s       :     0.899157  s :     0.899157
      pz      :     0.034837  p :     0.076024
      px      :     0.025559
      py      :     0.015628
 31 H s       :     0.899074  s :     0.899074
      pz      :     0.034172  p :     0.076024
      px      :     0.026240
      py      :     0.015613
 32 C s       :     2.907682  s :     2.907682
      pz      :     0.979723  p :     3.047242
      px      :     1.086161
      py      :     0.981358
      dz2     :     0.012602  d :     0.099996
      dxz     :     0.024945
      dyz     :     0.000017
      dx2y2   :     0.037786
      dxy     :     0.024646
 33 H s       :     0.883972  s :     0.883972
      pz      :     0.020071  p :     0.094287
      px      :     0.054615
      py      :     0.019601
 34 H s       :     0.895018  s :     0.895018
      pz      :     0.015554  p :     0.076471
      px      :     0.029014
      py      :     0.031903
 35 H s       :     0.896307  s :     0.896307
      pz      :     0.015538  p :     0.076387
      px      :     0.025514
      py      :     0.035335
 36 H s       :     0.894502  s :     0.894502
      pz      :     0.018149  p :     0.080393
      px      :     0.047695
      py      :     0.014549

SPIN
  0 C s       :     0.001277  s :     0.001277
      pz      :     0.013333  p :     0.018316
      px      :     0.000937
      py      :     0.004046
      dz2     :    -0.000080  d :    -0.006599
      dxz     :    -0.005800
      dyz     :     0.000049
      dx2y2   :    -0.000234
      dxy     :    -0.000534
  1 C s       :     0.005767  s :     0.005767
      pz      :     0.161278  p :     0.169715
      px      :     0.004050
      py      :     0.004387
      dz2     :    -0.000697  d :    -0.007655
      dxz     :    -0.000661
      dyz     :    -0.004664
      dx2y2   :    -0.000976
      dxy     :    -0.000657
  2 C s       :    -0.006534  s :    -0.006534
      pz      :    -0.085991  p :    -0.101504
      px      :    -0.006538
      py      :    -0.008975
      dz2     :     0.000521  d :     0.040390
      dxz     :     0.011016
      dyz     :     0.025864
      dx2y2   :     0.001380
      dxy     :     0.001610
  3 C s       :     0.005729  s :     0.005729
      pz      :     0.163632  p :     0.172207
      px      :     0.004553
      py      :     0.004022
      dz2     :    -0.000678  d :    -0.007570
      dxz     :    -0.003636
      dyz     :    -0.001610
      dx2y2   :    -0.000609
      dxy     :    -0.001037
  4 C s       :    -0.003569  s :    -0.003569
      pz      :    -0.060792  p :    -0.068164
      px      :    -0.002764
      py      :    -0.004607
      dz2     :     0.000330  d :     0.016913
      dxz     :     0.001593
      dyz     :     0.013429
      dx2y2   :     0.000618
      dxy     :     0.000943
  5 C s       :     0.006260  s :     0.006260
      pz      :     0.170561  p :     0.179724
      px      :     0.004672
      py      :     0.004491
      dz2     :    -0.000718  d :    -0.005950
      dxz     :    -0.002739
      dyz     :    -0.001358
      dx2y2   :    -0.000571
      dxy     :    -0.000564
  6 C s       :    -0.003724  s :    -0.003724
      pz      :    -0.068551  p :    -0.076230
      px      :    -0.004351
      py      :    -0.003329
      dz2     :     0.000343  d :     0.017267
      dxz     :     0.010518
      dyz     :     0.005043
      dx2y2   :     0.000720
      dxy     :     0.000642
  7 H s       :    -0.004958  s :    -0.004958
      pz      :     0.005016  p :     0.005821
      px      :     0.000304
      py      :     0.000501
  8 H s       :     0.002064  s :     0.002064
      pz      :    -0.002044  p :    -0.002515
      px      :    -0.000204
      py      :    -0.000267
  9 C s       :     0.018987  s :     0.018987
      pz      :     0.569864  p :     0.594559
      px      :     0.012659
      py      :     0.012037
      dz2     :    -0.002183  d :    -0.006386
      dxz     :    -0.000214
      dyz     :    -0.001681
      dx2y2   :    -0.001279
      dxy     :    -0.001028
 10 H s       :    -0.016448  s :    -0.016448
      pz      :     0.016911  p :     0.019456
      px      :     0.002337
      py      :     0.000208
 11 C s       :    -0.003621  s :    -0.003621
      pz      :    -0.004283  p :    -0.018872
      px      :    -0.005230
      py      :    -0.009358
      dz2     :     0.000457  d :     0.028400
      dxz     :     0.013024
      dyz     :     0.013344
      dx2y2   :     0.000703
      dxy     :     0.000871
 12 H s       :     0.026663  s :     0.026663
      pz      :    -0.000186  p :    -0.000601
      px      :    -0.000349
      py      :    -0.000065
 13 H s       :     0.026622  s :     0.026622
      pz      :    -0.000181  p :    -0.000600
      px      :    -0.000357
      py      :    -0.000062
 14 C s       :     0.000155  s :     0.000155
      pz      :     0.001148  p :     0.001679
      px      :     0.000343
      py      :     0.000188
      dz2     :    -0.000062  d :    -0.000536
      dxz     :     0.000162
      dyz     :    -0.000137
      dx2y2   :    -0.000427
      dxy     :    -0.000072
 15 H s       :     0.000172  s :     0.000172
      pz      :     0.000039  p :     0.000185
      px      :     0.000085
      py      :     0.000061
 16 H s       :     0.000165  s :     0.000165
      pz      :     0.000034  p :     0.000184
      px      :     0.000088
      py      :     0.000062
 17 C s       :    -0.000182  s :    -0.000182
      pz      :     0.000426  p :     0.000042
      px      :    -0.000061
      py      :    -0.000323
      dz2     :    -0.000004  d :     0.000125
      dxz     :     0.000014
      dyz     :     0.000126
      dx2y2   :     0.000009
      dxy     :    -0.000019
 18 H s       :     0.000227  s :     0.000227
      pz      :     0.000001  p :     0.000041
      px      :     0.000019
      py      :     0.000021
 19 H s       :     0.000227  s :     0.000227
      pz      :     0.000001  p :     0.000042
      px      :     0.000019
      py      :     0.000022
 20 C s       :    -0.001213  s :    -0.001213
      pz      :    -0.000349  p :    -0.005389
      px      :    -0.002185
      py      :    -0.002855
      dz2     :     0.000155  d :     0.008842
      dxz     :     0.004759
      dyz     :     0.003395
      dx2y2   :     0.000228
      dxy     :     0.000305
 21 H s       :     0.008436  s :     0.008436
      pz      :    -0.000078  p :    -0.000193
      px      :    -0.000147
      py      :     0.000031
 22 H s       :     0.008211  s :     0.008211
      pz      :    -0.000078  p :    -0.000194
      px      :    -0.000146
      py      :     0.000030
 23 C s       :     0.000036  s :     0.000036
      pz      :     0.000013  p :     0.000186
      px      :     0.000100
      py      :     0.000072
      dz2     :    -0.000015  d :    -0.000066
      dxz     :     0.000130
      dyz     :    -0.000024
      dx2y2   :    -0.000111
      dxy     :    -0.000045
 24 H s       :     0.000035  s :     0.000035
      pz      :     0.000007  p :     0.000018
      px      :     0.000010
      py      :     0.000001
 25 H s       :     0.000028  s :     0.000028
      pz      :     0.000007  p :     0.000017
      px      :     0.000008
      py      :     0.000003
 26 C s       :    -0.000049  s :    -0.000049
      pz      :     0.000180  p :     0.000066
      px      :    -0.000024
      py      :    -0.000090
      dz2     :    -0.000002  d :    -0.000002
      dxz     :    -0.000004
      dyz     :     0.000012
      dx2y2   :    -0.000001
      dxy     :    -0.000008
 27 H s       :     0.000073  s :     0.000073
      pz      :     0.000001  p :     0.000021
      px      :     0.000006
      py      :     0.000013
 28 H s       :     0.000074  s :     0.000074
      pz      :     0.000001  p :     0.000020
      px      :     0.000007
      py      :     0.000012
 29 C s       :    -0.000010  s :    -0.000010
      pz      :    -0.000000  p :    -0.000047
      px      :    -0.000014
      py      :    -0.000032
      dz2     :    -0.000000  d :     0.000017
      dxz     :     0.000012
      dyz     :     0.000007
      dx2y2   :    -0.000003
      dxy     :     0.000001
 30 H s       :     0.000017  s :     0.000017
      pz      :    -0.000000  p :    -0.000001
      px      :    -0.000000
      py      :    -0.000001
 31 H s       :     0.000018  s :     0.000018
      pz      :    -0.000000  p :    -0.000002
      px      :    -0.000000
      py      :    -0.000001
 32 C s       :    -0.001135  s :    -0.001135
      pz      :    -0.030695  p :    -0.036044
      px      :    -0.000489
      py      :    -0.004860
      dz2     :     0.000129  d :     0.001205
      dxz     :     0.000717
      dyz     :     0.000000
      dx2y2   :     0.000137
      dxy     :     0.000222
 33 H s       :     0.001149  s :     0.001149
      pz      :    -0.000902  p :    -0.001215
      px      :    -0.000180
      py      :    -0.000133
 34 H s       :    -0.000137  s :    -0.000137
      pz      :     0.000035  p :     0.000023
      px      :     0.000004
      py      :    -0.000016
 35 H s       :    -0.000004  s :    -0.000004
      pz      :    -0.000000  p :    -0.000003
      px      :    -0.000001
      py      :    -0.000002
 36 H s       :    -0.005150  s :    -0.005150
      pz      :     0.004418  p :     0.005201
      px      :     0.000677
      py      :     0.000106


                      *****************************
                      * MAYER POPULATION ANALYSIS *
                      *****************************

  NA   - Mulliken gross atomic population
  ZA   - Total nuclear charge
  QA   - Mulliken gross atomic charge
  VA   - Mayer's total valence
  BVA  - Mayer's bonded valence
  FA   - Mayer's free valence

  ATOM       NA         ZA         QA         VA         BVA        FA
  0 C      5.4025     6.0000     0.5975     2.9862     2.9858     0.0004
  1 C      5.9806     6.0000     0.0194     3.9092     3.8744     0.0348
  2 C      5.9167     6.0000     0.0833     4.0965     4.0824     0.0141
  3 C      5.9982     6.0000     0.0018     3.8750     3.8394     0.0355
  4 C      6.0475     6.0000    -0.0475     3.8424     3.8360     0.0064
  5 C      6.0880     6.0000    -0.0880     4.1660     4.1259     0.0401
  6 C      5.9666     6.0000     0.0334     3.9805     3.9729     0.0077
  7 H      1.0523     1.0000    -0.0523     1.0011     1.0009     0.0001
  8 H      1.0422     1.0000    -0.0422     0.9846     0.9846     0.0000
  9 C      6.0766     6.0000    -0.0766     3.9320     3.5230     0.4091
 10 H      1.0355     1.0000    -0.0355     0.9915     0.9901     0.0014
 11 C      5.9708     6.0000     0.0292     4.0139     4.0123     0.0016
 12 H      0.9726     1.0000     0.0274     0.9637     0.9625     0.0012
 13 H      0.9719     1.0000     0.0281     0.9635     0.9623     0.0012
 14 C      6.0426     6.0000    -0.0426     4.1308     4.1308     0.0000
 15 H      0.9888     1.0000     0.0112     0.9641     0.9641     0.0000
 16 H      0.9880     1.0000     0.0120     0.9640     0.9640     0.0000
 17 C      5.9969     6.0000     0.0031     4.0162     4.0162     0.0000
 18 H      0.9823     1.0000     0.0177     0.9777     0.9777     0.0000
 19 H      0.9827     1.0000     0.0173     0.9778     0.9778     0.0000
 20 C      5.9593     6.0000     0.0407     4.0244     4.0241     0.0002
 21 H      0.9675     1.0000     0.0325     0.9697     0.9696     0.0001
 22 H      0.9680     1.0000     0.0320     0.9703     0.9702     0.0001
 23 C      6.0377     6.0000    -0.0377     4.1110     4.1110     0.0000
 24 H      0.9855     1.0000     0.0145     0.9637     0.9637     0.0000
 25 H      0.9857     1.0000     0.0143     0.9635     0.9635     0.0000
 26 C      6.0243     6.0000    -0.0243     4.1149     4.1149     0.0000
 27 H      0.9936     1.0000     0.0064     0.9680     0.9680     0.0000
 28 H      0.9941     1.0000     0.0059     0.9681     0.9681     0.0000
 29 C      5.9966     6.0000     0.0034     4.0162     4.0162     0.0000
 30 H      0.9840     1.0000     0.0160     0.9776     0.9776     0.0000
 31 H      0.9836     1.0000     0.0164     0.9776     0.9776     0.0000
 32 C      6.5731     6.0000    -0.5731     3.4424     3.4411     0.0013
 33 H      1.0252     1.0000    -0.0252     1.0297     1.0297     0.0000
 34 H      0.9852     1.0000     0.0148     0.9741     0.9741     0.0000
 35 H      0.9882     1.0000     0.0118     0.9744     0.9744     0.0000
 36 H      1.0453     1.0000    -0.0453     0.9763     0.9762     0.0001

  Mayer bond orders larger than 0.100000
B(  0-C ,  4-C ) :   0.9078 B(  0-C , 32-C ) :   2.1940 B(  1-C ,  2-C ) :   1.2958 
B(  1-C ,  6-C ) :   1.4681 B(  1-C , 36-H ) :   0.9327 B(  2-C ,  3-C ) :   1.3058 
B(  2-C ,  9-C ) :   1.3064 B(  3-C ,  4-C ) :   1.4399 B(  3-C ,  7-H ) :   0.9283 
B(  4-C ,  5-C ) :   1.3660 B(  5-C ,  6-C ) :   1.4118 B(  5-C , 20-C ) :   1.0930 
B(  6-C ,  8-H ) :   0.9191 B(  9-C , 10-H ) :   0.9308 B(  9-C , 11-C ) :   1.0804 
B( 11-C , 12-H ) :   0.9140 B( 11-C , 13-H ) :   0.9141 B( 11-C , 14-C ) :   1.0710 
B( 14-C , 15-H ) :   0.9445 B( 14-C , 16-H ) :   0.9446 B( 14-C , 17-C ) :   1.1057 
B( 17-C , 18-H ) :   0.9657 B( 17-C , 19-H ) :   0.9657 B( 17-C , 34-H ) :   0.9616 
B( 20-C , 21-H ) :   0.8985 B( 20-C , 22-H ) :   0.8985 B( 20-C , 23-C ) :   1.0992 
B( 23-C , 24-H ) :   0.9304 B( 23-C , 25-H ) :   0.9299 B( 23-C , 26-C ) :   1.0751 
B( 26-C , 27-H ) :   0.9418 B( 26-C , 28-H ) :   0.9417 B( 26-C , 29-C ) :   1.1036 
B( 29-C , 30-H ) :   0.9666 B( 29-C , 31-H ) :   0.9666 B( 29-C , 35-H ) :   0.9628 
B( 32-C , 33-H ) :   1.1027 

-------
TIMINGS
-------

Total SCF time: 0 days 0 hours 0 min 30 sec 

Total time                  ....      30.945 sec
Sum of individual times     ....      29.882 sec  ( 96.6%)

Fock matrix formation       ....      26.900 sec  ( 86.9%)
  XC integration            ....       2.004 sec  (  7.5% of F)
    Basis function eval.    ....       0.364 sec  ( 18.1% of XC)
    Density eval.           ....       0.295 sec  ( 14.7% of XC)
    XC-Functional eval.     ....       0.066 sec  (  3.3% of XC)
    XC-Potential eval.      ....       0.334 sec  ( 16.7% of XC)
Diagonalization             ....       0.794 sec  (  2.6%)
Density matrix formation    ....       0.062 sec  (  0.2%)
Population analysis         ....       0.165 sec  (  0.5%)
Initial guess               ....       0.089 sec  (  0.3%)
Orbital Transformation      ....       0.000 sec  (  0.0%)
Orbital Orthonormalization  ....       0.063 sec  (  0.2%)
DIIS solution               ....       0.513 sec  (  1.7%)
Grid generation             ....       1.359 sec  (  4.4%)

-------------------------   --------------------
FINAL SINGLE POINT ENERGY      -621.859631342568
-------------------------   --------------------

                                *** OPTIMIZATION RUN DONE ***

                            ***************************************
                            *     ORCA property calculations      *
                            ***************************************

                                    ---------------------
                                    Active property flags
                                    ---------------------
   (+) Dipole Moment


------------------------------------------------------------------------------
                       ORCA ELECTRIC PROPERTIES CALCULATION
------------------------------------------------------------------------------

Dipole Moment Calculation                       ... on
Quadrupole Moment Calculation                   ... off
Polarizability Calculation                      ... off
GBWName                                         ... opt.gbw
Electron density file                           ... opt.scfp
The origin for moment calculation is the CENTER OF MASS  = (-0.844138, -0.005213  0.017001)

-------------
DIPOLE MOMENT
-------------
                                X             Y             Z
Electronic contribution:     -4.84731       2.14987      -0.03813
Nuclear contribution   :      4.98876      -2.15176       0.04000
                        -----------------------------------------
Total Dipole Moment    :      0.14146      -0.00189       0.00187
                        -----------------------------------------
Magnitude (a.u.)       :      0.14148
Magnitude (Debye)      :      0.35962



--------------------
Rotational spectrum 
--------------------
 
Rotational constants in cm-1:     0.039542     0.006002     0.005247 
Rotational constants in MHz :  1185.439831   179.939804   157.297060 

 Dipole components along the rotational axes: 
x,y,z [a.u.] :    -0.032326     0.137738    -0.000590 
x,y,z [Debye]:    -0.082166     0.350102    -0.001499 

 

Timings for individual modules:

Sum of individual times         ...     1250.593 sec (=  20.843 min)
GTO integral calculation        ...       33.708 sec (=   0.562 min)   2.7 %
SCF iterations                  ...      938.491 sec (=  15.642 min)  75.0 %
SCF Gradient evaluation         ...      271.874 sec (=   4.531 min)  21.7 %
Geometry relaxation             ...        6.521 sec (=   0.109 min)   0.5 %
                             ****ORCA TERMINATED NORMALLY****
TOTAL RUN TIME: 0 days 0 hours 20 minutes 58 seconds 836 msec
