
                                 *****************
                                 * O   R   C   A *
                                 *****************

                                            #,                                       
                                            ###                                      
                                            ####                                     
                                            #####                                    
                                            ######                                   
                                           ########,                                 
                                     ,,################,,,,,                         
                               ,,#################################,,                 
                          ,,##########################################,,             
                       ,#########################################, ''#####,          
                    ,#############################################,,   '####,        
                  ,##################################################,,,,####,       
                ,###########''''           ''''###############################       
              ,#####''   ,,,,##########,,,,          '''####'''          '####       
            ,##' ,,,,###########################,,,                        '##       
           ' ,,###''''                  '''############,,,                           
         ,,##''                                '''############,,,,        ,,,,,,###''
      ,#''                                            '''#######################'''  
     '                                                          ''''####''''         
             ,#######,   #######,   ,#######,      ##                                
            ,#'     '#,  ##    ##  ,#'     '#,    #''#        ######   ,####,        
            ##       ##  ##   ,#'  ##            #'  '#       #        #'  '#        
            ##       ##  #######   ##           ,######,      #####,   #    #        
            '#,     ,#'  ##    ##  '#,     ,#' ,#      #,         ##   #,  ,#        
             '#######'   ##     ##  '#######'  #'      '#     #####' # '####'        



                  #######################################################
                  #                        -***-                        #
                  #          Department of theory and spectroscopy      #
                  #    Directorship and core code : Frank Neese         #
                  #        Max Planck Institute fuer Kohlenforschung    #
                  #                Kaiser Wilhelm Platz 1               #
                  #                 D-45470 Muelheim/Ruhr               #
                  #                      Germany                        #
                  #                                                     #
                  #                  All rights reserved                #
                  #                        -***-                        #
                  #######################################################


                         Program Version 5.0.4 -  RELEASE  -


 With contributions from (in alphabetic order):
   Daniel Aravena         : Magnetic Suceptibility
   Michael Atanasov       : Ab Initio Ligand Field Theory (pilot matlab implementation)
   Alexander A. Auer      : GIAO ZORA, VPT2 properties, NMR spectrum
   Ute Becker             : Parallelization
   Giovanni Bistoni       : ED, misc. LED, open-shell LED, HFLD
   Martin Brehm           : Molecular dynamics
   Dmytro Bykov           : SCF Hessian
   Vijay G. Chilkuri      : MRCI spin determinant printing, contributions to CSF-ICE
   Dipayan Datta          : RHF DLPNO-CCSD density
   Achintya Kumar Dutta   : EOM-CC, STEOM-CC
   Dmitry Ganyushin       : Spin-Orbit,Spin-Spin,Magnetic field MRCI
   Miquel Garcia          : C-PCM and meta-GGA Hessian, CC/C-PCM, Gaussian charge scheme
   Yang Guo               : DLPNO-NEVPT2, F12-NEVPT2, CIM, IAO-localization
   Andreas Hansen         : Spin unrestricted coupled pair/coupled cluster methods
   Benjamin Helmich-Paris : MC-RPA, TRAH-SCF, COSX integrals
   Lee Huntington         : MR-EOM, pCC
   Robert Izsak           : Overlap fitted RIJCOSX, COSX-SCS-MP3, EOM
   Marcus Kettner         : VPT2
   Christian Kollmar      : KDIIS, OOCD, Brueckner-CCSD(T), CCSD density, CASPT2, CASPT2-K
   Simone Kossmann        : Meta GGA functionals, TD-DFT gradient, OOMP2, MP2 Hessian
   Martin Krupicka        : Initial AUTO-CI
   Lucas Lang             : DCDCAS
   Marvin Lechner         : AUTO-CI (C++ implementation), FIC-MRCC
   Dagmar Lenk            : GEPOL surface, SMD
   Dimitrios Liakos       : Extrapolation schemes; Compound Job, initial MDCI parallelization
   Dimitrios Manganas     : Further ROCIS development; embedding schemes
   Dimitrios Pantazis     : SARC Basis sets
   Anastasios Papadopoulos: AUTO-CI, single reference methods and gradients
   Taras Petrenko         : DFT Hessian,TD-DFT gradient, ASA, ECA, R-Raman, ABS, FL, XAS/XES, NRVS
   Peter Pinski           : DLPNO-MP2, DLPNO-MP2 Gradient
   Christoph Reimann      : Effective Core Potentials
   Marius Retegan         : Local ZFS, SOC
   Christoph Riplinger    : Optimizer, TS searches, QM/MM, DLPNO-CCSD(T), (RO)-DLPNO pert. Triples
   Tobias Risthaus        : Range-separated hybrids, TD-DFT gradient, RPA, STAB
   Michael Roemelt        : Original ROCIS implementation
   Masaaki Saitow         : Open-shell DLPNO-CCSD energy and density
   Barbara Sandhoefer     : DKH picture change effects
   Avijit Sen             : IP-ROCIS
   Kantharuban Sivalingam : CASSCF convergence, NEVPT2, FIC-MRCI
   Bernardo de Souza      : ESD, SOC TD-DFT
   Georgi Stoychev        : AutoAux, RI-MP2 NMR, DLPNO-MP2 response
   Willem Van den Heuvel  : Paramagnetic NMR
   Boris Wezisla          : Elementary symmetry handling
   Frank Wennmohs         : Technical directorship


 We gratefully acknowledge several colleagues who have allowed us to
 interface, adapt or use parts of their codes:
   Stefan Grimme, W. Hujo, H. Kruse, P. Pracht,  : VdW corrections, initial TS optimization,
                  C. Bannwarth, S. Ehlert          DFT functionals, gCP, sTDA/sTD-DF
   Ed Valeev, F. Pavosevic, A. Kumar             : LibInt (2-el integral package), F12 methods
   Garnet Chan, S. Sharma, J. Yang, R. Olivares  : DMRG
   Ulf Ekstrom                                   : XCFun DFT Library
   Mihaly Kallay                                 : mrcc  (arbitrary order and MRCC methods)
   Jiri Pittner, Ondrej Demel                    : Mk-CCSD
   Frank Weinhold                                : gennbo (NPA and NBO analysis)
   Christopher J. Cramer and Donald G. Truhlar   : smd solvation model
   Lars Goerigk                                  : TD-DFT with DH, B97 family of functionals
   V. Asgeirsson, H. Jonsson                     : NEB implementation
   FAccTs GmbH                                   : IRC, NEB, NEB-TS, DLPNO-Multilevel, CI-OPT
                                                   MM, QMMM, 2- and 3-layer-ONIOM, Crystal-QMMM,
                                                   LR-CPCM, SF, NACMEs, symmetry and pop. for TD-DFT,
                                                   nearIR, NL-DFT gradient (VV10), updates on ESD,
                                                   ML-optimized integration grids
   S Lehtola, MJT Oliveira, MAL Marques          : LibXC Library
   Liviu Ungur et al                             : ANISO software


 Your calculation uses the libint2 library for the computation of 2-el integrals
 For citations please refer to: http://libint.valeyev.net

 Your ORCA version has been built with support for libXC version: 5.1.0
 For citations please refer to: https://tddft.org/programs/libxc/

 This ORCA versions uses:
   CBLAS   interface :  Fast vector & matrix operations
   LAPACKE interface :  Fast linear algebra routines
   SCALAPACK package :  Parallel linear algebra routines
   Shared memory     :  Shared parallel matrices
   BLAS/LAPACK       :  OpenBLAS 0.3.15  USE64BITINT DYNAMIC_ARCH NO_AFFINITY SkylakeX SINGLE_THREADED
        Core in use  :  SkylakeX
   Copyright (c) 2011-2014, The OpenBLAS Project




***************************************
The coordinates will be read from file: opt.xyz
***************************************


================================================================================

----- Orbital basis set information -----
Your calculation utilizes the basis: cc-pVDZ 
       H, B-Ne : Obtained from the ccRepo (grant-hill.group.shef.ac.uk/ccrepo) Feb. 2017
                 T. H. Dunning, Jr., J. Chem. Phys. 90, 1007 (1989)
            He : Obtained from the ccRepo (grant-hill.group.shef.ac.uk/ccrepo) Feb. 2017
                 D. E. Woon, T. H. Dunning, Jr., J. Chem. Phys. 100, 2975 (1994)
  Li-Be, Na-Mg : Obtained from the ccRepo (grant-hill.group.shef.ac.uk/ccrepo) Feb. 2017
                 B. P. Prascher, D. E. Woon, K. A. Peterson, T. H. Dunning, Jr., A. K. Wilson, Theor. Chem. Acc. 128, 69 (2011)
         Al-Ar : Obtained from the ccRepo (grant-hill.group.shef.ac.uk/ccrepo) Feb. 2017
                 D. E. Woon, T. H. Dunning, Jr., J. Chem. Phys. 98, 1358 (1993)
            Ca : Obtained from the Peterson Research Group Website (tyr0.chem.wsu.edu/~kipeters) Feb. 2017
                 J. Koput, K. A. Peterson, J. Phys. Chem. 106, 9595 (2002)
         Sc-Zn : Obtained from the ccRepo (grant-hill.group.shef.ac.uk/ccrepo) Feb. 2017
                 N. B. Balabanov, K. A. Peterson, J. Chem. Phys. 123, 064107 (2005)
                 N. B. Balabanov, K. A. Peterson, J. Chem. Phys. 125, 074110 (2006)
         Ga-Kr : Obtained from the ccRepo (grant-hill.group.shef.ac.uk/ccrepo) Feb. 2017
                 A. K. Wilson, D. E. Woon, K. A. Peterson, T. H. Dunning, Jr., J. Chem. Phys. 110, 7667 (1999)

----- AuxJ basis set information -----
Your calculation utilizes the AutoAux generation procedure.
  G. L. Stoychev, A. A. Auer, F. Neese, J. Chem. Theory Comput. 13, 554 (2017)

----- AuxC basis set information -----
Your calculation utilizes the AutoAux generation procedure.
  G. L. Stoychev, A. A. Auer, F. Neese, J. Chem. Theory Comput. 13, 554 (2017)

----- AuxJK basis set information -----
Your calculation utilizes the AutoAux generation procedure.
  G. L. Stoychev, A. A. Auer, F. Neese, J. Chem. Theory Comput. 13, 554 (2017)

================================================================================
                                        WARNINGS
                       Please study these warnings very carefully!
================================================================================

WARNING: Old DensityContainer found on disk!
         Will remove this file - 
         If you want to keep old densities, please start your calculation with a different basename. 


WARNING: your system is open-shell and RHF/RKS was chosen
  ===> : WILL SWITCH to UHF/UKS


INFO   : the flag for use of the SHARK integral package has been found!

================================================================================
                                       INPUT FILE
================================================================================
NAME = cc-pVDZ.inp
|  1> ! B3LYP cc-pVDZ AUTOAUX
|  2> %pal nprocs 16 end
|  3> *XYZFile 0 2 opt.xyz
|  4> %EPRNMR
|  5>         GTENSOR   TRUE
|  6>         NUCLEI    = ALL H {SHIFT, AISO, ADIP, AORB}
|  7>         ORI       CenterOfElCharge
|  8> END
|  9> 
| 10>                          ****END OF INPUT****
================================================================================

                       ****************************
                       * Single Point Calculation *
                       ****************************

---------------------------------
CARTESIAN COORDINATES (ANGSTROEM)
---------------------------------
  C     -4.052268    0.115614   -0.001692
  C     -2.836565    0.052160   -0.003421
  C      2.842829   -0.004216   -0.002352
  C     -1.410014    0.002656   -0.003149
  C     -0.708139   -1.258090   -0.002726
  C      0.713185   -1.192512   -0.002392
  C      1.414143    0.016922   -0.002570
  C      0.706182    1.260759   -0.003012
  C     -0.689438    1.209567   -0.003370
  H      1.288191   -2.118709   -0.002058
  H     -1.263059    2.136269   -0.003793
  C     -1.396801   -2.492011   -0.002645
  H     -2.489358   -2.454708   -0.003064
  C     -0.741126   -3.840380   -0.002172
  H     -0.069922   -3.936290   -0.880793
  H     -0.068807   -3.935156    0.875698
  C     -1.739120   -5.005603   -0.000787
  H     -2.397379   -4.914277    0.882428
  H     -2.398569   -4.915385   -0.883231
  C     -1.061646   -6.377131   -0.000385
  H     -0.420496   -6.507557    0.888639
  H     -0.421640   -6.508641   -0.890074
  C      1.479774    2.562726   -0.003141
  H      2.157489    2.561725    0.871211
  H      2.158029    2.561237   -0.877070
  C      0.660782    3.856198   -0.003729
  H     -0.002282    3.880554   -0.888104
  H     -0.002671    3.881100    0.880341
  C      1.541048    5.111788   -0.003930
  H      2.207161    5.089300    0.878622
  H      2.207254    5.088941   -0.886402
  C      0.734674    6.412803   -0.004240
  H      0.084530    6.481508    0.885049
  H      0.084510    6.481072   -0.893549
  C      4.064589   -0.029084   -0.003390
  H     -5.122850    0.176841    0.002017
  H     -1.802776   -7.192512    0.000594
  H      1.393262    7.296517   -0.004468
  C      5.492574   -0.059283   -0.003026
  C      6.185759   -1.289431   -0.002819
  C      7.580089   -1.313817   -0.002390
  C      8.308273   -0.118677   -0.002188
  C      7.631219    1.106277   -0.002419
  C      6.237203    1.140549   -0.002850
  H      9.400533   -0.141833   -0.001853
  H      8.194107    2.042827   -0.002269
  H      5.615401   -2.220203   -0.002988
  H      5.707015    2.094785   -0.003040
  H      8.103468   -2.273007   -0.002217

----------------------------
CARTESIAN COORDINATES (A.U.)
----------------------------
  NO LB      ZA    FRAG     MASS         X           Y           Z
   0 C     6.0000    0    12.011   -7.657677    0.218479   -0.003198
   1 C     6.0000    0    12.011   -5.360331    0.098568   -0.006465
   2 C     6.0000    0    12.011    5.372169   -0.007967   -0.004444
   3 C     6.0000    0    12.011   -2.664541    0.005019   -0.005951
   4 C     6.0000    0    12.011   -1.338189   -2.377445   -0.005152
   5 C     6.0000    0    12.011    1.347725   -2.253522   -0.004520
   6 C     6.0000    0    12.011    2.672344    0.031979   -0.004857
   7 C     6.0000    0    12.011    1.334492    2.382489   -0.005692
   8 C     6.0000    0    12.011   -1.302849    2.285750   -0.006369
   9 H     1.0000    0     1.008    2.434329   -4.003780   -0.003889
  10 H     1.0000    0     1.008   -2.386836    4.036963   -0.007168
  11 C     6.0000    0    12.011   -2.639571   -4.709218   -0.004998
  12 H     1.0000    0     1.008   -4.704205   -4.638725   -0.005790
  13 C     6.0000    0    12.011   -1.400526   -7.257266   -0.004105
  14 H     1.0000    0     1.008   -0.132134   -7.438510   -1.664458
  15 H     1.0000    0     1.008   -0.130026   -7.436367    1.654830
  16 C     6.0000    0    12.011   -3.286461   -9.459219   -0.001488
  17 H     1.0000    0     1.008   -4.530390   -9.286638    1.667547
  18 H     1.0000    0     1.008   -4.532639   -9.288732   -1.669064
  19 C     6.0000    0    12.011   -2.006221  -12.051031   -0.000728
  20 H     1.0000    0     1.008   -0.794621  -12.297500    1.679284
  21 H     1.0000    0     1.008   -0.796784  -12.299549   -1.681996
  22 C     6.0000    0    12.011    2.796368    4.842850   -0.005935
  23 H     1.0000    0     1.008    4.077063    4.840958    1.646350
  24 H     1.0000    0     1.008    4.078084    4.840037   -1.657422
  25 C     6.0000    0    12.011    1.248696    7.287158   -0.007047
  26 H     1.0000    0     1.008   -0.004313    7.333185   -1.678274
  27 H     1.0000    0     1.008   -0.005048    7.334215    1.663603
  28 C     6.0000    0    12.011    2.912159    9.659880   -0.007426
  29 H     1.0000    0     1.008    4.170930    9.617383    1.660355
  30 H     1.0000    0     1.008    4.171105    9.616705   -1.675058
  31 C     6.0000    0    12.011    1.388332   12.118442   -0.008013
  32 H     1.0000    0     1.008    0.159738   12.248276    1.672501
  33 H     1.0000    0     1.008    0.159700   12.247452   -1.688563
  34 C     6.0000    0    12.011    7.680960   -0.054961   -0.006406
  35 H     1.0000    0     1.008   -9.680783    0.334181    0.003811
  36 H     1.0000    0     1.008   -3.406754  -13.591879    0.001122
  37 H     1.0000    0     1.008    2.632883   13.788418   -0.008442
  38 C     6.0000    0    12.011   10.379460   -0.112029   -0.005718
  39 C     6.0000    0    12.011   11.689391   -2.436671   -0.005326
  40 C     6.0000    0    12.011   14.324292   -2.482754   -0.004516
  41 C     6.0000    0    12.011   15.700361   -0.224267   -0.004135
  42 C     6.0000    0    12.011   14.420914    2.090561   -0.004572
  43 C     6.0000    0    12.011   11.786606    2.155326   -0.005386
  44 H     1.0000    0     1.008   17.764432   -0.268026   -0.003502
  45 H     1.0000    0     1.008   15.484619    3.860384   -0.004288
  46 H     1.0000    0     1.008   10.611570   -4.195575   -0.005647
  47 H     1.0000    0     1.008   10.784695    3.958571   -0.005746
  48 H     1.0000    0     1.008   15.313335   -4.295361   -0.004190

--------------------------------
INTERNAL COORDINATES (ANGSTROEM)
--------------------------------
 C      0   0   0     0.000000000000     0.00000000     0.00000000
 C      1   0   0     1.217359260364     0.00000000     0.00000000
 C      2   1   0     5.679674327504   177.57909499     0.00000000
 C      2   1   3     1.427409552105   178.99534651     3.08808618
 C      4   2   1     1.442951425572   121.09278371   174.71811389
 C      5   4   2     1.422836285811   116.46367031   180.00407821
 C      6   5   4     1.397882258686   122.73715019     0.00000000
 C      7   6   5     1.431201738527   120.25703922     0.00000000
 C      8   7   6     1.396559095721   117.54676217     0.00000000
 H      6   5   4     1.090170958943   119.19138482   179.99948449
 H      9   8   7     1.089870544167   119.65647988   180.00493673
 C      5   4   2     1.413087871575   121.72841724     0.00000000
 H     12   5   4     1.093193664881   117.21076493     0.00000000
 C     12   5   4     1.499335667753   124.90135308   180.00200593
 H     14  12   5     1.109814590441   109.99569207   302.57756505
 H     14  12   5     1.109798677346   109.99718402    57.30659809
 C     14  12   5     1.534190058153   113.48814276   179.94286128
 H     17  14  12     1.105312120549   108.98789398   302.35921625
 H     17  14  12     1.105313671011   108.98908084    57.63428164
 C     17  14  12     1.529725173464   113.13319790   179.99705768
 H     20  17  14     1.103833908636   111.30840897    59.86326630
 H     20  17  14     1.103833841714   111.30827615   300.13931194
 C      8   7   6     1.514450838400   119.63497019   179.99741455
 H     23   8   7     1.106250292653   108.18504701   303.71758795
 H     23   8   7     1.106247903877   108.18538127    56.27063565
 C     23   8   7     1.530953628554   116.94152217   179.99536478
 H     26  23   8     1.105606971055   109.86150781   301.75578256
 H     26  23   8     1.105607966662   109.86090980    58.25344213
 C     26  23   8     1.533419801342   112.62564205   180.00467961
 H     29  26  23     1.105942745177   109.20811490   302.33823521
 H     29  26  23     1.105942536750   109.20759569    57.68502110
 C     29  26  23     1.530647016941   113.17574209   180.01128968
 H     32  29  26     1.103740707934   111.28832870    59.85524771
 H     32  29  26     1.103740858252   111.28837505   300.15428281
 C      3   2   1     1.222013211744   179.39972339   183.50339480
 H      1   2   4     1.072337309213   179.69168392   343.00096738
 H     20  17  14     1.101871872811   111.44384015   180.00101100
 H     32  29  26     1.102128421739   111.51385020   180.00492423
 C     35   3   7     1.428304078639   179.92207852   295.47244443
 C     39  35   3     1.412008938125   120.61267562    54.30194255
 C     40  39  35     1.394543110631   120.40313695   180.00350810
 C     41  40  39     1.399504386554   120.35146742     0.00000000
 C     42  41  40     1.399612460365   119.71634157     0.00000000
 C     43  42  41     1.394437327793   120.33855062     0.00000000
 H     42  41  40     1.092504659132   120.13892208   180.00005377
 H     43  42  41     1.092688694510   120.06294536   180.00032209
 H     40  39  35     1.091624690355   119.09971744     0.00000000
 H     44  43  42     1.091634750457   120.46557739   180.00056615
 H     41  40  39     1.092689909688   119.62092764   179.99904039

---------------------------
INTERNAL COORDINATES (A.U.)
---------------------------
 C      0   0   0     0.000000000000     0.00000000     0.00000000
 C      1   0   0     2.300475608681     0.00000000     0.00000000
 C      2   1   0    10.733029008846   177.57909499     0.00000000
 C      2   1   3     2.697413134421   178.99534651     3.08808618
 C      4   2   1     2.726783018883   121.09278371   174.71811389
 C      5   4   2     2.688770913588   116.46367031   180.00407821
 C      6   5   4     2.641614636385   122.73715019     0.00000000
 C      7   6   5     2.704579328209   120.25703922     0.00000000
 C      8   7   6     2.639114220749   117.54676217     0.00000000
 H      6   5   4     2.060124551556   119.19138482   179.99948449
 H      9   8   7     2.059556849904   119.65647988   180.00493673
 C      5   4   2     2.670349080442   121.72841724     0.00000000
 H     12   5   4     2.065836637963   117.21076493     0.00000000
 C     12   5   4     2.833333794873   124.90135308   180.00200593
 H     14  12   5     2.097245635363   109.99569207   302.57756505
 H     14  12   5     2.097215563971   109.99718402    57.30659809
 C     14  12   5     2.899199047294   113.48814276   179.94286128
 H     17  14  12     2.088737200342   108.98789398   302.35921625
 H     17  14  12     2.088740130290   108.98908084    57.63428164
 C     17  14  12     2.890761638011   113.13319790   179.99705768
 H     20  17  14     2.085943784658   111.30840897    59.86326630
 H     20  17  14     2.085943658193   111.30827615   300.13931194
 C      8   7   6     2.861897327863   119.63497019   179.99741455
 H     23   8   7     2.090510088684   108.18504701   303.71758795
 H     23   8   7     2.090505574553   108.18538127    56.27063565
 C     23   8   7     2.893083081700   116.94152217   179.99536478
 H     26  23   8     2.089294387049   109.86150781   301.75578256
 H     26  23   8     2.089296268473   109.86090980    58.25344213
 C     26  23   8     2.897743472868   112.62564205   180.00467961
 H     29  26  23     2.089928908181   109.20811490   302.33823521
 H     29  26  23     2.089928514311   109.20759569    57.68502110
 C     29  26  23     2.892503669722   113.17574209   180.01128968
 H     32  29  26     2.085767660856   111.28832870    59.85524771
 H     32  29  26     2.085767944915   111.28837505   300.15428281
 C      3   2   1     2.309270302229   179.39972339   183.50339480
 H      1   2   4     2.026423837598   179.69168392   343.00096738
 H     20  17  14     2.082236074284   111.44384015   180.00101100
 H     32  29  26     2.082720881497   111.51385020   180.00492423
 C     35   3   7     2.699103544590   179.92207852   295.47244443
 C     39  35   3     2.668310191706   120.61267562    54.30194255
 C     40  39  35     2.635304561040   120.40313695   180.00350810
 C     41  40  39     2.644680013809   120.35146742     0.00000000
 C     42  41  40     2.644884243713   119.71634157     0.00000000
 C     43  42  41     2.635104660446   120.33855062     0.00000000
 H     42  41  40     2.064534605792   120.13892208   180.00005377
 H     43  42  41     2.064882382255   120.06294536   180.00032209
 H     40  39  35     2.062871705797   119.09971744     0.00000000
 H     44  43  42     2.062890716636   120.46557739   180.00056615
 H     41  40  39     2.064884678610   119.62092764   179.99904039

---------------------
BASIS SET INFORMATION
---------------------
There are 2 groups of distinct atoms

 Group   1 Type C   : 17s4p1d contracted to 3s2p1d pattern {881/31/1}
 Group   2 Type H   : 4s1p contracted to 2s1p pattern {31/1}

Atom   0C    basis set group =>   1
Atom   1C    basis set group =>   1
Atom   2C    basis set group =>   1
Atom   3C    basis set group =>   1
Atom   4C    basis set group =>   1
Atom   5C    basis set group =>   1
Atom   6C    basis set group =>   1
Atom   7C    basis set group =>   1
Atom   8C    basis set group =>   1
Atom   9H    basis set group =>   2
Atom  10H    basis set group =>   2
Atom  11C    basis set group =>   1
Atom  12H    basis set group =>   2
Atom  13C    basis set group =>   1
Atom  14H    basis set group =>   2
Atom  15H    basis set group =>   2
Atom  16C    basis set group =>   1
Atom  17H    basis set group =>   2
Atom  18H    basis set group =>   2
Atom  19C    basis set group =>   1
Atom  20H    basis set group =>   2
Atom  21H    basis set group =>   2
Atom  22C    basis set group =>   1
Atom  23H    basis set group =>   2
Atom  24H    basis set group =>   2
Atom  25C    basis set group =>   1
Atom  26H    basis set group =>   2
Atom  27H    basis set group =>   2
Atom  28C    basis set group =>   1
Atom  29H    basis set group =>   2
Atom  30H    basis set group =>   2
Atom  31C    basis set group =>   1
Atom  32H    basis set group =>   2
Atom  33H    basis set group =>   2
Atom  34C    basis set group =>   1
Atom  35H    basis set group =>   2
Atom  36H    basis set group =>   2
Atom  37H    basis set group =>   2
Atom  38C    basis set group =>   1
Atom  39C    basis set group =>   1
Atom  40C    basis set group =>   1
Atom  41C    basis set group =>   1
Atom  42C    basis set group =>   1
Atom  43C    basis set group =>   1
Atom  44H    basis set group =>   2
Atom  45H    basis set group =>   2
Atom  46H    basis set group =>   2
Atom  47H    basis set group =>   2
Atom  48H    basis set group =>   2
---------------------------------
AUXILIARY/J BASIS SET INFORMATION
---------------------------------
There are 2 groups of distinct atoms

 Group   1 Type C   : 14s11p10d2f contracted to 14s11p10d2f pattern {11111111111111/11111111111/1111111111/11}
 Group   2 Type H   : 9s2p1d contracted to 9s2p1d pattern {111111111/11/1}

Atom   0C    basis set group =>   1
Atom   1C    basis set group =>   1
Atom   2C    basis set group =>   1
Atom   3C    basis set group =>   1
Atom   4C    basis set group =>   1
Atom   5C    basis set group =>   1
Atom   6C    basis set group =>   1
Atom   7C    basis set group =>   1
Atom   8C    basis set group =>   1
Atom   9H    basis set group =>   2
Atom  10H    basis set group =>   2
Atom  11C    basis set group =>   1
Atom  12H    basis set group =>   2
Atom  13C    basis set group =>   1
Atom  14H    basis set group =>   2
Atom  15H    basis set group =>   2
Atom  16C    basis set group =>   1
Atom  17H    basis set group =>   2
Atom  18H    basis set group =>   2
Atom  19C    basis set group =>   1
Atom  20H    basis set group =>   2
Atom  21H    basis set group =>   2
Atom  22C    basis set group =>   1
Atom  23H    basis set group =>   2
Atom  24H    basis set group =>   2
Atom  25C    basis set group =>   1
Atom  26H    basis set group =>   2
Atom  27H    basis set group =>   2
Atom  28C    basis set group =>   1
Atom  29H    basis set group =>   2
Atom  30H    basis set group =>   2
Atom  31C    basis set group =>   1
Atom  32H    basis set group =>   2
Atom  33H    basis set group =>   2
Atom  34C    basis set group =>   1
Atom  35H    basis set group =>   2
Atom  36H    basis set group =>   2
Atom  37H    basis set group =>   2
Atom  38C    basis set group =>   1
Atom  39C    basis set group =>   1
Atom  40C    basis set group =>   1
Atom  41C    basis set group =>   1
Atom  42C    basis set group =>   1
Atom  43C    basis set group =>   1
Atom  44H    basis set group =>   2
Atom  45H    basis set group =>   2
Atom  46H    basis set group =>   2
Atom  47H    basis set group =>   2
Atom  48H    basis set group =>   2
---------------------------------
AUXILIARY/C BASIS SET INFORMATION
---------------------------------
There are 2 groups of distinct atoms

 Group   1 Type C   : 14s11p10d2f contracted to 14s11p10d2f pattern {11111111111111/11111111111/1111111111/11}
 Group   2 Type H   : 9s2p1d contracted to 9s2p1d pattern {111111111/11/1}

Atom   0C    basis set group =>   1
Atom   1C    basis set group =>   1
Atom   2C    basis set group =>   1
Atom   3C    basis set group =>   1
Atom   4C    basis set group =>   1
Atom   5C    basis set group =>   1
Atom   6C    basis set group =>   1
Atom   7C    basis set group =>   1
Atom   8C    basis set group =>   1
Atom   9H    basis set group =>   2
Atom  10H    basis set group =>   2
Atom  11C    basis set group =>   1
Atom  12H    basis set group =>   2
Atom  13C    basis set group =>   1
Atom  14H    basis set group =>   2
Atom  15H    basis set group =>   2
Atom  16C    basis set group =>   1
Atom  17H    basis set group =>   2
Atom  18H    basis set group =>   2
Atom  19C    basis set group =>   1
Atom  20H    basis set group =>   2
Atom  21H    basis set group =>   2
Atom  22C    basis set group =>   1
Atom  23H    basis set group =>   2
Atom  24H    basis set group =>   2
Atom  25C    basis set group =>   1
Atom  26H    basis set group =>   2
Atom  27H    basis set group =>   2
Atom  28C    basis set group =>   1
Atom  29H    basis set group =>   2
Atom  30H    basis set group =>   2
Atom  31C    basis set group =>   1
Atom  32H    basis set group =>   2
Atom  33H    basis set group =>   2
Atom  34C    basis set group =>   1
Atom  35H    basis set group =>   2
Atom  36H    basis set group =>   2
Atom  37H    basis set group =>   2
Atom  38C    basis set group =>   1
Atom  39C    basis set group =>   1
Atom  40C    basis set group =>   1
Atom  41C    basis set group =>   1
Atom  42C    basis set group =>   1
Atom  43C    basis set group =>   1
Atom  44H    basis set group =>   2
Atom  45H    basis set group =>   2
Atom  46H    basis set group =>   2
Atom  47H    basis set group =>   2
Atom  48H    basis set group =>   2
----------------------------------
AUXILIARY/JK BASIS SET INFORMATION
----------------------------------
There are 2 groups of distinct atoms

 Group   1 Type C   : 14s11p10d2f contracted to 14s11p10d2f pattern {11111111111111/11111111111/1111111111/11}
 Group   2 Type H   : 9s2p1d contracted to 9s2p1d pattern {111111111/11/1}

Atom   0C    basis set group =>   1
Atom   1C    basis set group =>   1
Atom   2C    basis set group =>   1
Atom   3C    basis set group =>   1
Atom   4C    basis set group =>   1
Atom   5C    basis set group =>   1
Atom   6C    basis set group =>   1
Atom   7C    basis set group =>   1
Atom   8C    basis set group =>   1
Atom   9H    basis set group =>   2
Atom  10H    basis set group =>   2
Atom  11C    basis set group =>   1
Atom  12H    basis set group =>   2
Atom  13C    basis set group =>   1
Atom  14H    basis set group =>   2
Atom  15H    basis set group =>   2
Atom  16C    basis set group =>   1
Atom  17H    basis set group =>   2
Atom  18H    basis set group =>   2
Atom  19C    basis set group =>   1
Atom  20H    basis set group =>   2
Atom  21H    basis set group =>   2
Atom  22C    basis set group =>   1
Atom  23H    basis set group =>   2
Atom  24H    basis set group =>   2
Atom  25C    basis set group =>   1
Atom  26H    basis set group =>   2
Atom  27H    basis set group =>   2
Atom  28C    basis set group =>   1
Atom  29H    basis set group =>   2
Atom  30H    basis set group =>   2
Atom  31C    basis set group =>   1
Atom  32H    basis set group =>   2
Atom  33H    basis set group =>   2
Atom  34C    basis set group =>   1
Atom  35H    basis set group =>   2
Atom  36H    basis set group =>   2
Atom  37H    basis set group =>   2
Atom  38C    basis set group =>   1
Atom  39C    basis set group =>   1
Atom  40C    basis set group =>   1
Atom  41C    basis set group =>   1
Atom  42C    basis set group =>   1
Atom  43C    basis set group =>   1
Atom  44H    basis set group =>   2
Atom  45H    basis set group =>   2
Atom  46H    basis set group =>   2
Atom  47H    basis set group =>   2
Atom  48H    basis set group =>   2

Checking for AutoStart:
The File: cc-pVDZ.gbw exists
Trying to determine its content:
     ... Fine, the file contains calculation information
     ... Fine, the calculation information was read
     ... Fine, the file contains a basis set
     ... Fine, the basis set was read
     ... Fine, the file contains a geometry
     ... Fine, the geometry was read
     ... Fine, the file contains a set of orbitals
     ... Fine, the orbitals can be read
     => possible old guess file was deleted
     => GBW file was renamed to GES file
     => GES file is set as startup file
     => Guess is set to MORead
     ... now leaving AutoStart



           ************************************************************
           *        Program running with 16 parallel MPI-processes    *
           *              working on a common directory               *
           ************************************************************
------------------------------------------------------------------------------
                           ORCA GTO INTEGRAL CALCULATION
                           -- RI-GTO INTEGRALS CHOSEN --
------------------------------------------------------------------------------
------------------------------------------------------------------------------
                   ___                                                        
                  /   \      - P O W E R E D   B Y -                         
                 /     \                                                     
                 |  |  |   _    _      __       _____    __    __             
                 |  |  |  | |  | |    /  \     |  _  \  |  |  /  |          
                  \  \/   | |  | |   /    \    | | | |  |  | /  /          
                 / \  \   | |__| |  /  /\  \   | |_| |  |  |/  /          
                |  |  |   |  __  | /  /__\  \  |    /   |      \           
                |  |  |   | |  | | |   __   |  |    \   |  |\   \          
                \     /   | |  | | |  |  |  |  | |\  \  |  | \   \       
                 \___/    |_|  |_| |__|  |__|  |_| \__\ |__|  \__/        
                                                                              
                      - O R C A' S   B I G   F R I E N D -                    
                                      &                                       
                       - I N T E G R A L  F E E D E R -                       
                                                                              
 v1 FN, 2020, v2 2021                                                         
------------------------------------------------------------------------------


Reading SHARK input file cc-pVDZ.SHARKINP.tmp ... ok
----------------------
SHARK INTEGRAL PACKAGE
----------------------

Number of atoms                             ...     49
Number of basis functions                   ...    605
Number of shells                            ...    363
Maximum angular momentum                    ...      2
Integral batch strategy                     ... SHARK/LIBINT Hybrid
RI-J (if used) integral strategy            ... SPLIT-RIJ (Revised 2003 algorithm where possible)
Printlevel                                  ...      1
Contraction scheme used                     ... PARTIAL GENERAL contraction
Coulomb Range Separation                    ... NOT USED
Exchange Range Separation                   ... NOT USED
Finite Nucleus Model                        ... NOT USED
Auxiliary Coulomb fitting basis             ... AVAILABLE
   # of basis functions in Aux-J            ...   3164
   # of shells in Aux-J                     ...   1188
   Maximum angular momentum in Aux-J        ...      3
Auxiliary J/K fitting basis                 ... AVAILABLE
   # of basis functions in Aux-JK           ...   3164
   # of shells in Aux-JK                    ...   1188
   Maximum angular momentum in Aux-JK       ...      3
Auxiliary Correlation fitting basis         ... AVAILABLE
   # of basis functions in Aux-C            ...   3164
   # of shells in Aux-C                     ...   1188
   Maximum angular momentum in Aux-C        ...      3
Auxiliary 'external' fitting basis          ... NOT available
Integral threshold                          ...     1.000000e-10
Primitive cut-off                           ...     1.000000e-11
Primitive pair pre-selection threshold      ...     1.000000e-11

Calculating pre-screening integrals         ... done (  0.0 sec) Dimension = 363
Calculating pre-screening integrals (ORCA)  ... done (  0.1 sec) Dimension = 219
Organizing shell pair data                  ... done (  0.2 sec)
Shell pair information
Total number of shell pairs                 ...     66066
Shell pairs after pre-screening             ...     25426
Total number of primitive shell pairs       ...    106638
Primitive shell pairs kept                  ...     34279
          la=0 lb=0:  11005 shell pairs
          la=1 lb=0:   8981 shell pairs
          la=1 lb=1:   1604 shell pairs
          la=2 lb=0:   2695 shell pairs
          la=2 lb=1:    978 shell pairs
          la=2 lb=2:    163 shell pairs

Calculating one electron integrals          ... done (  0.0 sec)
Calculating RI/J V-Matrix + Cholesky decomp.... done (  0.8 sec)
Calculating RI/JK V-Matrix + Cholesky decomp... done (  0.8 sec)
Calculating RI/C V-Matrix + Cholesky decomp.... done (  1.0 sec)
Calculating Nuclear repulsion               ... done (  0.0 sec) ENN=   1724.022777785751 Eh

SHARK setup successfully completed in   3.5 seconds

Maximum memory used throughout the entire GTOINT-calculation: 41.6 MB


           ************************************************************
           *        Program running with 16 parallel MPI-processes    *
           *              working on a common directory               *
           ************************************************************
-------------------------------------------------------------------------------
                                 ORCA SCF
-------------------------------------------------------------------------------

------------
SCF SETTINGS
------------
Hamiltonian:
 Density Functional     Method          .... DFT(GTOs)
 Exchange Functional    Exchange        .... B88
   X-Alpha parameter    XAlpha          ....  0.666667
   Becke's b parameter  XBeta           ....  0.004200
 Correlation Functional Correlation     .... LYP
 LDA part of GGA corr.  LDAOpt          .... VWN-5
 Gradients option       PostSCFGGA      .... off
 Hybrid DFT is turned on
   Fraction HF Exchange ScalHFX         ....  0.200000
   Scaling of DF-GGA-X  ScalDFX         ....  0.720000
   Scaling of DF-GGA-C  ScalDFC         ....  0.810000
   Scaling of DF-LDA-C  ScalLDAC        ....  1.000000
   Perturbative correction              ....  0.000000
   Density functional embedding theory  .... OFF
   NL short-range parameter             ....  4.800000
 RI-approximation to the Coulomb term is turned on
   Number of AuxJ basis functions       .... 3164
   RIJ-COSX (HFX calculated with COS-X)).... on


General Settings:
 Integral files         IntName         .... cc-pVDZ
 Hartree-Fock type      HFTyp           .... UHF
 Total Charge           Charge          ....    0
 Multiplicity           Mult            ....    2
 Number of Electrons    NEL             ....  169
 Basis Dimension        Dim             ....  461
 Nuclear Repulsion      ENuc            ....   1724.0227777858 Eh

Convergence Acceleration:
 DIIS                   CNVDIIS         .... on
   Start iteration      DIISMaxIt       ....    12
   Startup error        DIISStart       ....  0.200000
   # of expansion vecs  DIISMaxEq       ....     5
   Bias factor          DIISBfac        ....   1.050
   Max. coefficient     DIISMaxC        ....  10.000
 Trust-Rad. Augm. Hess. CNVTRAH         .... auto
   Auto Start mean grad. ratio tolernc. ....  1.125000
   Auto Start start iteration           ....     1
   Auto Start num. interpolation iter.  ....    10
   Max. Number of Micro iterations      ....    16
   Max. Number of Macro iterations      .... Maxiter - #DIIS iter
   Number of Davidson start vectors     ....     2
   Converg. threshold I  (grad. norm)   ....   5.000e-05
   Converg. threshold II (energy diff.) ....   1.000e-06
   Grad. Scal. Fac. for Micro threshold ....   0.100
   Minimum threshold for Micro iter.    ....   0.010
   NR start threshold (gradient norm)   ....   0.001
   Initial trust radius                 ....   0.400
   Minimum AH scaling param. (alpha)    ....   1.000
   Maximum AH scaling param. (alpha)    .... 1000.000
   Orbital update algorithm             .... Taylor
   White noise on init. David. guess    .... on
   Maximum white noise                  ....   0.010
   Quad. conv. algorithm                .... NR
 SOSCF                  CNVSOSCF        .... off
 Level Shifting         CNVShift        .... on
   Level shift para.    LevelShift      ....    0.2500
   Turn off err/grad.   ShiftErr        ....    0.0010
 Zerner damping         CNVZerner       .... off
 Static damping         CNVDamp         .... on
   Fraction old density DampFac         ....    0.7000
   Max. Damping (<1)    DampMax         ....    0.9800
   Min. Damping (>=0)   DampMin         ....    0.0000
   Turn off err/grad.   DampErr         ....    0.1000
 Fernandez-Rico         CNVRico         .... off

SCF Procedure:
 Maximum # iterations   MaxIter         ....   125
 SCF integral mode      SCFMode         .... Direct
   Integral package                     .... SHARK and LIBINT hybrid scheme
 Reset frequency        DirectResetFreq ....    20
 Integral Threshold     Thresh          ....  1.000e-10 Eh
 Primitive CutOff       TCut            ....  1.000e-11 Eh

Convergence Tolerance:
 Convergence Check Mode ConvCheckMode   .... Total+1el-Energy
 Convergence forced     ConvForced      .... 0
 Energy Change          TolE            ....  1.000e-06 Eh
 1-El. energy change                    ....  1.000e-03 Eh
 DIIS Error             TolErr          ....  1.000e-06


Diagonalization of the overlap matrix:
Smallest eigenvalue                        ... 5.124e-05
Time for diagonalization                   ...    0.054 sec
Threshold for overlap eigenvalues          ... 1.000e-08
Number of eigenvalues below threshold      ... 0
Time for construction of square roots      ...    0.048 sec
Total time needed                          ...    0.103 sec

---------------------
INITIAL GUESS: MOREAD
---------------------
Guess MOs are being read from file: cc-pVDZ.ges
Input Geometry matches current geometry (good)
Input basis set matches current basis set (good)
MOs were renormalized
MOs were reorthogonalized (Cholesky)
                      ------------------
                      INITIAL GUESS DONE (   0.2 sec)
                      ------------------
-------------------
DFT GRID GENERATION
-------------------

General Integration Accuracy     IntAcc      ... 4.388
Radial Grid Type                 RadialGrid  ... OptM3 with GC (2021)
Angular Grid (max. ang.)         AngularGrid ... 4 (Lebedev-302)
Angular grid pruning method      GridPruning ... 4 (adaptive)
Weight generation scheme         WeightScheme... Becke
Basis function cutoff            BFCut       ... 1.0000e-10
Integration weight cutoff        WCut        ... 1.0000e-14
Angular grids for H and He will be reduced by one unit
Partially contracted basis set               ... off
Rotationally invariant grid construction     ... off

Total number of grid points                  ...   223167
Total number of batches                      ...     3511
Average number of points per batch           ...       63
Average number of grid points per atom       ...     4554
Time for grid setup =    1.543 sec

--------------------
COSX GRID GENERATION
--------------------

GRIDX 1
-------
General Integration Accuracy     IntAcc      ... 3.816
Radial Grid Type                 RadialGrid  ... OptM3 with GC (2021)
Angular Grid (max. ang.)         AngularGrid ... 1 (Lebedev-50)
Angular grid pruning method      GridPruning ... 4 (adaptive)
Weight generation scheme         WeightScheme... Becke
Basis function cutoff            BFCut       ... 1.0000e-10
Integration weight cutoff        WCut        ... 1.0000e-14
Angular grids for H and He will be reduced by one unit
Partially contracted basis set               ... on
Rotationally invariant grid construction     ... off

Total number of grid points                  ...    28454
Total number of batches                      ...      471
Average number of points per batch           ...       60
Average number of grid points per atom       ...      581
UseSFitting                                  ... on

GRIDX 2
-------
General Integration Accuracy     IntAcc      ... 4.020
Radial Grid Type                 RadialGrid  ... OptM3 with GC (2021)
Angular Grid (max. ang.)         AngularGrid ... 2 (Lebedev-110)
Angular grid pruning method      GridPruning ... 4 (adaptive)
Weight generation scheme         WeightScheme... Becke
Basis function cutoff            BFCut       ... 1.0000e-10
Integration weight cutoff        WCut        ... 1.0000e-14
Angular grids for H and He will be reduced by one unit
Partially contracted basis set               ... on
Rotationally invariant grid construction     ... off

Total number of grid points                  ...    60638
Total number of batches                      ...      972
Average number of points per batch           ...       62
Average number of grid points per atom       ...     1238
UseSFitting                                  ... on

GRIDX 3
-------
General Integration Accuracy     IntAcc      ... 4.338
Radial Grid Type                 RadialGrid  ... OptM3 with GC (2021)
Angular Grid (max. ang.)         AngularGrid ... 3 (Lebedev-194)
Angular grid pruning method      GridPruning ... 4 (adaptive)
Weight generation scheme         WeightScheme... Becke
Basis function cutoff            BFCut       ... 1.0000e-10
Integration weight cutoff        WCut        ... 1.0000e-14
Angular grids for H and He will be reduced by one unit
Partially contracted basis set               ... on
Rotationally invariant grid construction     ... off

Total number of grid points                  ...   132616
Total number of batches                      ...     2098
Average number of points per batch           ...       63
Average number of grid points per atom       ...     2706
UseSFitting                                  ... on

Time for X-Grid setup             =    2.602 sec

 re-compute Schwartz prescreening matrix in partically contracted basis (1) ...done (   0.117 sec)
--------------
SCF ITERATIONS
--------------
ITER       Energy         Delta-E        Max-DP      RMS-DP      [F,P]     Damp
               ***  Starting incremental Fock matrix formation  ***
  0   -928.9011744507   0.000000000000 0.00003084  0.00000027  0.0001030 0.7000
                 **** Energy Check signals convergence ****

               *****************************************************
               *                     SUCCESS                       *
               *           SCF CONVERGED AFTER   1 CYCLES          *
               *****************************************************

Old exchange energy                            =    -26.638353427 Eh
New exchange energy                            =    -26.638468218 Eh
Exchange energy change after final integration =     -0.000114791 Eh
Total energy after final integration           =   -928.901289323 Eh
Final COS-X integration done in                =     7.550 sec

----------------
TOTAL SCF ENERGY
----------------

Total Energy       :         -928.90128932 Eh          -25276.68912 eV

Components:
Nuclear Repulsion  :         1724.02277779 Eh           46913.04480 eV
Electronic Energy  :        -2652.92406711 Eh          -72189.73392 eV
One Electron Energy:        -4677.02616545 Eh         -127268.35216 eV
Two Electron Energy:         2024.10209834 Eh           55078.61824 eV
Max COSX asymmetry :            0.00000058 Eh               0.00002 eV

Virial components:
Potential Energy   :        -1851.36887260 Eh          -50378.30821 eV
Kinetic Energy     :          922.46758328 Eh           25101.61908 eV
Virial Ratio       :            2.00697445


DFT components:
N(Alpha)           :       85.000168708471 electrons
N(Beta)            :       84.000161255719 electrons
N(Total)           :      169.000329964189 electrons
E(X)               :     -105.658900198159 Eh       
E(C)               :       -6.575460732958 Eh       
E(XC)              :     -112.234360931116 Eh       
DFET-embed. en.    :        0.000000000000 Eh       

---------------
SCF CONVERGENCE
---------------

  Last Energy change         ...   -8.0756e-08  Tolerance :   1.0000e-06
  Last MAX-Density change    ...    1.0910e-05  Tolerance :   1.0000e-05
  Last RMS-Density change    ...    9.4337e-08  Tolerance :   1.0000e-06
  Last DIIS Error            ...    5.3031e-05  Tolerance :   1.0000e-06

             **** THE GBW FILE WAS UPDATED (cc-pVDZ.gbw) ****
             **** DENSITY cc-pVDZ.scfp WAS UPDATED ****
             **** ENERGY FILE WAS UPDATED (cc-pVDZ.en.tmp) ****
----------------------
UHF SPIN CONTAMINATION
----------------------

Warning: in a DFT calculation there is little theoretical justification to 
         calculate <S**2> as in Hartree-Fock theory. We will do it anyways
         but you should keep in mind that the values have only limited relevance

Expectation value of <S**2>     :     0.786662
Ideal value S*(S+1) for S=0.5   :     0.750000
Deviation                       :     0.036662

             **** THE GBW FILE WAS UPDATED (cc-pVDZ.gbw) ****
             **** DENSITY cc-pVDZ.scfp WAS UPDATED ****
----------------
ORBITAL ENERGIES
----------------
                 SPIN UP ORBITALS
  NO   OCC          E(Eh)            E(eV) 
   0   1.0000     -10.216736      -278.0115 
   1   1.0000     -10.213432      -277.9216 
   2   1.0000     -10.211843      -277.8784 
   3   1.0000     -10.202103      -277.6133 
   4   1.0000     -10.198407      -277.5128 
   5   1.0000     -10.197351      -277.4840 
   6   1.0000     -10.197238      -277.4809 
   7   1.0000     -10.196253      -277.4542 
   8   1.0000     -10.195746      -277.4404 
   9   1.0000     -10.195536      -277.4346 
  10   1.0000     -10.194274      -277.4003 
  11   1.0000     -10.192124      -277.3418 
  12   1.0000     -10.190113      -277.2871 
  13   1.0000     -10.189765      -277.2776 
  14   1.0000     -10.189466      -277.2695 
  15   1.0000     -10.187963      -277.2286 
  16   1.0000     -10.187745      -277.2226 
  17   1.0000     -10.186905      -277.1998 
  18   1.0000     -10.185084      -277.1502 
  19   1.0000     -10.183594      -277.1097 
  20   1.0000     -10.182041      -277.0674 
  21   1.0000     -10.181731      -277.0590 
  22   1.0000     -10.176952      -276.9289 
  23   1.0000     -10.175688      -276.8945 
  24   1.0000      -0.873742       -23.7757 
  25   1.0000      -0.863475       -23.4963 
  26   1.0000      -0.819924       -22.3113 
  27   1.0000      -0.797947       -21.7132 
  28   1.0000      -0.796635       -21.6776 
  29   1.0000      -0.778322       -21.1792 
  30   1.0000      -0.767828       -20.8937 
  31   1.0000      -0.751179       -20.4406 
  32   1.0000      -0.744218       -20.2512 
  33   1.0000      -0.729982       -19.8638 
  34   1.0000      -0.713910       -19.4265 
  35   1.0000      -0.697701       -18.9854 
  36   1.0000      -0.656566       -17.8661 
  37   1.0000      -0.643550       -17.5119 
  38   1.0000      -0.620136       -16.8748 
  39   1.0000      -0.611559       -16.6414 
  40   1.0000      -0.609242       -16.5783 
  41   1.0000      -0.592433       -16.1209 
  42   1.0000      -0.579898       -15.7798 
  43   1.0000      -0.561721       -15.2852 
  44   1.0000      -0.541215       -14.7272 
  45   1.0000      -0.529745       -14.4151 
  46   1.0000      -0.507078       -13.7983 
  47   1.0000      -0.489864       -13.3299 
  48   1.0000      -0.480582       -13.0773 
  49   1.0000      -0.476041       -12.9537 
  50   1.0000      -0.470788       -12.8108 
  51   1.0000      -0.462019       -12.5722 
  52   1.0000      -0.457960       -12.4617 
  53   1.0000      -0.437270       -11.8987 
  54   1.0000      -0.431740       -11.7482 
  55   1.0000      -0.429224       -11.6798 
  56   1.0000      -0.426041       -11.5932 
  57   1.0000      -0.424475       -11.5506 
  58   1.0000      -0.421992       -11.4830 
  59   1.0000      -0.411805       -11.2058 
  60   1.0000      -0.398179       -10.8350 
  61   1.0000      -0.397798       -10.8246 
  62   1.0000      -0.383681       -10.4405 
  63   1.0000      -0.378461       -10.2984 
  64   1.0000      -0.377411       -10.2699 
  65   1.0000      -0.365157        -9.9364 
  66   1.0000      -0.361671        -9.8416 
  67   1.0000      -0.356493        -9.7007 
  68   1.0000      -0.354257        -9.6398 
  69   1.0000      -0.350720        -9.5436 
  70   1.0000      -0.340258        -9.2589 
  71   1.0000      -0.332440        -9.0461 
  72   1.0000      -0.332059        -9.0358 
  73   1.0000      -0.330390        -8.9904 
  74   1.0000      -0.327756        -8.9187 
  75   1.0000      -0.324233        -8.8228 
  76   1.0000      -0.321825        -8.7573 
  77   1.0000      -0.297303        -8.0900 
  78   1.0000      -0.275187        -7.4882 
  79   1.0000      -0.273490        -7.4420 
  80   1.0000      -0.268633        -7.3099 
  81   1.0000      -0.258818        -7.0428 
  82   1.0000      -0.255679        -6.9574 
  83   1.0000      -0.214608        -5.8398 
  84   1.0000      -0.173102        -4.7103 
  85   0.0000      -0.060121        -1.6360 
  86   0.0000      -0.010505        -0.2859 
  87   0.0000      -0.008895        -0.2420 
  88   0.0000       0.016578         0.4511 
  89   0.0000       0.041852         1.1389 
  90   0.0000       0.050851         1.3837 
  91   0.0000       0.054268         1.4767 
  92   0.0000       0.063145         1.7183 
  93   0.0000       0.064595         1.7577 
  94   0.0000       0.065642         1.7862 
  95   0.0000       0.078675         2.1408 
  96   0.0000       0.083494         2.2720 
  97   0.0000       0.088619         2.4114 
  98   0.0000       0.095050         2.5864 
  99   0.0000       0.095665         2.6032 
 100   0.0000       0.099119         2.6972 
 101   0.0000       0.102569         2.7910 
 102   0.0000       0.103775         2.8239 
 103   0.0000       0.113650         3.0926 
 104   0.0000       0.120494         3.2788 
 105   0.0000       0.125828         3.4240 
 106   0.0000       0.130162         3.5419 
 107   0.0000       0.138185         3.7602 
 108   0.0000       0.143094         3.8938 
 109   0.0000       0.147084         4.0024 
 110   0.0000       0.151757         4.1295 
 111   0.0000       0.155353         4.2274 
 112   0.0000       0.158292         4.3074 
 113   0.0000       0.160415         4.3651 
 114   0.0000       0.161473         4.3939 
 115   0.0000       0.165123         4.4932 
 116   0.0000       0.172950         4.7062 
 117   0.0000       0.175682         4.7805 
 118   0.0000       0.183209         4.9854 
 119   0.0000       0.204166         5.5556 
 120   0.0000       0.211903         5.7662 
 121   0.0000       0.212459         5.7813 
 122   0.0000       0.217828         5.9274 
 123   0.0000       0.222503         6.0546 
 124   0.0000       0.224271         6.1027 
 125   0.0000       0.243536         6.6270 
 126   0.0000       0.249801         6.7974 
 127   0.0000       0.265666         7.2291 
 128   0.0000       0.267852         7.2886 
 129   0.0000       0.278865         7.5883 
 130   0.0000       0.285964         7.7815 
 131   0.0000       0.292026         7.9464 
 132   0.0000       0.306605         8.3432 
 133   0.0000       0.314097         8.5470 
 134   0.0000       0.318661         8.6712 
 135   0.0000       0.332101         9.0369 
 136   0.0000       0.348624         9.4865 
 137   0.0000       0.361087         9.8257 
 138   0.0000       0.365444         9.9442 
 139   0.0000       0.378880        10.3099 
 140   0.0000       0.391012        10.6400 
 141   0.0000       0.406146        11.0518 
 142   0.0000       0.411727        11.2037 
 143   0.0000       0.413567        11.2537 
 144   0.0000       0.419554        11.4166 
 145   0.0000       0.421964        11.4822 
 146   0.0000       0.430491        11.7143 
 147   0.0000       0.441036        12.0012 
 148   0.0000       0.441195        12.0055 
 149   0.0000       0.449903        12.2425 
 150   0.0000       0.451783        12.2936 
 151   0.0000       0.454147        12.3580 
 152   0.0000       0.462720        12.5912 
 153   0.0000       0.472370        12.8538 
 154   0.0000       0.473255        12.8779 
 155   0.0000       0.475029        12.9262 
 156   0.0000       0.476759        12.9733 
 157   0.0000       0.481034        13.0896 
 158   0.0000       0.491032        13.3617 
 159   0.0000       0.499572        13.5941 
 160   0.0000       0.499664        13.5966 
 161   0.0000       0.503022        13.6879 
 162   0.0000       0.506701        13.7880 
 163   0.0000       0.508684        13.8420 
 164   0.0000       0.514032        13.9875 
 165   0.0000       0.515625        14.0309 
 166   0.0000       0.517248        14.0750 
 167   0.0000       0.521707        14.1964 
 168   0.0000       0.525358        14.2957 
 169   0.0000       0.529672        14.4131 
 170   0.0000       0.534617        14.5477 
 171   0.0000       0.551044        14.9947 
 172   0.0000       0.552728        15.0405 
 173   0.0000       0.558217        15.1899 
 174   0.0000       0.569469        15.4960 
 175   0.0000       0.575656        15.6644 
 176   0.0000       0.585297        15.9267 
 177   0.0000       0.589587        16.0435 
 178   0.0000       0.592086        16.1115 
 179   0.0000       0.599032        16.3005 
 180   0.0000       0.601127        16.3575 
 181   0.0000       0.608860        16.5679 
 182   0.0000       0.609582        16.5876 
 183   0.0000       0.625080        17.0093 
 184   0.0000       0.625930        17.0324 
 185   0.0000       0.632684        17.2162 
 186   0.0000       0.638154        17.3651 
 187   0.0000       0.638375        17.3711 
 188   0.0000       0.643350        17.5065 
 189   0.0000       0.644074        17.5261 
 190   0.0000       0.645769        17.5723 
 191   0.0000       0.651622        17.7315 
 192   0.0000       0.655597        17.8397 
 193   0.0000       0.656025        17.8514 
 194   0.0000       0.661307        17.9951 
 195   0.0000       0.661930        18.0120 
 196   0.0000       0.665716        18.1151 
 197   0.0000       0.666357        18.1325 
 198   0.0000       0.666407        18.1339 
 199   0.0000       0.669526        18.2187 
 200   0.0000       0.678334        18.4584 
 201   0.0000       0.678369        18.4594 
 202   0.0000       0.683460        18.5979 
 203   0.0000       0.686682        18.6856 
 204   0.0000       0.691149        18.8071 
 205   0.0000       0.694071        18.8866 
 206   0.0000       0.695082        18.9142 
 207   0.0000       0.704832        19.1795 
 208   0.0000       0.711346        19.3567 
 209   0.0000       0.714215        19.4348 
 210   0.0000       0.723440        19.6858 
 211   0.0000       0.727700        19.8017 
 212   0.0000       0.733534        19.9605 
 213   0.0000       0.734193        19.9784 
 214   0.0000       0.736944        20.0533 
 215   0.0000       0.750672        20.4268 
 216   0.0000       0.754905        20.5420 
 217   0.0000       0.759432        20.6652 
 218   0.0000       0.769119        20.9288 
 219   0.0000       0.775807        21.1108 
 220   0.0000       0.780608        21.2414 
 221   0.0000       0.795297        21.6411 
 222   0.0000       0.802122        21.8268 
 223   0.0000       0.818817        22.2812 
 224   0.0000       0.829451        22.5705 
 225   0.0000       0.833708        22.6863 
 226   0.0000       0.848447        23.0874 
 227   0.0000       0.853762        23.2320 
 228   0.0000       0.862641        23.4736 
 229   0.0000       0.869671        23.6649 
 230   0.0000       0.875394        23.8207 
 231   0.0000       0.882237        24.0069 
 232   0.0000       0.900586        24.5062 
 233   0.0000       0.908942        24.7336 
 234   0.0000       0.911125        24.7930 
 235   0.0000       0.915853        24.9216 
 236   0.0000       0.935350        25.4522 
 237   0.0000       0.935428        25.4543 
 238   0.0000       0.945938        25.7403 
 239   0.0000       0.954981        25.9864 
 240   0.0000       0.976386        26.5688 
 241   0.0000       0.977209        26.5912 
 242   0.0000       0.979190        26.6451 
 243   0.0000       0.982517        26.7356 
 244   0.0000       0.993389        27.0315 
 245   0.0000       0.995743        27.0955 
 246   0.0000       1.001533        27.2531 
 247   0.0000       1.009065        27.4580 
 248   0.0000       1.029593        28.0166 
 249   0.0000       1.030325        28.0366 
 250   0.0000       1.031279        28.0625 
 251   0.0000       1.038721        28.2650 
 252   0.0000       1.038800        28.2672 
 253   0.0000       1.053089        28.6560 
 254   0.0000       1.058395        28.8004 
 255   0.0000       1.062966        28.9248 
 256   0.0000       1.065798        29.0019 
 257   0.0000       1.079921        29.3862 
 258   0.0000       1.096896        29.8480 
 259   0.0000       1.106449        30.1080 
 260   0.0000       1.116627        30.3850 
 261   0.0000       1.128045        30.6957 
 262   0.0000       1.143320        31.1113 
 263   0.0000       1.149276        31.2734 
 264   0.0000       1.167574        31.7713 
 265   0.0000       1.186287        32.2805 
 266   0.0000       1.199692        32.6453 
 267   0.0000       1.205526        32.8040 
 268   0.0000       1.208647        32.8889 
 269   0.0000       1.213723        33.0271 
 270   0.0000       1.215750        33.0822 
 271   0.0000       1.220938        33.2234 
 272   0.0000       1.223210        33.2852 
 273   0.0000       1.230829        33.4925 
 274   0.0000       1.232557        33.5396 
 275   0.0000       1.255550        34.1653 
 276   0.0000       1.277237        34.7554 
 277   0.0000       1.292894        35.1814 
 278   0.0000       1.293869        35.2080 
 279   0.0000       1.297781        35.3144 
 280   0.0000       1.311526        35.6884 
 281   0.0000       1.320036        35.9200 
 282   0.0000       1.327396        36.1203 
 283   0.0000       1.338511        36.4227 
 284   0.0000       1.344792        36.5937 
 285   0.0000       1.362500        37.0755 
 286   0.0000       1.376869        37.4665 
 287   0.0000       1.381789        37.6004 
 288   0.0000       1.393761        37.9262 
 289   0.0000       1.395823        37.9823 
 290   0.0000       1.401349        38.1327 
 291   0.0000       1.424146        38.7530 
 292   0.0000       1.425493        38.7896 
 293   0.0000       1.425784        38.7976 
 294   0.0000       1.427045        38.8319 
 295   0.0000       1.430685        38.9309 
 296   0.0000       1.443150        39.2701 
 297   0.0000       1.453744        39.5584 
 298   0.0000       1.464619        39.8543 
 299   0.0000       1.473707        40.1016 
 300   0.0000       1.475609        40.1534 
 301   0.0000       1.481559        40.3153 
 302   0.0000       1.484159        40.3860 
 303   0.0000       1.486267        40.4434 
 304   0.0000       1.499565        40.8052 
 305   0.0000       1.504138        40.9297 
 306   0.0000       1.509287        41.0698 
 307   0.0000       1.520789        41.3828 
 308   0.0000       1.533088        41.7175 
 309   0.0000       1.541203        41.9383 
 310   0.0000       1.556617        42.3577 
 311   0.0000       1.569686        42.7133 
 312   0.0000       1.581254        43.0281 
 313   0.0000       1.586757        43.1779 
 314   0.0000       1.596186        43.4344 
 315   0.0000       1.597905        43.4812 
 316   0.0000       1.598776        43.5049 
 317   0.0000       1.608216        43.7618 
 318   0.0000       1.611166        43.8421 
 319   0.0000       1.617269        44.0081 
 320   0.0000       1.624718        44.2108 
 321   0.0000       1.627898        44.2974 
 322   0.0000       1.631082        44.3840 
 323   0.0000       1.635344        44.5000 
 324   0.0000       1.639070        44.6014 
 325   0.0000       1.639510        44.6133 
 326   0.0000       1.646549        44.8049 
 327   0.0000       1.646691        44.8087 
 328   0.0000       1.650455        44.9112 
 329   0.0000       1.651774        44.9471 
 330   0.0000       1.660259        45.1780 
 331   0.0000       1.670298        45.4511 
 332   0.0000       1.671617        45.4870 
 333   0.0000       1.677186        45.6386 
 334   0.0000       1.681852        45.7655 
 335   0.0000       1.686988        45.9053 
 336   0.0000       1.687718        45.9251 
 337   0.0000       1.692864        46.0652 
 338   0.0000       1.698051        46.2063 
 339   0.0000       1.701096        46.2892 
 340   0.0000       1.704539        46.3829 
 341   0.0000       1.705770        46.4164 
 342   0.0000       1.709258        46.5113 
 343   0.0000       1.718177        46.7540 
 344   0.0000       1.721967        46.8571 
 345   0.0000       1.735105        47.2146 
 346   0.0000       1.738541        47.3081 
 347   0.0000       1.741560        47.3903 
 348   0.0000       1.745252        47.4907 
 349   0.0000       1.760854        47.9153 
 350   0.0000       1.770230        48.1704 
 351   0.0000       1.772190        48.2238 
 352   0.0000       1.781670        48.4817 
 353   0.0000       1.784704        48.5643 
 354   0.0000       1.788849        48.6770 
 355   0.0000       1.794520        48.8314 
 356   0.0000       1.797613        48.9155 
 357   0.0000       1.803447        49.0743 
 358   0.0000       1.806504        49.1575 
 359   0.0000       1.818008        49.4705 
 360   0.0000       1.826242        49.6946 
 361   0.0000       1.826768        49.7089 
 362   0.0000       1.835330        49.9419 
 363   0.0000       1.841258        50.1032 
 364   0.0000       1.848479        50.2997 
 365   0.0000       1.848685        50.3053 
 366   0.0000       1.852773        50.4165 
 367   0.0000       1.862969        50.6940 
 368   0.0000       1.874190        50.9993 
 369   0.0000       1.884445        51.2783 
 370   0.0000       1.892229        51.4902 
 371   0.0000       1.901586        51.7448 
 372   0.0000       1.911302        52.0092 
 373   0.0000       1.922538        52.3149 
 374   0.0000       1.924859        52.3781 
 375   0.0000       1.932852        52.5956 
 376   0.0000       1.949849        53.0581 
 377   0.0000       1.957238        53.2592 
 378   0.0000       1.963752        53.4364 
 379   0.0000       1.972636        53.6782 
 380   0.0000       1.978850        53.8472 
 381   0.0000       1.989293        54.1314 
 382   0.0000       1.994210        54.2652 
 383   0.0000       1.994563        54.2748 
 384   0.0000       2.018781        54.9338 
 385   0.0000       2.034923        55.3731 
 386   0.0000       2.040953        55.5372 
 387   0.0000       2.051589        55.8266 
 388   0.0000       2.066294        56.2267 
 389   0.0000       2.075869        56.4873 
 390   0.0000       2.078336        56.5544 
 391   0.0000       2.088319        56.8261 
 392   0.0000       2.108095        57.3642 
 393   0.0000       2.118414        57.6450 
 394   0.0000       2.130137        57.9640 
 395   0.0000       2.140119        58.2356 
 396   0.0000       2.155635        58.6578 
 397   0.0000       2.156064        58.6695 
 398   0.0000       2.172881        59.1271 
 399   0.0000       2.192128        59.6508 
 400   0.0000       2.192314        59.6559 
 401   0.0000       2.198104        59.8134 
 402   0.0000       2.210285        60.1449 
 403   0.0000       2.226821        60.5949 
 404   0.0000       2.230832        60.7040 
 405   0.0000       2.231793        60.7302 
 406   0.0000       2.235520        60.8316 
 407   0.0000       2.248447        61.1833 
 408   0.0000       2.273816        61.8737 
 409   0.0000       2.282049        62.0977 
 410   0.0000       2.301416        62.6247 
 411   0.0000       2.303969        62.6942 
 412   0.0000       2.305097        62.7249 
 413   0.0000       2.321760        63.1783 
 414   0.0000       2.329227        63.3815 
 415   0.0000       2.342337        63.7382 
 416   0.0000       2.359586        64.2076 
 417   0.0000       2.371021        64.5188 
 418   0.0000       2.377943        64.7071 
 419   0.0000       2.408234        65.5314 
 420   0.0000       2.408618        65.5418 
 421   0.0000       2.410943        65.6051 
 422   0.0000       2.414020        65.6888 
 423   0.0000       2.414510        65.7021 
 424   0.0000       2.418532        65.8116 
 425   0.0000       2.419976        65.8509 
 426   0.0000       2.429229        66.1027 
 427   0.0000       2.437586        66.3301 
 428   0.0000       2.449766        66.6615 
 429   0.0000       2.452112        66.7254 
 430   0.0000       2.484211        67.5988 
 431   0.0000       2.506366        68.2017 
 432   0.0000       2.522681        68.6457 
 433   0.0000       2.544905        69.2504 
 434   0.0000       2.548705        69.3538 
 435   0.0000       2.559991        69.6609 
 436   0.0000       2.580741        70.2255 
 437   0.0000       2.601410        70.7880 
 438   0.0000       2.615819        71.1801 
 439   0.0000       2.625498        71.4434 
 440   0.0000       2.637601        71.7728 
 441   0.0000       2.642546        71.9073 
 442   0.0000       2.653510        72.2057 
 443   0.0000       2.681308        72.9621 
 444   0.0000       2.712201        73.8027 
 445   0.0000       2.713667        73.8426 
 446   0.0000       2.719287        73.9956 
 447   0.0000       2.723447        74.1088 
 448   0.0000       2.733623        74.3857 
 449   0.0000       2.781788        75.6963 
 450   0.0000       2.806571        76.3707 
 451   0.0000       2.844388        77.3997 
 452   0.0000       2.863617        77.9230 
 453   0.0000       2.876541        78.2747 
 454   0.0000       2.892796        78.7170 
 455   0.0000       2.997117        81.5557 
 456   0.0000       3.074279        83.6554 
 457   0.0000       3.096015        84.2468 
 458   0.0000       3.202981        87.1575 
 459   0.0000       3.395464        92.3953 
 460   0.0000       3.584040        97.5267 

                 SPIN DOWN ORBITALS
  NO   OCC          E(Eh)            E(eV) 
   0   1.0000     -10.216590      -278.0075 
   1   1.0000     -10.213425      -277.9214 
   2   1.0000     -10.210014      -277.8286 
   3   1.0000     -10.200852      -277.5793 
   4   1.0000     -10.198666      -277.5198 
   5   1.0000     -10.197497      -277.4880 
   6   1.0000     -10.197384      -277.4849 
   7   1.0000     -10.196355      -277.4569 
   8   1.0000     -10.195684      -277.4387 
   9   1.0000     -10.195519      -277.4342 
  10   1.0000     -10.191698      -277.3302 
  11   1.0000     -10.191164      -277.3157 
  12   1.0000     -10.190235      -277.2904 
  13   1.0000     -10.190067      -277.2858 
  14   1.0000     -10.188648      -277.2472 
  15   1.0000     -10.187617      -277.2192 
  16   1.0000     -10.187109      -277.2053 
  17   1.0000     -10.183796      -277.1152 
  18   1.0000     -10.183555      -277.1086 
  19   1.0000     -10.182084      -277.0686 
  20   1.0000     -10.182041      -277.0674 
  21   1.0000     -10.181728      -277.0589 
  22   1.0000     -10.176960      -276.9292 
  23   1.0000     -10.175689      -276.8946 
  24   1.0000      -0.870374       -23.6841 
  25   1.0000      -0.863544       -23.4982 
  26   1.0000      -0.814979       -22.1767 
  27   1.0000      -0.796703       -21.6794 
  28   1.0000      -0.794172       -21.6105 
  29   1.0000      -0.777956       -21.1693 
  30   1.0000      -0.765700       -20.8358 
  31   1.0000      -0.751323       -20.4445 
  32   1.0000      -0.742975       -20.2174 
  33   1.0000      -0.726381       -19.7658 
  34   1.0000      -0.712214       -19.3803 
  35   1.0000      -0.695388       -18.9225 
  36   1.0000      -0.653555       -17.7841 
  37   1.0000      -0.641816       -17.4647 
  38   1.0000      -0.617146       -16.7934 
  39   1.0000      -0.609348       -16.5812 
  40   1.0000      -0.608740       -16.5647 
  41   1.0000      -0.591504       -16.0956 
  42   1.0000      -0.578302       -15.7364 
  43   1.0000      -0.558711       -15.2033 
  44   1.0000      -0.540566       -14.7096 
  45   1.0000      -0.528004       -14.3677 
  46   1.0000      -0.504069       -13.7164 
  47   1.0000      -0.488271       -13.2865 
  48   1.0000      -0.479805       -13.0562 
  49   1.0000      -0.475146       -12.9294 
  50   1.0000      -0.469938       -12.7877 
  51   1.0000      -0.458538       -12.4775 
  52   1.0000      -0.458020       -12.4634 
  53   1.0000      -0.436852       -11.8874 
  54   1.0000      -0.429942       -11.6993 
  55   1.0000      -0.427940       -11.6448 
  56   1.0000      -0.424912       -11.5624 
  57   1.0000      -0.424468       -11.5504 
  58   1.0000      -0.419367       -11.4116 
  59   1.0000      -0.411286       -11.1916 
  60   1.0000      -0.396683       -10.7943 
  61   1.0000      -0.390537       -10.6271 
  62   1.0000      -0.383144       -10.4259 
  63   1.0000      -0.376141       -10.2353 
  64   1.0000      -0.374172       -10.1817 
  65   1.0000      -0.364015        -9.9054 
  66   1.0000      -0.361621        -9.8402 
  67   1.0000      -0.355657        -9.6779 
  68   1.0000      -0.351158        -9.5555 
  69   1.0000      -0.350752        -9.5445 
  70   1.0000      -0.337993        -9.1973 
  71   1.0000      -0.331905        -9.0316 
  72   1.0000      -0.330672        -8.9980 
  73   1.0000      -0.328123        -8.9287 
  74   1.0000      -0.327394        -8.9089 
  75   1.0000      -0.323411        -8.8005 
  76   1.0000      -0.321464        -8.7475 
  77   1.0000      -0.294152        -8.0043 
  78   1.0000      -0.272858        -7.4249 
  79   1.0000      -0.268458        -7.3051 
  80   1.0000      -0.261329        -7.1111 
  81   1.0000      -0.259220        -7.0537 
  82   1.0000      -0.252324        -6.8661 
  83   1.0000      -0.207340        -5.6420 
  84   0.0000      -0.082815        -2.2535 
  85   0.0000      -0.052280        -1.4226 
  86   0.0000      -0.010857        -0.2954 
  87   0.0000      -0.007236        -0.1969 
  88   0.0000       0.034250         0.9320 
  89   0.0000       0.042278         1.1504 
  90   0.0000       0.051205         1.3933 
  91   0.0000       0.054276         1.4769 
  92   0.0000       0.063383         1.7247 
  93   0.0000       0.064910         1.7663 
  94   0.0000       0.070788         1.9262 
  95   0.0000       0.078779         2.1437 
  96   0.0000       0.084351         2.2953 
  97   0.0000       0.089314         2.4303 
  98   0.0000       0.095574         2.6007 
  99   0.0000       0.095773         2.6061 
 100   0.0000       0.099506         2.7077 
 101   0.0000       0.103254         2.8097 
 102   0.0000       0.104869         2.8536 
 103   0.0000       0.113766         3.0957 
 104   0.0000       0.121895         3.3169 
 105   0.0000       0.126219         3.4346 
 106   0.0000       0.130258         3.5445 
 107   0.0000       0.138237         3.7616 
 108   0.0000       0.143227         3.8974 
 109   0.0000       0.149595         4.0707 
 110   0.0000       0.152764         4.1569 
 111   0.0000       0.155566         4.2332 
 112   0.0000       0.159433         4.3384 
 113   0.0000       0.161045         4.3823 
 114   0.0000       0.162012         4.4086 
 115   0.0000       0.166852         4.5403 
 116   0.0000       0.173766         4.7284 
 117   0.0000       0.176215         4.7951 
 118   0.0000       0.188554         5.1308 
 119   0.0000       0.205181         5.5832 
 120   0.0000       0.213304         5.8043 
 121   0.0000       0.215222         5.8565 
 122   0.0000       0.218680         5.9506 
 123   0.0000       0.222699         6.0599 
 124   0.0000       0.225651         6.1403 
 125   0.0000       0.244858         6.6629 
 126   0.0000       0.252291         6.8652 
 127   0.0000       0.268345         7.3020 
 128   0.0000       0.268988         7.3195 
 129   0.0000       0.278851         7.5879 
 130   0.0000       0.286420         7.7939 
 131   0.0000       0.292593         7.9619 
 132   0.0000       0.307853         8.3771 
 133   0.0000       0.314678         8.5628 
 134   0.0000       0.321728         8.7547 
 135   0.0000       0.333029         9.0622 
 136   0.0000       0.349083         9.4990 
 137   0.0000       0.361619         9.8402 
 138   0.0000       0.367009         9.9868 
 139   0.0000       0.379049        10.3145 
 140   0.0000       0.392245        10.6735 
 141   0.0000       0.406344        11.0572 
 142   0.0000       0.412166        11.2156 
 143   0.0000       0.414072        11.2675 
 144   0.0000       0.419940        11.4271 
 145   0.0000       0.422756        11.5038 
 146   0.0000       0.432404        11.7663 
 147   0.0000       0.442755        12.0480 
 148   0.0000       0.450300        12.2533 
 149   0.0000       0.450779        12.2663 
 150   0.0000       0.455557        12.3963 
 151   0.0000       0.457344        12.4450 
 152   0.0000       0.467493        12.7211 
 153   0.0000       0.473453        12.8833 
 154   0.0000       0.475542        12.9401 
 155   0.0000       0.475920        12.9504 
 156   0.0000       0.480248        13.0682 
 157   0.0000       0.484458        13.1828 
 158   0.0000       0.493082        13.4174 
 159   0.0000       0.501031        13.6337 
 160   0.0000       0.501487        13.6462 
 161   0.0000       0.503390        13.6979 
 162   0.0000       0.507268        13.8035 
 163   0.0000       0.508964        13.8496 
 164   0.0000       0.514275        13.9941 
 165   0.0000       0.515735        14.0339 
 166   0.0000       0.521300        14.1853 
 167   0.0000       0.522943        14.2300 
 168   0.0000       0.528613        14.3843 
 169   0.0000       0.531744        14.4695 
 170   0.0000       0.536511        14.5992 
 171   0.0000       0.553299        15.0560 
 172   0.0000       0.559551        15.2262 
 173   0.0000       0.567810        15.4509 
 174   0.0000       0.572424        15.5764 
 175   0.0000       0.576256        15.6807 
 176   0.0000       0.586266        15.9531 
 177   0.0000       0.592519        16.1233 
 178   0.0000       0.593982        16.1631 
 179   0.0000       0.600498        16.3404 
 180   0.0000       0.601976        16.3806 
 181   0.0000       0.609930        16.5970 
 182   0.0000       0.610445        16.6111 
 183   0.0000       0.626504        17.0480 
 184   0.0000       0.628973        17.1152 
 185   0.0000       0.633128        17.2283 
 186   0.0000       0.638512        17.3748 
 187   0.0000       0.638546        17.3757 
 188   0.0000       0.644432        17.5359 
 189   0.0000       0.646427        17.5902 
 190   0.0000       0.646621        17.5955 
[...]
  Y           0.6014382           -0.0003866            0.7989193
  Z          -0.0002277           -0.9999999           -0.0003125

Notes:  (1) The A matrix conforms to the "SAI" spin Hamiltonian convention.
        (2) Tensor is right-handed.

 -----------------------------------------------------------
 Nucleus  46H : A:ISTP=    1 I=  0.5 P=533.5514 MHz/au**3
                Q:ISTP=    2 I=  1.0 Q=  0.0029 barn     
 -----------------------------------------------------------
 Solving for nuclear perturbation:
Forming RHS of the CP-SCF equations         ... 
Calc. nucleus orbit integrals (SHARK)       ... done

------------------------------------------------------------------------------
                           ORCA CP-SCF CALCULATION
------------------------------------------------------------------------------

Input orbitals are from        ... cc-pVDZ.gbw
Input Perturbation             ... cc-pVDZ.pin.tmp
Wavefunction output            ... cc-pVDZ.pout.tmp
Perturbation mode              ... Imaginary perturbation
Solver                         ... POPLE
Max. number of iterations      ... 64
Convergence tolerance          ... 1.000e-03
Integral handling              ... Direct
DFT GridXC                     ... 1
COSX GridX                     ... 1
COSX IntAccX                   ... 3.067
COSX Algorithm                 ... Auto
Number of perturbations        ... 3
Number of operators            ... 2
Orbital ranges used for CP-SCF:
 Operator 0:  Orbitals   0... 84  to  85...460
 Operator 1:  Orbitals   0... 83  to  84...460
Variables per perturbation     ... 63628
DFT calculation                         ... on
XC functional terms                     ... off
Hybrid DFT                              ... on
   Exchange mixing (SCF)                ...  0.200
   Exchange mixing (CP-SCF)             ...  0.200
   GGA exch. scaling(SCF)               ...  0.720
   GGA exch. scaling (CP-SCF)           ...  0.720
   GGA corr. scaling (SCF)              ...  0.810
   GGA corr. scaling (CP-SCF)           ...  0.810

CP-SCF GRID
-----------

General Integration Accuracy     IntAcc      ... 3.467
Radial Grid Type                 RadialGrid  ... OptM3 with GC (2021)
Angular Grid (max. ang.)         AngularGrid ... 1 (Lebedev-50)
Angular grid pruning method      GridPruning ... 4 (adaptive)
Weight generation scheme         WeightScheme... Becke
Basis function cutoff            BFCut       ... 1.0000e-10
Integration weight cutoff        WCut        ... 1.0000e-14
Angular grids for H and He will be reduced by one unit
Partially contracted basis set               ... off
Rotationally invariant grid construction     ... off

Total number of grid points                  ...    31887
Total number of batches                      ...      520
Average number of points per batch           ...       61
Average number of grid points per atom       ...      651

CP-SCF GRIDX
------------

General Integration Accuracy     IntAcc      ... 3.067
Radial Grid Type                 RadialGrid  ... OptM3 with GC (2021)
Angular Grid (max. ang.)         AngularGrid ... 1 (Lebedev-50)
Angular grid pruning method      GridPruning ... 4 (adaptive)
Weight generation scheme         WeightScheme... Becke
Basis function cutoff            BFCut       ... 1.0000e-10
Integration weight cutoff        WCut        ... 1.0000e-14
Angular grids for H and He will be reduced by one unit
Partially contracted basis set               ... on
Rotationally invariant grid construction     ... off

Total number of grid points                  ...    14950
Total number of batches                      ...      265
Average number of points per batch           ...       56
Average number of grid points per atom       ...      305

Memory available               ... 876.0 MB
Memory needed per perturbation ...  13.4 MB
Perturbations treated per batch... 3
Number of batches              ... 1
     CP-SCF ITERATION   0:   4.5377e-02 (   1.8 sec   0/  3 done)
     CP-SCF ITERATION   1:   1.9121e-03 (   2.1 sec   0/  3 done)
     CP-SCF ITERATION   2:   1.3373e-04 (   2.0 sec   3/  3 done)
                    *** THE CP-SCF HAS CONVERGED ***

Forming final perturbed densities           ... done
Transforming perturbed density to AO basis  ... done

 Raw HFC matrix (all values in MHz): 
 -----------------------------------
                 1.2942              -0.2926              -0.0001
                -0.2924               0.1374               0.0000
                -0.0001               0.0000               0.4716

 A(FC)           0.6344               0.6344               0.6344
 A(SD)          -0.5667              -0.1629               0.7296
 A(ORB+DIA)     -0.0001               0.0001              -0.0001    A(PC) =  -0.0000
 A(ORB)         -0.0001              -0.0000              -0.0001    A(PC) =  -0.0001
 A(DIA)         -0.0000               0.0001               0.0000    A(PC) =   0.0000
             ----------           ----------           ----------
 A(Tot)          0.0676               0.4716               1.3640    A(iso)=    0.6344
 Orientation: 
  X           0.2319961           -0.0000987           -0.9727167
  Y           0.9727167            0.0000070            0.2319961
  Z          -0.0000161           -1.0000000            0.0000976

Notes:  (1) The A matrix conforms to the "SAI" spin Hamiltonian convention.
        (2) Tensor is right-handed.

 -----------------------------------------------------------
 Nucleus  47H : A:ISTP=    1 I=  0.5 P=533.5514 MHz/au**3
                Q:ISTP=    2 I=  1.0 Q=  0.0029 barn     
 -----------------------------------------------------------
 Solving for nuclear perturbation:
Forming RHS of the CP-SCF equations         ... 
Calc. nucleus orbit integrals (SHARK)       ... done

------------------------------------------------------------------------------
                           ORCA CP-SCF CALCULATION
------------------------------------------------------------------------------

Input orbitals are from        ... cc-pVDZ.gbw
Input Perturbation             ... cc-pVDZ.pin.tmp
Wavefunction output            ... cc-pVDZ.pout.tmp
Perturbation mode              ... Imaginary perturbation
Solver                         ... POPLE
Max. number of iterations      ... 64
Convergence tolerance          ... 1.000e-03
Integral handling              ... Direct
DFT GridXC                     ... 1
COSX GridX                     ... 1
COSX IntAccX                   ... 3.067
COSX Algorithm                 ... Auto
Number of perturbations        ... 3
Number of operators            ... 2
Orbital ranges used for CP-SCF:
 Operator 0:  Orbitals   0... 84  to  85...460
 Operator 1:  Orbitals   0... 83  to  84...460
Variables per perturbation     ... 63628
DFT calculation                         ... on
XC functional terms                     ... off
Hybrid DFT                              ... on
   Exchange mixing (SCF)                ...  0.200
   Exchange mixing (CP-SCF)             ...  0.200
   GGA exch. scaling(SCF)               ...  0.720
   GGA exch. scaling (CP-SCF)           ...  0.720
   GGA corr. scaling (SCF)              ...  0.810
   GGA corr. scaling (CP-SCF)           ...  0.810

CP-SCF GRID
-----------

General Integration Accuracy     IntAcc      ... 3.467
Radial Grid Type                 RadialGrid  ... OptM3 with GC (2021)
Angular Grid (max. ang.)         AngularGrid ... 1 (Lebedev-50)
Angular grid pruning method      GridPruning ... 4 (adaptive)
Weight generation scheme         WeightScheme... Becke
Basis function cutoff            BFCut       ... 1.0000e-10
Integration weight cutoff        WCut        ... 1.0000e-14
Angular grids for H and He will be reduced by one unit
Partially contracted basis set               ... off
Rotationally invariant grid construction     ... off

Total number of grid points                  ...    31887
Total number of batches                      ...      520
Average number of points per batch           ...       61
Average number of grid points per atom       ...      651

CP-SCF GRIDX
------------

General Integration Accuracy     IntAcc      ... 3.067
Radial Grid Type                 RadialGrid  ... OptM3 with GC (2021)
Angular Grid (max. ang.)         AngularGrid ... 1 (Lebedev-50)
Angular grid pruning method      GridPruning ... 4 (adaptive)
Weight generation scheme         WeightScheme... Becke
Basis function cutoff            BFCut       ... 1.0000e-10
Integration weight cutoff        WCut        ... 1.0000e-14
Angular grids for H and He will be reduced by one unit
Partially contracted basis set               ... on
Rotationally invariant grid construction     ... off

Total number of grid points                  ...    14950
Total number of batches                      ...      265
Average number of points per batch           ...       56
Average number of grid points per atom       ...      305

Memory available               ... 875.5 MB
Memory needed per perturbation ...  13.4 MB
Perturbations treated per batch... 3
Number of batches              ... 1
     CP-SCF ITERATION   0:   4.5406e-02 (   1.8 sec   0/  3 done)
     CP-SCF ITERATION   1:   1.9106e-03 (   1.8 sec   0/  3 done)
     CP-SCF ITERATION   2:   1.3640e-04 (   1.8 sec   3/  3 done)
                    *** THE CP-SCF HAS CONVERGED ***

Forming final perturbed densities           ... done
Transforming perturbed density to AO basis  ... done

 Raw HFC matrix (all values in MHz): 
 -----------------------------------
                 1.1673               0.3810              -0.0001
                 0.3808               0.2170               0.0001
                -0.0001               0.0001               0.5194

 A(FC)           0.6346               0.6346               0.6346
 A(SD)          -0.5513              -0.1153               0.6666
 A(ORB+DIA)     -0.0001               0.0001              -0.0001    A(PC) =  -0.0001
 A(ORB)         -0.0001               0.0000              -0.0002    A(PC) =  -0.0001
 A(DIA)         -0.0000               0.0001               0.0000    A(PC) =   0.0000
             ----------           ----------           ----------
 A(Tot)          0.0832               0.5194               1.3011    A(iso)=    0.6346
 Orientation: 
  X          -0.3315211           -0.0000050            0.9434478
  Y           0.9434478            0.0001997            0.3315211
  Z          -0.0001900            1.0000000           -0.0000615

Notes:  (1) The A matrix conforms to the "SAI" spin Hamiltonian convention.
        (2) Tensor is right-handed.

 -----------------------------------------------------------
 Nucleus  48H : A:ISTP=    1 I=  0.5 P=533.5514 MHz/au**3
                Q:ISTP=    2 I=  1.0 Q=  0.0029 barn     
 -----------------------------------------------------------
 Solving for nuclear perturbation:
Forming RHS of the CP-SCF equations         ... 
Calc. nucleus orbit integrals (SHARK)       ... done

------------------------------------------------------------------------------
                           ORCA CP-SCF CALCULATION
------------------------------------------------------------------------------

Input orbitals are from        ... cc-pVDZ.gbw
Input Perturbation             ... cc-pVDZ.pin.tmp
Wavefunction output            ... cc-pVDZ.pout.tmp
Perturbation mode              ... Imaginary perturbation
Solver                         ... POPLE
Max. number of iterations      ... 64
Convergence tolerance          ... 1.000e-03
Integral handling              ... Direct
DFT GridXC                     ... 1
COSX GridX                     ... 1
COSX IntAccX                   ... 3.067
COSX Algorithm                 ... Auto
Number of perturbations        ... 3
Number of operators            ... 2
Orbital ranges used for CP-SCF:
 Operator 0:  Orbitals   0... 84  to  85...460
 Operator 1:  Orbitals   0... 83  to  84...460
Variables per perturbation     ... 63628
DFT calculation                         ... on
XC functional terms                     ... off
Hybrid DFT                              ... on
   Exchange mixing (SCF)                ...  0.200
   Exchange mixing (CP-SCF)             ...  0.200
   GGA exch. scaling(SCF)               ...  0.720
   GGA exch. scaling (CP-SCF)           ...  0.720
   GGA corr. scaling (SCF)              ...  0.810
   GGA corr. scaling (CP-SCF)           ...  0.810

CP-SCF GRID
-----------

General Integration Accuracy     IntAcc      ... 3.467
Radial Grid Type                 RadialGrid  ... OptM3 with GC (2021)
Angular Grid (max. ang.)         AngularGrid ... 1 (Lebedev-50)
Angular grid pruning method      GridPruning ... 4 (adaptive)
Weight generation scheme         WeightScheme... Becke
Basis function cutoff            BFCut       ... 1.0000e-10
Integration weight cutoff        WCut        ... 1.0000e-14
Angular grids for H and He will be reduced by one unit
Partially contracted basis set               ... off
Rotationally invariant grid construction     ... off

Total number of grid points                  ...    31887
Total number of batches                      ...      520
Average number of points per batch           ...       61
Average number of grid points per atom       ...      651

CP-SCF GRIDX
------------

General Integration Accuracy     IntAcc      ... 3.067
Radial Grid Type                 RadialGrid  ... OptM3 with GC (2021)
Angular Grid (max. ang.)         AngularGrid ... 1 (Lebedev-50)
Angular grid pruning method      GridPruning ... 4 (adaptive)
Weight generation scheme         WeightScheme... Becke
Basis function cutoff            BFCut       ... 1.0000e-10
Integration weight cutoff        WCut        ... 1.0000e-14
Angular grids for H and He will be reduced by one unit
Partially contracted basis set               ... on
Rotationally invariant grid construction     ... off

Total number of grid points                  ...    14950
Total number of batches                      ...      265
Average number of points per batch           ...       56
Average number of grid points per atom       ...      305

Memory available               ... 874.9 MB
Memory needed per perturbation ...  13.4 MB
Perturbations treated per batch... 3
Number of batches              ... 1
     CP-SCF ITERATION   0:   4.1556e-02 (   1.8 sec   0/  3 done)
     CP-SCF ITERATION   1:   1.6791e-03 (   1.9 sec   2/  3 done)
     CP-SCF ITERATION   2:   7.5523e-05 (   1.2 sec   3/  3 done)
                    *** THE CP-SCF HAS CONVERGED ***

Forming final perturbed densities           ... done
Transforming perturbed density to AO basis  ... done

 Raw HFC matrix (all values in MHz): 
 -----------------------------------
                -0.1718              -0.1032              -0.0001
                -0.1031              -0.3271              -0.0000
                -0.0001              -0.0000              -0.2734

 A(FC)          -0.2575              -0.2575              -0.2575
 A(SD)           0.1371              -0.0159              -0.1212
 A(ORB+DIA)      0.0001               0.0000               0.0000    A(PC) =   0.0000
 A(ORB)          0.0000               0.0000               0.0000    A(PC) =   0.0000
 A(DIA)          0.0000               0.0000               0.0000    A(PC) =   0.0000
             ----------           ----------           ----------
 A(Tot)         -0.1204              -0.2734              -0.3786    A(iso)=   -0.2575
 Orientation: 
  X           0.8947761           -0.0001196            0.4465151
  Y          -0.4465150            0.0004646            0.8947760
  Z          -0.0003144           -0.9999999            0.0003623

Notes:  (1) The A matrix conforms to the "SAI" spin Hamiltonian convention.
        (2) Tensor is right-handed.


--------------------------------------------------------------------------------
----------------------------------------------------------------------------
                           ORCA EULER ANGLE PROGRAM
----------------------------------------------------------------------------

Only g-tensor available        -->  using g-tensor as reference tensor

Reference tensor               ...  g

g-tensor ordering              ...  |g_min> --> |gx>
                                    |g_mid> --> |gy>
                                    |g_max> --> |gz>

A- and EFG-tensor ordering     ...  the axes |Ax>, |Qx>, |Ay>, etc. are assigned
                                    such that the Euler rotation is minimal. You
                                    can find the respective eigenvalues as Ax,
                                    EFGx, Ay, etc. in the tables below.
                                    The relation of |Ax>, |Ay>,  etc. to Amin, Amid, etc.
                                    (as printed in the ORCA EPR/NMR CALCULATION Output)
                                    is obtained in the detailed printout.

Euler rotation around          ...  z - y - z
   First rotation              -->  by alpha around z
   Second rotation             -->  by beta around y'
   Third rotation              -->  by gamma around z''
   Positive / Negative angle   -->  clockwise / counterclockwise rotation

Plot EFG-tensors                    (-)
Plot HFC-tensors                    (-)
Detailed Printout                   (-)

-------------------------------------------------------------------------
          Euler rotation of hyperfine tensor to g-tensor
-------------------------------------------------------------------------

-------------------------------------------------------------------
 Atom  |   Alpha    Beta    Gamma   |   Ax       Ay       Az 
       |          [degrees]         |           [MHz]         
-------------------------------------------------------------------
  9H      -90.0     31.9     90.0     -16.12    -7.00   -19.58
 10H      -90.0     34.5     90.0       3.96     4.67     9.44
 12H       90.0     17.7    -90.0     -46.51   -17.39   -71.54
 14H      -93.4     30.6    114.4      57.48    67.14    58.79
 15H      -86.9     30.6     66.0      57.34    67.00    58.66
 17H     -131.8     15.0    167.1      -3.20    -3.04     3.21
 18H      -49.0     14.8     13.7      -3.20    -3.04     3.20
 20H       67.1     28.2   -111.5      -0.10     0.02     2.26
 21H      113.1     28.1    -68.5      -0.10     0.02     2.26
 23H      -10.7     31.3     55.2      20.79    20.22    23.93
 24H     -169.3     31.3    124.9      20.78    20.22    23.92
 26H      105.8     33.1   -113.0      -0.99    -0.86     1.00
 27H       74.2     33.1    -66.9      -0.99    -0.86     1.00
 29H       37.1      8.6     -2.7      -0.10    -0.15     0.81
 30H      142.9      8.6   -177.2      -0.10    -0.15     0.81
 32H       71.6     19.9    -67.8      -0.13    -0.11     0.39
 33H      108.4     19.9   -112.1      -0.13    -0.11     0.39
 35H       90.1     12.0    -89.9      -7.87    -2.33   -10.82
 36H       89.6     10.1    -90.1      -0.80    -0.82     0.77
 37H       90.1      9.0    -90.0      -0.13    -0.13     0.24
 44H       89.9     16.3    -89.9       0.61     0.37     1.04
 45H      -90.0     33.4     90.0      -0.26    -0.42    -0.10
 46H       89.9      6.2    -89.9       0.47     1.36     0.07
 47H       90.0     39.0    -90.0       0.52     1.30     0.08
 48H      -89.7      6.9     89.8      -0.27    -0.12    -0.38
-------------------------------------------------------------------


Maximum memory used throughout the entire EPRNMR-calculation: 218.8 MB

Timings for individual modules:

Sum of individual times         ...     4822.163 sec (=  80.369 min)
GTO integral calculation        ...        6.038 sec (=   0.101 min)   0.1 %
Spin-Orbit-Coupling Matrices    ...        9.517 sec (=   0.159 min)   0.2 %
SCF iterations                  ...       31.082 sec (=   0.518 min)   0.6 %
EPR/NMR calculation             ...     4775.527 sec (=  79.592 min)  99.0 %
                             ****ORCA TERMINATED NORMALLY****
TOTAL RUN TIME: 0 days 1 hours 20 minutes 26 seconds 878 msec
