
                                 *****************
                                 * O   R   C   A *
                                 *****************

                                            #,                                       
                                            ###                                      
                                            ####                                     
                                            #####                                    
                                            ######                                   
                                           ########,                                 
                                     ,,################,,,,,                         
                               ,,#################################,,                 
                          ,,##########################################,,             
                       ,#########################################, ''#####,          
                    ,#############################################,,   '####,        
                  ,##################################################,,,,####,       
                ,###########''''           ''''###############################       
              ,#####''   ,,,,##########,,,,          '''####'''          '####       
            ,##' ,,,,###########################,,,                        '##       
           ' ,,###''''                  '''############,,,                           
         ,,##''                                '''############,,,,        ,,,,,,###''
      ,#''                                            '''#######################'''  
     '                                                          ''''####''''         
             ,#######,   #######,   ,#######,      ##                                
            ,#'     '#,  ##    ##  ,#'     '#,    #''#        ######   ,####,        
            ##       ##  ##   ,#'  ##            #'  '#       #        #'  '#        
            ##       ##  #######   ##           ,######,      #####,   #    #        
            '#,     ,#'  ##    ##  '#,     ,#' ,#      #,         ##   #,  ,#        
             '#######'   ##     ##  '#######'  #'      '#     #####' # '####'        



                  #######################################################
                  #                        -***-                        #
                  #          Department of theory and spectroscopy      #
                  #    Directorship and core code : Frank Neese         #
                  #        Max Planck Institute fuer Kohlenforschung    #
                  #                Kaiser Wilhelm Platz 1               #
                  #                 D-45470 Muelheim/Ruhr               #
                  #                      Germany                        #
                  #                                                     #
                  #                  All rights reserved                #
                  #                        -***-                        #
                  #######################################################


                         Program Version 5.0.4 -  RELEASE  -


 With contributions from (in alphabetic order):
   Daniel Aravena         : Magnetic Suceptibility
   Michael Atanasov       : Ab Initio Ligand Field Theory (pilot matlab implementation)
   Alexander A. Auer      : GIAO ZORA, VPT2 properties, NMR spectrum
   Ute Becker             : Parallelization
   Giovanni Bistoni       : ED, misc. LED, open-shell LED, HFLD
   Martin Brehm           : Molecular dynamics
   Dmytro Bykov           : SCF Hessian
   Vijay G. Chilkuri      : MRCI spin determinant printing, contributions to CSF-ICE
   Dipayan Datta          : RHF DLPNO-CCSD density
   Achintya Kumar Dutta   : EOM-CC, STEOM-CC
   Dmitry Ganyushin       : Spin-Orbit,Spin-Spin,Magnetic field MRCI
   Miquel Garcia          : C-PCM and meta-GGA Hessian, CC/C-PCM, Gaussian charge scheme
   Yang Guo               : DLPNO-NEVPT2, F12-NEVPT2, CIM, IAO-localization
   Andreas Hansen         : Spin unrestricted coupled pair/coupled cluster methods
   Benjamin Helmich-Paris : MC-RPA, TRAH-SCF, COSX integrals
   Lee Huntington         : MR-EOM, pCC
   Robert Izsak           : Overlap fitted RIJCOSX, COSX-SCS-MP3, EOM
   Marcus Kettner         : VPT2
   Christian Kollmar      : KDIIS, OOCD, Brueckner-CCSD(T), CCSD density, CASPT2, CASPT2-K
   Simone Kossmann        : Meta GGA functionals, TD-DFT gradient, OOMP2, MP2 Hessian
   Martin Krupicka        : Initial AUTO-CI
   Lucas Lang             : DCDCAS
   Marvin Lechner         : AUTO-CI (C++ implementation), FIC-MRCC
   Dagmar Lenk            : GEPOL surface, SMD
   Dimitrios Liakos       : Extrapolation schemes; Compound Job, initial MDCI parallelization
   Dimitrios Manganas     : Further ROCIS development; embedding schemes
   Dimitrios Pantazis     : SARC Basis sets
   Anastasios Papadopoulos: AUTO-CI, single reference methods and gradients
   Taras Petrenko         : DFT Hessian,TD-DFT gradient, ASA, ECA, R-Raman, ABS, FL, XAS/XES, NRVS
   Peter Pinski           : DLPNO-MP2, DLPNO-MP2 Gradient
   Christoph Reimann      : Effective Core Potentials
   Marius Retegan         : Local ZFS, SOC
   Christoph Riplinger    : Optimizer, TS searches, QM/MM, DLPNO-CCSD(T), (RO)-DLPNO pert. Triples
   Tobias Risthaus        : Range-separated hybrids, TD-DFT gradient, RPA, STAB
   Michael Roemelt        : Original ROCIS implementation
   Masaaki Saitow         : Open-shell DLPNO-CCSD energy and density
   Barbara Sandhoefer     : DKH picture change effects
   Avijit Sen             : IP-ROCIS
   Kantharuban Sivalingam : CASSCF convergence, NEVPT2, FIC-MRCI
   Bernardo de Souza      : ESD, SOC TD-DFT
   Georgi Stoychev        : AutoAux, RI-MP2 NMR, DLPNO-MP2 response
   Willem Van den Heuvel  : Paramagnetic NMR
   Boris Wezisla          : Elementary symmetry handling
   Frank Wennmohs         : Technical directorship


 We gratefully acknowledge several colleagues who have allowed us to
 interface, adapt or use parts of their codes:
   Stefan Grimme, W. Hujo, H. Kruse, P. Pracht,  : VdW corrections, initial TS optimization,
                  C. Bannwarth, S. Ehlert          DFT functionals, gCP, sTDA/sTD-DF
   Ed Valeev, F. Pavosevic, A. Kumar             : LibInt (2-el integral package), F12 methods
   Garnet Chan, S. Sharma, J. Yang, R. Olivares  : DMRG
   Ulf Ekstrom                                   : XCFun DFT Library
   Mihaly Kallay                                 : mrcc  (arbitrary order and MRCC methods)
   Jiri Pittner, Ondrej Demel                    : Mk-CCSD
   Frank Weinhold                                : gennbo (NPA and NBO analysis)
   Christopher J. Cramer and Donald G. Truhlar   : smd solvation model
   Lars Goerigk                                  : TD-DFT with DH, B97 family of functionals
   V. Asgeirsson, H. Jonsson                     : NEB implementation
   FAccTs GmbH                                   : IRC, NEB, NEB-TS, DLPNO-Multilevel, CI-OPT
                                                   MM, QMMM, 2- and 3-layer-ONIOM, Crystal-QMMM,
                                                   LR-CPCM, SF, NACMEs, symmetry and pop. for TD-DFT,
                                                   nearIR, NL-DFT gradient (VV10), updates on ESD,
                                                   ML-optimized integration grids
   S Lehtola, MJT Oliveira, MAL Marques          : LibXC Library
   Liviu Ungur et al                             : ANISO software


 Your calculation uses the libint2 library for the computation of 2-el integrals
 For citations please refer to: http://libint.valeyev.net

 Your ORCA version has been built with support for libXC version: 5.1.0
 For citations please refer to: https://tddft.org/programs/libxc/

 This ORCA versions uses:
   CBLAS   interface :  Fast vector & matrix operations
   LAPACKE interface :  Fast linear algebra routines
   SCALAPACK package :  Parallel linear algebra routines
   Shared memory     :  Shared parallel matrices
   BLAS/LAPACK       :  OpenBLAS 0.3.15  USE64BITINT DYNAMIC_ARCH NO_AFFINITY SkylakeX SINGLE_THREADED
        Core in use  :  SkylakeX
   Copyright (c) 2011-2014, The OpenBLAS Project




***************************************
The coordinates will be read from file: opt.xyz
***************************************


================================================================================

----- Orbital basis set information -----
Your calculation utilizes the basis: cc-pVDZ 
       H, B-Ne : Obtained from the ccRepo (grant-hill.group.shef.ac.uk/ccrepo) Feb. 2017
                 T. H. Dunning, Jr., J. Chem. Phys. 90, 1007 (1989)
            He : Obtained from the ccRepo (grant-hill.group.shef.ac.uk/ccrepo) Feb. 2017
                 D. E. Woon, T. H. Dunning, Jr., J. Chem. Phys. 100, 2975 (1994)
  Li-Be, Na-Mg : Obtained from the ccRepo (grant-hill.group.shef.ac.uk/ccrepo) Feb. 2017
                 B. P. Prascher, D. E. Woon, K. A. Peterson, T. H. Dunning, Jr., A. K. Wilson, Theor. Chem. Acc. 128, 69 (2011)
         Al-Ar : Obtained from the ccRepo (grant-hill.group.shef.ac.uk/ccrepo) Feb. 2017
                 D. E. Woon, T. H. Dunning, Jr., J. Chem. Phys. 98, 1358 (1993)
            Ca : Obtained from the Peterson Research Group Website (tyr0.chem.wsu.edu/~kipeters) Feb. 2017
                 J. Koput, K. A. Peterson, J. Phys. Chem. 106, 9595 (2002)
         Sc-Zn : Obtained from the ccRepo (grant-hill.group.shef.ac.uk/ccrepo) Feb. 2017
                 N. B. Balabanov, K. A. Peterson, J. Chem. Phys. 123, 064107 (2005)
                 N. B. Balabanov, K. A. Peterson, J. Chem. Phys. 125, 074110 (2006)
         Ga-Kr : Obtained from the ccRepo (grant-hill.group.shef.ac.uk/ccrepo) Feb. 2017
                 A. K. Wilson, D. E. Woon, K. A. Peterson, T. H. Dunning, Jr., J. Chem. Phys. 110, 7667 (1999)

----- AuxJ basis set information -----
Your calculation utilizes the AutoAux generation procedure.
  G. L. Stoychev, A. A. Auer, F. Neese, J. Chem. Theory Comput. 13, 554 (2017)

----- AuxC basis set information -----
Your calculation utilizes the AutoAux generation procedure.
  G. L. Stoychev, A. A. Auer, F. Neese, J. Chem. Theory Comput. 13, 554 (2017)

----- AuxJK basis set information -----
Your calculation utilizes the AutoAux generation procedure.
  G. L. Stoychev, A. A. Auer, F. Neese, J. Chem. Theory Comput. 13, 554 (2017)

================================================================================
                                        WARNINGS
                       Please study these warnings very carefully!
================================================================================


WARNING: your system is open-shell and RHF/RKS was chosen
  ===> : WILL SWITCH to UHF/UKS


INFO   : the flag for use of the SHARK integral package has been found!

================================================================================
                                       INPUT FILE
================================================================================
NAME = cc-pVDZ.inp
|  1> ! B3LYP cc-pVDZ AUTOAUX
|  2> %pal nprocs 16 end
|  3> *XYZFile 0 2 opt.xyz
|  4> %EPRNMR
|  5>         GTENSOR   TRUE
|  6>         NUCLEI    = ALL H {SHIFT, AISO, ADIP, AORB}
|  7>         ORI       GIAO
|  8> END
|  9> 
| 10>                          ****END OF INPUT****
================================================================================

                       ****************************
                       * Single Point Calculation *
                       ****************************

---------------------------------
CARTESIAN COORDINATES (ANGSTROEM)
---------------------------------
  C     -4.052268    0.115614   -0.001692
  C     -2.836565    0.052160   -0.003421
  C      2.842829   -0.004216   -0.002352
  C     -1.410014    0.002656   -0.003149
  C     -0.708139   -1.258090   -0.002726
  C      0.713185   -1.192512   -0.002392
  C      1.414143    0.016922   -0.002570
  C      0.706182    1.260759   -0.003012
  C     -0.689438    1.209567   -0.003370
  H      1.288191   -2.118709   -0.002058
  H     -1.263059    2.136269   -0.003793
  C     -1.396801   -2.492011   -0.002645
  H     -2.489358   -2.454708   -0.003064
  C     -0.741126   -3.840380   -0.002172
  H     -0.069922   -3.936290   -0.880793
  H     -0.068807   -3.935156    0.875698
  C     -1.739120   -5.005603   -0.000787
  H     -2.397379   -4.914277    0.882428
  H     -2.398569   -4.915385   -0.883231
  C     -1.061646   -6.377131   -0.000385
  H     -0.420496   -6.507557    0.888639
  H     -0.421640   -6.508641   -0.890074
  C      1.479774    2.562726   -0.003141
  H      2.157489    2.561725    0.871211
  H      2.158029    2.561237   -0.877070
  C      0.660782    3.856198   -0.003729
  H     -0.002282    3.880554   -0.888104
  H     -0.002671    3.881100    0.880341
  C      1.541048    5.111788   -0.003930
  H      2.207161    5.089300    0.878622
  H      2.207254    5.088941   -0.886402
  C      0.734674    6.412803   -0.004240
  H      0.084530    6.481508    0.885049
  H      0.084510    6.481072   -0.893549
  C      4.064589   -0.029084   -0.003390
  H     -5.122850    0.176841    0.002017
  H     -1.802776   -7.192512    0.000594
  H      1.393262    7.296517   -0.004468
  C      5.492574   -0.059283   -0.003026
  C      6.185759   -1.289431   -0.002819
  C      7.580089   -1.313817   -0.002390
  C      8.308273   -0.118677   -0.002188
  C      7.631219    1.106277   -0.002419
  C      6.237203    1.140549   -0.002850
  H      9.400533   -0.141833   -0.001853
  H      8.194107    2.042827   -0.002269
  H      5.615401   -2.220203   -0.002988
  H      5.707015    2.094785   -0.003040
  H      8.103468   -2.273007   -0.002217

----------------------------
CARTESIAN COORDINATES (A.U.)
----------------------------
  NO LB      ZA    FRAG     MASS         X           Y           Z
   0 C     6.0000    0    12.011   -7.657677    0.218479   -0.003198
   1 C     6.0000    0    12.011   -5.360331    0.098568   -0.006465
   2 C     6.0000    0    12.011    5.372169   -0.007967   -0.004444
   3 C     6.0000    0    12.011   -2.664541    0.005019   -0.005951
   4 C     6.0000    0    12.011   -1.338189   -2.377445   -0.005152
   5 C     6.0000    0    12.011    1.347725   -2.253522   -0.004520
   6 C     6.0000    0    12.011    2.672344    0.031979   -0.004857
   7 C     6.0000    0    12.011    1.334492    2.382489   -0.005692
   8 C     6.0000    0    12.011   -1.302849    2.285750   -0.006369
   9 H     1.0000    0     1.008    2.434329   -4.003780   -0.003889
  10 H     1.0000    0     1.008   -2.386836    4.036963   -0.007168
  11 C     6.0000    0    12.011   -2.639571   -4.709218   -0.004998
  12 H     1.0000    0     1.008   -4.704205   -4.638725   -0.005790
  13 C     6.0000    0    12.011   -1.400526   -7.257266   -0.004105
  14 H     1.0000    0     1.008   -0.132134   -7.438510   -1.664458
  15 H     1.0000    0     1.008   -0.130026   -7.436367    1.654830
  16 C     6.0000    0    12.011   -3.286461   -9.459219   -0.001488
  17 H     1.0000    0     1.008   -4.530390   -9.286638    1.667547
  18 H     1.0000    0     1.008   -4.532639   -9.288732   -1.669064
  19 C     6.0000    0    12.011   -2.006221  -12.051031   -0.000728
  20 H     1.0000    0     1.008   -0.794621  -12.297500    1.679284
  21 H     1.0000    0     1.008   -0.796784  -12.299549   -1.681996
  22 C     6.0000    0    12.011    2.796368    4.842850   -0.005935
  23 H     1.0000    0     1.008    4.077063    4.840958    1.646350
  24 H     1.0000    0     1.008    4.078084    4.840037   -1.657422
  25 C     6.0000    0    12.011    1.248696    7.287158   -0.007047
  26 H     1.0000    0     1.008   -0.004313    7.333185   -1.678274
  27 H     1.0000    0     1.008   -0.005048    7.334215    1.663603
  28 C     6.0000    0    12.011    2.912159    9.659880   -0.007426
  29 H     1.0000    0     1.008    4.170930    9.617383    1.660355
  30 H     1.0000    0     1.008    4.171105    9.616705   -1.675058
  31 C     6.0000    0    12.011    1.388332   12.118442   -0.008013
  32 H     1.0000    0     1.008    0.159738   12.248276    1.672501
  33 H     1.0000    0     1.008    0.159700   12.247452   -1.688563
  34 C     6.0000    0    12.011    7.680960   -0.054961   -0.006406
  35 H     1.0000    0     1.008   -9.680783    0.334181    0.003811
  36 H     1.0000    0     1.008   -3.406754  -13.591879    0.001122
  37 H     1.0000    0     1.008    2.632883   13.788418   -0.008442
  38 C     6.0000    0    12.011   10.379460   -0.112029   -0.005718
  39 C     6.0000    0    12.011   11.689391   -2.436671   -0.005326
  40 C     6.0000    0    12.011   14.324292   -2.482754   -0.004516
  41 C     6.0000    0    12.011   15.700361   -0.224267   -0.004135
  42 C     6.0000    0    12.011   14.420914    2.090561   -0.004572
  43 C     6.0000    0    12.011   11.786606    2.155326   -0.005386
  44 H     1.0000    0     1.008   17.764432   -0.268026   -0.003502
  45 H     1.0000    0     1.008   15.484619    3.860384   -0.004288
  46 H     1.0000    0     1.008   10.611570   -4.195575   -0.005647
  47 H     1.0000    0     1.008   10.784695    3.958571   -0.005746
  48 H     1.0000    0     1.008   15.313335   -4.295361   -0.004190

--------------------------------
INTERNAL COORDINATES (ANGSTROEM)
--------------------------------
 C      0   0   0     0.000000000000     0.00000000     0.00000000
 C      1   0   0     1.217359260364     0.00000000     0.00000000
 C      2   1   0     5.679674327504   177.57909499     0.00000000
 C      2   1   3     1.427409552105   178.99534651     3.08808618
 C      4   2   1     1.442951425572   121.09278371   174.71811389
 C      5   4   2     1.422836285811   116.46367031   180.00407821
 C      6   5   4     1.397882258686   122.73715019     0.00000000
 C      7   6   5     1.431201738527   120.25703922     0.00000000
 C      8   7   6     1.396559095721   117.54676217     0.00000000
 H      6   5   4     1.090170958943   119.19138482   179.99948449
 H      9   8   7     1.089870544167   119.65647988   180.00493673
 C      5   4   2     1.413087871575   121.72841724     0.00000000
 H     12   5   4     1.093193664881   117.21076493     0.00000000
 C     12   5   4     1.499335667753   124.90135308   180.00200593
 H     14  12   5     1.109814590441   109.99569207   302.57756505
 H     14  12   5     1.109798677346   109.99718402    57.30659809
 C     14  12   5     1.534190058153   113.48814276   179.94286128
 H     17  14  12     1.105312120549   108.98789398   302.35921625
 H     17  14  12     1.105313671011   108.98908084    57.63428164
 C     17  14  12     1.529725173464   113.13319790   179.99705768
 H     20  17  14     1.103833908636   111.30840897    59.86326630
 H     20  17  14     1.103833841714   111.30827615   300.13931194
 C      8   7   6     1.514450838400   119.63497019   179.99741455
 H     23   8   7     1.106250292653   108.18504701   303.71758795
 H     23   8   7     1.106247903877   108.18538127    56.27063565
 C     23   8   7     1.530953628554   116.94152217   179.99536478
 H     26  23   8     1.105606971055   109.86150781   301.75578256
 H     26  23   8     1.105607966662   109.86090980    58.25344213
 C     26  23   8     1.533419801342   112.62564205   180.00467961
 H     29  26  23     1.105942745177   109.20811490   302.33823521
 H     29  26  23     1.105942536750   109.20759569    57.68502110
 C     29  26  23     1.530647016941   113.17574209   180.01128968
 H     32  29  26     1.103740707934   111.28832870    59.85524771
 H     32  29  26     1.103740858252   111.28837505   300.15428281
 C      3   2   1     1.222013211744   179.39972339   183.50339480
 H      1   2   4     1.072337309213   179.69168392   343.00096738
 H     20  17  14     1.101871872811   111.44384015   180.00101100
 H     32  29  26     1.102128421739   111.51385020   180.00492423
 C     35   3   7     1.428304078639   179.92207852   295.47244443
 C     39  35   3     1.412008938125   120.61267562    54.30194255
 C     40  39  35     1.394543110631   120.40313695   180.00350810
 C     41  40  39     1.399504386554   120.35146742     0.00000000
 C     42  41  40     1.399612460365   119.71634157     0.00000000
 C     43  42  41     1.394437327793   120.33855062     0.00000000
 H     42  41  40     1.092504659132   120.13892208   180.00005377
 H     43  42  41     1.092688694510   120.06294536   180.00032209
 H     40  39  35     1.091624690355   119.09971744     0.00000000
 H     44  43  42     1.091634750457   120.46557739   180.00056615
 H     41  40  39     1.092689909688   119.62092764   179.99904039

---------------------------
INTERNAL COORDINATES (A.U.)
---------------------------
 C      0   0   0     0.000000000000     0.00000000     0.00000000
 C      1   0   0     2.300475608681     0.00000000     0.00000000
 C      2   1   0    10.733029008846   177.57909499     0.00000000
 C      2   1   3     2.697413134421   178.99534651     3.08808618
 C      4   2   1     2.726783018883   121.09278371   174.71811389
 C      5   4   2     2.688770913588   116.46367031   180.00407821
 C      6   5   4     2.641614636385   122.73715019     0.00000000
 C      7   6   5     2.704579328209   120.25703922     0.00000000
 C      8   7   6     2.639114220749   117.54676217     0.00000000
 H      6   5   4     2.060124551556   119.19138482   179.99948449
 H      9   8   7     2.059556849904   119.65647988   180.00493673
 C      5   4   2     2.670349080442   121.72841724     0.00000000
 H     12   5   4     2.065836637963   117.21076493     0.00000000
 C     12   5   4     2.833333794873   124.90135308   180.00200593
 H     14  12   5     2.097245635363   109.99569207   302.57756505
 H     14  12   5     2.097215563971   109.99718402    57.30659809
 C     14  12   5     2.899199047294   113.48814276   179.94286128
 H     17  14  12     2.088737200342   108.98789398   302.35921625
 H     17  14  12     2.088740130290   108.98908084    57.63428164
 C     17  14  12     2.890761638011   113.13319790   179.99705768
 H     20  17  14     2.085943784658   111.30840897    59.86326630
 H     20  17  14     2.085943658193   111.30827615   300.13931194
 C      8   7   6     2.861897327863   119.63497019   179.99741455
 H     23   8   7     2.090510088684   108.18504701   303.71758795
 H     23   8   7     2.090505574553   108.18538127    56.27063565
 C     23   8   7     2.893083081700   116.94152217   179.99536478
 H     26  23   8     2.089294387049   109.86150781   301.75578256
 H     26  23   8     2.089296268473   109.86090980    58.25344213
 C     26  23   8     2.897743472868   112.62564205   180.00467961
 H     29  26  23     2.089928908181   109.20811490   302.33823521
 H     29  26  23     2.089928514311   109.20759569    57.68502110
 C     29  26  23     2.892503669722   113.17574209   180.01128968
 H     32  29  26     2.085767660856   111.28832870    59.85524771
 H     32  29  26     2.085767944915   111.28837505   300.15428281
 C      3   2   1     2.309270302229   179.39972339   183.50339480
 H      1   2   4     2.026423837598   179.69168392   343.00096738
 H     20  17  14     2.082236074284   111.44384015   180.00101100
 H     32  29  26     2.082720881497   111.51385020   180.00492423
 C     35   3   7     2.699103544590   179.92207852   295.47244443
 C     39  35   3     2.668310191706   120.61267562    54.30194255
 C     40  39  35     2.635304561040   120.40313695   180.00350810
 C     41  40  39     2.644680013809   120.35146742     0.00000000
 C     42  41  40     2.644884243713   119.71634157     0.00000000
 C     43  42  41     2.635104660446   120.33855062     0.00000000
 H     42  41  40     2.064534605792   120.13892208   180.00005377
 H     43  42  41     2.064882382255   120.06294536   180.00032209
 H     40  39  35     2.062871705797   119.09971744     0.00000000
 H     44  43  42     2.062890716636   120.46557739   180.00056615
 H     41  40  39     2.064884678610   119.62092764   179.99904039

---------------------
BASIS SET INFORMATION
---------------------
There are 2 groups of distinct atoms

 Group   1 Type C   : 17s4p1d contracted to 3s2p1d pattern {881/31/1}
 Group   2 Type H   : 4s1p contracted to 2s1p pattern {31/1}

Atom   0C    basis set group =>   1
Atom   1C    basis set group =>   1
Atom   2C    basis set group =>   1
Atom   3C    basis set group =>   1
Atom   4C    basis set group =>   1
Atom   5C    basis set group =>   1
Atom   6C    basis set group =>   1
Atom   7C    basis set group =>   1
Atom   8C    basis set group =>   1
Atom   9H    basis set group =>   2
Atom  10H    basis set group =>   2
Atom  11C    basis set group =>   1
Atom  12H    basis set group =>   2
Atom  13C    basis set group =>   1
Atom  14H    basis set group =>   2
Atom  15H    basis set group =>   2
Atom  16C    basis set group =>   1
Atom  17H    basis set group =>   2
Atom  18H    basis set group =>   2
Atom  19C    basis set group =>   1
Atom  20H    basis set group =>   2
Atom  21H    basis set group =>   2
Atom  22C    basis set group =>   1
Atom  23H    basis set group =>   2
Atom  24H    basis set group =>   2
Atom  25C    basis set group =>   1
Atom  26H    basis set group =>   2
Atom  27H    basis set group =>   2
Atom  28C    basis set group =>   1
Atom  29H    basis set group =>   2
Atom  30H    basis set group =>   2
Atom  31C    basis set group =>   1
Atom  32H    basis set group =>   2
Atom  33H    basis set group =>   2
Atom  34C    basis set group =>   1
Atom  35H    basis set group =>   2
Atom  36H    basis set group =>   2
Atom  37H    basis set group =>   2
Atom  38C    basis set group =>   1
Atom  39C    basis set group =>   1
Atom  40C    basis set group =>   1
Atom  41C    basis set group =>   1
Atom  42C    basis set group =>   1
Atom  43C    basis set group =>   1
Atom  44H    basis set group =>   2
Atom  45H    basis set group =>   2
Atom  46H    basis set group =>   2
Atom  47H    basis set group =>   2
Atom  48H    basis set group =>   2
---------------------------------
AUXILIARY/J BASIS SET INFORMATION
---------------------------------
There are 2 groups of distinct atoms

 Group   1 Type C   : 14s11p10d2f contracted to 14s11p10d2f pattern {11111111111111/11111111111/1111111111/11}
 Group   2 Type H   : 9s2p1d contracted to 9s2p1d pattern {111111111/11/1}

Atom   0C    basis set group =>   1
Atom   1C    basis set group =>   1
Atom   2C    basis set group =>   1
Atom   3C    basis set group =>   1
Atom   4C    basis set group =>   1
Atom   5C    basis set group =>   1
Atom   6C    basis set group =>   1
Atom   7C    basis set group =>   1
Atom   8C    basis set group =>   1
Atom   9H    basis set group =>   2
Atom  10H    basis set group =>   2
Atom  11C    basis set group =>   1
Atom  12H    basis set group =>   2
Atom  13C    basis set group =>   1
Atom  14H    basis set group =>   2
Atom  15H    basis set group =>   2
Atom  16C    basis set group =>   1
Atom  17H    basis set group =>   2
Atom  18H    basis set group =>   2
Atom  19C    basis set group =>   1
Atom  20H    basis set group =>   2
Atom  21H    basis set group =>   2
Atom  22C    basis set group =>   1
Atom  23H    basis set group =>   2
Atom  24H    basis set group =>   2
Atom  25C    basis set group =>   1
Atom  26H    basis set group =>   2
Atom  27H    basis set group =>   2
Atom  28C    basis set group =>   1
Atom  29H    basis set group =>   2
Atom  30H    basis set group =>   2
Atom  31C    basis set group =>   1
Atom  32H    basis set group =>   2
Atom  33H    basis set group =>   2
Atom  34C    basis set group =>   1
Atom  35H    basis set group =>   2
Atom  36H    basis set group =>   2
Atom  37H    basis set group =>   2
Atom  38C    basis set group =>   1
Atom  39C    basis set group =>   1
Atom  40C    basis set group =>   1
Atom  41C    basis set group =>   1
Atom  42C    basis set group =>   1
Atom  43C    basis set group =>   1
Atom  44H    basis set group =>   2
Atom  45H    basis set group =>   2
Atom  46H    basis set group =>   2
Atom  47H    basis set group =>   2
Atom  48H    basis set group =>   2
---------------------------------
AUXILIARY/C BASIS SET INFORMATION
---------------------------------
There are 2 groups of distinct atoms

 Group   1 Type C   : 14s11p10d2f contracted to 14s11p10d2f pattern {11111111111111/11111111111/1111111111/11}
 Group   2 Type H   : 9s2p1d contracted to 9s2p1d pattern {111111111/11/1}

Atom   0C    basis set group =>   1
Atom   1C    basis set group =>   1
Atom   2C    basis set group =>   1
Atom   3C    basis set group =>   1
Atom   4C    basis set group =>   1
Atom   5C    basis set group =>   1
Atom   6C    basis set group =>   1
Atom   7C    basis set group =>   1
Atom   8C    basis set group =>   1
Atom   9H    basis set group =>   2
Atom  10H    basis set group =>   2
Atom  11C    basis set group =>   1
Atom  12H    basis set group =>   2
Atom  13C    basis set group =>   1
Atom  14H    basis set group =>   2
Atom  15H    basis set group =>   2
Atom  16C    basis set group =>   1
Atom  17H    basis set group =>   2
Atom  18H    basis set group =>   2
Atom  19C    basis set group =>   1
Atom  20H    basis set group =>   2
Atom  21H    basis set group =>   2
Atom  22C    basis set group =>   1
Atom  23H    basis set group =>   2
Atom  24H    basis set group =>   2
Atom  25C    basis set group =>   1
Atom  26H    basis set group =>   2
Atom  27H    basis set group =>   2
Atom  28C    basis set group =>   1
Atom  29H    basis set group =>   2
Atom  30H    basis set group =>   2
Atom  31C    basis set group =>   1
Atom  32H    basis set group =>   2
Atom  33H    basis set group =>   2
Atom  34C    basis set group =>   1
Atom  35H    basis set group =>   2
Atom  36H    basis set group =>   2
Atom  37H    basis set group =>   2
Atom  38C    basis set group =>   1
Atom  39C    basis set group =>   1
Atom  40C    basis set group =>   1
Atom  41C    basis set group =>   1
Atom  42C    basis set group =>   1
Atom  43C    basis set group =>   1
Atom  44H    basis set group =>   2
Atom  45H    basis set group =>   2
Atom  46H    basis set group =>   2
Atom  47H    basis set group =>   2
Atom  48H    basis set group =>   2
----------------------------------
AUXILIARY/JK BASIS SET INFORMATION
----------------------------------
There are 2 groups of distinct atoms

 Group   1 Type C   : 14s11p10d2f contracted to 14s11p10d2f pattern {11111111111111/11111111111/1111111111/11}
 Group   2 Type H   : 9s2p1d contracted to 9s2p1d pattern {111111111/11/1}

Atom   0C    basis set group =>   1
Atom   1C    basis set group =>   1
Atom   2C    basis set group =>   1
Atom   3C    basis set group =>   1
Atom   4C    basis set group =>   1
Atom   5C    basis set group =>   1
Atom   6C    basis set group =>   1
Atom   7C    basis set group =>   1
Atom   8C    basis set group =>   1
Atom   9H    basis set group =>   2
Atom  10H    basis set group =>   2
Atom  11C    basis set group =>   1
Atom  12H    basis set group =>   2
Atom  13C    basis set group =>   1
Atom  14H    basis set group =>   2
Atom  15H    basis set group =>   2
Atom  16C    basis set group =>   1
Atom  17H    basis set group =>   2
Atom  18H    basis set group =>   2
Atom  19C    basis set group =>   1
Atom  20H    basis set group =>   2
Atom  21H    basis set group =>   2
Atom  22C    basis set group =>   1
Atom  23H    basis set group =>   2
Atom  24H    basis set group =>   2
Atom  25C    basis set group =>   1
Atom  26H    basis set group =>   2
Atom  27H    basis set group =>   2
Atom  28C    basis set group =>   1
Atom  29H    basis set group =>   2
Atom  30H    basis set group =>   2
Atom  31C    basis set group =>   1
Atom  32H    basis set group =>   2
Atom  33H    basis set group =>   2
Atom  34C    basis set group =>   1
Atom  35H    basis set group =>   2
Atom  36H    basis set group =>   2
Atom  37H    basis set group =>   2
Atom  38C    basis set group =>   1
Atom  39C    basis set group =>   1
Atom  40C    basis set group =>   1
Atom  41C    basis set group =>   1
Atom  42C    basis set group =>   1
Atom  43C    basis set group =>   1
Atom  44H    basis set group =>   2
Atom  45H    basis set group =>   2
Atom  46H    basis set group =>   2
Atom  47H    basis set group =>   2
Atom  48H    basis set group =>   2


           ************************************************************
           *        Program running with 16 parallel MPI-processes    *
           *              working on a common directory               *
           ************************************************************
------------------------------------------------------------------------------
                           ORCA GTO INTEGRAL CALCULATION
                           -- RI-GTO INTEGRALS CHOSEN --
------------------------------------------------------------------------------
------------------------------------------------------------------------------
                   ___                                                        
                  /   \      - P O W E R E D   B Y -                         
                 /     \                                                     
                 |  |  |   _    _      __       _____    __    __             
                 |  |  |  | |  | |    /  \     |  _  \  |  |  /  |          
                  \  \/   | |  | |   /    \    | | | |  |  | /  /          
                 / \  \   | |__| |  /  /\  \   | |_| |  |  |/  /          
                |  |  |   |  __  | /  /__\  \  |    /   |      \           
                |  |  |   | |  | | |   __   |  |    \   |  |\   \          
                \     /   | |  | | |  |  |  |  | |\  \  |  | \   \       
                 \___/    |_|  |_| |__|  |__|  |_| \__\ |__|  \__/        
                                                                              
                      - O R C A' S   B I G   F R I E N D -                    
                                      &                                       
                       - I N T E G R A L  F E E D E R -                       
                                                                              
 v1 FN, 2020, v2 2021                                                         
------------------------------------------------------------------------------


Reading SHARK input file cc-pVDZ.SHARKINP.tmp ... ok
----------------------
SHARK INTEGRAL PACKAGE
----------------------

Number of atoms                             ...     49
Number of basis functions                   ...    605
Number of shells                            ...    363
Maximum angular momentum                    ...      2
Integral batch strategy                     ... SHARK/LIBINT Hybrid
RI-J (if used) integral strategy            ... SPLIT-RIJ (Revised 2003 algorithm where possible)
Printlevel                                  ...      1
Contraction scheme used                     ... PARTIAL GENERAL contraction
Coulomb Range Separation                    ... NOT USED
Exchange Range Separation                   ... NOT USED
Finite Nucleus Model                        ... NOT USED
Auxiliary Coulomb fitting basis             ... AVAILABLE
   # of basis functions in Aux-J            ...   3164
   # of shells in Aux-J                     ...   1188
   Maximum angular momentum in Aux-J        ...      3
Auxiliary J/K fitting basis                 ... AVAILABLE
   # of basis functions in Aux-JK           ...   3164
   # of shells in Aux-JK                    ...   1188
   Maximum angular momentum in Aux-JK       ...      3
Auxiliary Correlation fitting basis         ... AVAILABLE
   # of basis functions in Aux-C            ...   3164
   # of shells in Aux-C                     ...   1188
   Maximum angular momentum in Aux-C        ...      3
Auxiliary 'external' fitting basis          ... NOT available
Integral threshold                          ...     1.000000e-10
Primitive cut-off                           ...     1.000000e-11
Primitive pair pre-selection threshold      ...     1.000000e-11

Calculating pre-screening integrals         ... done (  0.0 sec) Dimension = 363
Calculating pre-screening integrals (ORCA)  ... done (  0.1 sec) Dimension = 219
Organizing shell pair data                  ... done (  0.2 sec)
Shell pair information
Total number of shell pairs                 ...     66066
Shell pairs after pre-screening             ...     25426
Total number of primitive shell pairs       ...    106638
Primitive shell pairs kept                  ...     34279
          la=0 lb=0:  11005 shell pairs
          la=1 lb=0:   8981 shell pairs
          la=1 lb=1:   1604 shell pairs
          la=2 lb=0:   2695 shell pairs
          la=2 lb=1:    978 shell pairs
          la=2 lb=2:    163 shell pairs

Calculating one electron integrals          ... done (  0.0 sec)
Calculating RI/J V-Matrix + Cholesky decomp.... done (  0.6 sec)
Calculating RI/JK V-Matrix + Cholesky decomp... done (  0.6 sec)
Calculating RI/C V-Matrix + Cholesky decomp.... done (  0.6 sec)
Calculating Nuclear repulsion               ... done (  0.0 sec) ENN=   1724.022777785751 Eh

SHARK setup successfully completed in   2.4 seconds

Maximum memory used throughout the entire GTOINT-calculation: 41.6 MB


           ************************************************************
           *        Program running with 16 parallel MPI-processes    *
           *              working on a common directory               *
           ************************************************************
-------------------------------------------------------------------------------
                                 ORCA SCF
-------------------------------------------------------------------------------

------------
SCF SETTINGS
------------
Hamiltonian:
 Density Functional     Method          .... DFT(GTOs)
 Exchange Functional    Exchange        .... B88
   X-Alpha parameter    XAlpha          ....  0.666667
   Becke's b parameter  XBeta           ....  0.004200
 Correlation Functional Correlation     .... LYP
 LDA part of GGA corr.  LDAOpt          .... VWN-5
 Gradients option       PostSCFGGA      .... off
 Hybrid DFT is turned on
   Fraction HF Exchange ScalHFX         ....  0.200000
   Scaling of DF-GGA-X  ScalDFX         ....  0.720000
   Scaling of DF-GGA-C  ScalDFC         ....  0.810000
   Scaling of DF-LDA-C  ScalLDAC        ....  1.000000
   Perturbative correction              ....  0.000000
   Density functional embedding theory  .... OFF
   NL short-range parameter             ....  4.800000
 RI-approximation to the Coulomb term is turned on
   Number of AuxJ basis functions       .... 3164
   RIJ-COSX (HFX calculated with COS-X)).... on


General Settings:
 Integral files         IntName         .... cc-pVDZ
 Hartree-Fock type      HFTyp           .... UHF
 Total Charge           Charge          ....    0
 Multiplicity           Mult            ....    2
 Number of Electrons    NEL             ....  169
 Basis Dimension        Dim             ....  461
 Nuclear Repulsion      ENuc            ....   1724.0227777858 Eh

Convergence Acceleration:
 DIIS                   CNVDIIS         .... on
   Start iteration      DIISMaxIt       ....    12
   Startup error        DIISStart       ....  0.200000
   # of expansion vecs  DIISMaxEq       ....     5
   Bias factor          DIISBfac        ....   1.050
   Max. coefficient     DIISMaxC        ....  10.000
 Trust-Rad. Augm. Hess. CNVTRAH         .... auto
   Auto Start mean grad. ratio tolernc. ....  1.125000
   Auto Start start iteration           ....    20
   Auto Start num. interpolation iter.  ....    10
   Max. Number of Micro iterations      ....    16
   Max. Number of Macro iterations      .... Maxiter - #DIIS iter
   Number of Davidson start vectors     ....     2
   Converg. threshold I  (grad. norm)   ....   5.000e-05
   Converg. threshold II (energy diff.) ....   1.000e-06
   Grad. Scal. Fac. for Micro threshold ....   0.100
   Minimum threshold for Micro iter.    ....   0.010
   NR start threshold (gradient norm)   ....   0.001
   Initial trust radius                 ....   0.400
   Minimum AH scaling param. (alpha)    ....   1.000
   Maximum AH scaling param. (alpha)    .... 1000.000
   Orbital update algorithm             .... Taylor
   White noise on init. David. guess    .... on
   Maximum white noise                  ....   0.010
   Quad. conv. algorithm                .... NR
 SOSCF                  CNVSOSCF        .... off
 Level Shifting         CNVShift        .... on
   Level shift para.    LevelShift      ....    0.2500
   Turn off err/grad.   ShiftErr        ....    0.0010
 Zerner damping         CNVZerner       .... off
 Static damping         CNVDamp         .... on
   Fraction old density DampFac         ....    0.7000
   Max. Damping (<1)    DampMax         ....    0.9800
   Min. Damping (>=0)   DampMin         ....    0.0000
   Turn off err/grad.   DampErr         ....    0.1000
 Fernandez-Rico         CNVRico         .... off

SCF Procedure:
 Maximum # iterations   MaxIter         ....   125
 SCF integral mode      SCFMode         .... Direct
   Integral package                     .... SHARK and LIBINT hybrid scheme
 Reset frequency        DirectResetFreq ....    20
 Integral Threshold     Thresh          ....  1.000e-10 Eh
 Primitive CutOff       TCut            ....  1.000e-11 Eh

Convergence Tolerance:
 Convergence Check Mode ConvCheckMode   .... Total+1el-Energy
 Convergence forced     ConvForced      .... 0
 Energy Change          TolE            ....  1.000e-06 Eh
 1-El. energy change                    ....  1.000e-03 Eh
 DIIS Error             TolErr          ....  1.000e-06


Diagonalization of the overlap matrix:
Smallest eigenvalue                        ... 5.124e-05
Time for diagonalization                   ...    0.038 sec
Threshold for overlap eigenvalues          ... 1.000e-08
Number of eigenvalues below threshold      ... 0
Time for construction of square roots      ...    0.044 sec
Total time needed                          ...    0.083 sec

Time for model grid setup =    0.459 sec

------------------------------
INITIAL GUESS: MODEL POTENTIAL
------------------------------
Loading Hartree-Fock densities                     ... done
Calculating cut-offs                               ... done
Initializing the effective Hamiltonian             ... done
Setting up the integral package (SHARK)            ... done
Starting the Coulomb interaction                   ... done (   0.3 sec)
Reading the grid                                   ... done
Mapping shells                                     ... done
Starting the XC term evaluation                    ... done (   0.1 sec)
  promolecular density results
     # of electrons  =    168.989217229
     EX              =   -130.677553653
     EC              =     -5.564730708
     EX+EC           =   -136.242284361
Transforming the Hamiltonian                       ... done (   0.0 sec)
Diagonalizing the Hamiltonian                      ... done (   0.0 sec)
Back transforming the eigenvectors                 ... done (   0.0 sec)
Now organizing SCF variables                       ... done
                      ------------------
                      INITIAL GUESS DONE (   1.2 sec)
                      ------------------
-------------------
DFT GRID GENERATION
-------------------

General Integration Accuracy     IntAcc      ... 4.388
Radial Grid Type                 RadialGrid  ... OptM3 with GC (2021)
Angular Grid (max. ang.)         AngularGrid ... 4 (Lebedev-302)
Angular grid pruning method      GridPruning ... 4 (adaptive)
Weight generation scheme         WeightScheme... Becke
Basis function cutoff            BFCut       ... 1.0000e-10
Integration weight cutoff        WCut        ... 1.0000e-14
Angular grids for H and He will be reduced by one unit
Partially contracted basis set               ... off
Rotationally invariant grid construction     ... off

Total number of grid points                  ...   223167
Total number of batches                      ...     3511
Average number of points per batch           ...       63
Average number of grid points per atom       ...     4554
Time for grid setup =    1.437 sec

--------------------
COSX GRID GENERATION
--------------------

GRIDX 1
-------
General Integration Accuracy     IntAcc      ... 3.816
Radial Grid Type                 RadialGrid  ... OptM3 with GC (2021)
Angular Grid (max. ang.)         AngularGrid ... 1 (Lebedev-50)
Angular grid pruning method      GridPruning ... 4 (adaptive)
Weight generation scheme         WeightScheme... Becke
Basis function cutoff            BFCut       ... 1.0000e-10
Integration weight cutoff        WCut        ... 1.0000e-14
Angular grids for H and He will be reduced by one unit
Partially contracted basis set               ... on
Rotationally invariant grid construction     ... off

Total number of grid points                  ...    28454
Total number of batches                      ...      471
Average number of points per batch           ...       60
Average number of grid points per atom       ...      581
UseSFitting                                  ... on

GRIDX 2
-------
General Integration Accuracy     IntAcc      ... 4.020
Radial Grid Type                 RadialGrid  ... OptM3 with GC (2021)
Angular Grid (max. ang.)         AngularGrid ... 2 (Lebedev-110)
Angular grid pruning method      GridPruning ... 4 (adaptive)
Weight generation scheme         WeightScheme... Becke
Basis function cutoff            BFCut       ... 1.0000e-10
Integration weight cutoff        WCut        ... 1.0000e-14
Angular grids for H and He will be reduced by one unit
Partially contracted basis set               ... on
Rotationally invariant grid construction     ... off

Total number of grid points                  ...    60638
Total number of batches                      ...      972
Average number of points per batch           ...       62
Average number of grid points per atom       ...     1238
UseSFitting                                  ... on

GRIDX 3
-------
General Integration Accuracy     IntAcc      ... 4.338
Radial Grid Type                 RadialGrid  ... OptM3 with GC (2021)
Angular Grid (max. ang.)         AngularGrid ... 3 (Lebedev-194)
Angular grid pruning method      GridPruning ... 4 (adaptive)
Weight generation scheme         WeightScheme... Becke
Basis function cutoff            BFCut       ... 1.0000e-10
Integration weight cutoff        WCut        ... 1.0000e-14
Angular grids for H and He will be reduced by one unit
Partially contracted basis set               ... on
Rotationally invariant grid construction     ... off

Total number of grid points                  ...   132616
Total number of batches                      ...     2098
Average number of points per batch           ...       63
Average number of grid points per atom       ...     2706
UseSFitting                                  ... on

Time for X-Grid setup             =    2.361 sec

 re-compute Schwartz prescreening matrix in partically contracted basis (1) ...done (   0.122 sec)
--------------
SCF ITERATIONS
--------------
ITER       Energy         Delta-E        Max-DP      RMS-DP      [F,P]     Damp
               ***  Starting incremental Fock matrix formation  ***
  0   -928.3590216773   0.000000000000 0.06858533  0.00090859  0.0869819 0.7000
  1   -928.5969940925  -0.237972415210 0.05764073  0.00070676  0.0458130 0.7000
                               ***Turning on DIIS***
  2   -928.7050879710  -0.108093878453 0.12162056  0.00137910  0.0175609 0.0000
  3   -928.8589745624  -0.153886591484 0.02640568  0.00036302  0.0248965 0.0000
  4   -928.8979049421  -0.038930379663 0.01748443  0.00015398  0.0059109 0.0000
  5   -928.9003152787  -0.002410336561 0.00424812  0.00003742  0.0029265 0.0000
  6   -928.9006538587  -0.000338580002 0.00304459  0.00002158  0.0021068 0.0000
  7   -928.9007818646  -0.000128005968 0.00201157  0.00001429  0.0013970 0.0000
  8   -928.9008475837  -0.000065719036 0.00301392  0.00002511  0.0009048 0.0000
               *** Restarting incremental Fock matrix formation ***
                                   *** Resetting DIIS ***
  9   -928.9011556411  -0.000308057468 0.00138354  0.00001541  0.0008131 0.0000
 10   -928.9011479523   0.000007688881 0.00055373  0.00000487  0.0017867 0.0000
 11   -928.9011666540  -0.000018701735 0.00048032  0.00000472  0.0006253 0.0000
 12   -928.9011713110  -0.000004656981 0.00057133  0.00000457  0.0001985 0.0000
 13   -928.9011733120  -0.000002001051 0.00028504  0.00000258  0.0001937 0.0000
                 **** Energy Check signals convergence ****

               *****************************************************
               *                     SUCCESS                       *
               *           SCF CONVERGED AFTER  14 CYCLES          *
               *****************************************************

Old exchange energy                            =    -26.638352916 Eh
New exchange energy                            =    -26.638465522 Eh
Exchange energy change after final integration =     -0.000112606 Eh
Total energy after final integration           =   -928.901286879 Eh
Final COS-X integration done in                =     7.326 sec

----------------
TOTAL SCF ENERGY
----------------

Total Energy       :         -928.90128688 Eh          -25276.68906 eV

Components:
Nuclear Repulsion  :         1724.02277779 Eh           46913.04480 eV
Electronic Energy  :        -2652.92406466 Eh          -72189.73385 eV
One Electron Energy:        -4677.02614693 Eh         -127268.35166 eV
Two Electron Energy:         2024.10208227 Eh           55078.61780 eV
Max COSX asymmetry :            0.00000058 Eh               0.00002 eV

Virial components:
Potential Energy   :        -1851.36897598 Eh          -50378.31102 eV
Kinetic Energy     :          922.46768910 Eh           25101.62196 eV
Virial Ratio       :            2.00697433


DFT components:
N(Alpha)           :       85.000168703826 electrons
N(Beta)            :       84.000161255557 electrons
N(Total)           :      169.000329959383 electrons
E(X)               :     -105.658918772121 Eh       
E(C)               :       -6.575464501992 Eh       
E(XC)              :     -112.234383274112 Eh       
DFET-embed. en.    :        0.000000000000 Eh       

---------------
SCF CONVERGENCE
---------------

  Last Energy change         ...   -9.6057e-07  Tolerance :   1.0000e-06
  Last MAX-Density change    ...    0.0000e+00  Tolerance :   1.0000e-05
  Last RMS-Density change    ...    0.0000e+00  Tolerance :   1.0000e-06
  Last DIIS Error            ...    9.8005e-05  Tolerance :   1.0000e-06

             **** THE GBW FILE WAS UPDATED (cc-pVDZ.gbw) ****
             **** DENSITY cc-pVDZ.scfp WAS UPDATED ****
             **** ENERGY FILE WAS UPDATED (cc-pVDZ.en.tmp) ****
----------------------
UHF SPIN CONTAMINATION
----------------------

Warning: in a DFT calculation there is little theoretical justification to 
         calculate <S**2> as in Hartree-Fock theory. We will do it anyways
         but you should keep in mind that the values have only limited relevance

Expectation value of <S**2>     :     0.786490
Ideal value S*(S+1) for S=0.5   :     0.750000
Deviation                       :     0.036490

             **** THE GBW FILE WAS UPDATED (cc-pVDZ.gbw) ****
             **** DENSITY cc-pVDZ.scfp WAS UPDATED ****
----------------
ORBITAL ENERGIES
----------------
                 SPIN UP ORBITALS
  NO   OCC          E(Eh)            E(eV) 
   0   1.0000     -10.216696      -278.0104 
   1   1.0000     -10.213387      -277.9204 
   2   1.0000     -10.211962      -277.8816 
   3   1.0000     -10.202182      -277.6155 
   4   1.0000     -10.198385      -277.5122 
   5   1.0000     -10.197353      -277.4841 
   6   1.0000     -10.197235      -277.4809 
   7   1.0000     -10.196253      -277.4541 
   8   1.0000     -10.195744      -277.4403 
   9   1.0000     -10.195535      -277.4346 
  10   1.0000     -10.194300      -277.4010 
  11   1.0000     -10.192094      -277.3410 
  12   1.0000     -10.190123      -277.2873 
  13   1.0000     -10.189775      -277.2779 
  14   1.0000     -10.189425      -277.2683 
  15   1.0000     -10.187965      -277.2286 
  16   1.0000     -10.187775      -277.2235 
  17   1.0000     -10.186939      -277.2007 
  18   1.0000     -10.185099      -277.1506 
  19   1.0000     -10.183599      -277.1098 
  20   1.0000     -10.182044      -277.0675 
  21   1.0000     -10.181737      -277.0591 
  22   1.0000     -10.176958      -276.9291 
  23   1.0000     -10.175687      -276.8945 
  24   1.0000      -0.873762       -23.7763 
  25   1.0000      -0.863466       -23.4961 
  26   1.0000      -0.819939       -22.3117 
  27   1.0000      -0.797953       -21.7134 
  28   1.0000      -0.796646       -21.6778 
  29   1.0000      -0.778317       -21.1791 
  30   1.0000      -0.767835       -20.8938 
  31   1.0000      -0.751178       -20.4406 
  32   1.0000      -0.744224       -20.2514 
  33   1.0000      -0.729986       -19.8639 
  34   1.0000      -0.713916       -19.4266 
  35   1.0000      -0.697707       -18.9856 
  36   1.0000      -0.656575       -17.8663 
  37   1.0000      -0.643562       -17.5122 
  38   1.0000      -0.620139       -16.8749 
  39   1.0000      -0.611568       -16.6416 
  40   1.0000      -0.609238       -16.5782 
  41   1.0000      -0.592439       -16.1211 
  42   1.0000      -0.579904       -15.7800 
  43   1.0000      -0.561730       -15.2855 
  44   1.0000      -0.541212       -14.7271 
  45   1.0000      -0.529742       -14.4150 
  46   1.0000      -0.507101       -13.7989 
  47   1.0000      -0.489860       -13.3298 
  48   1.0000      -0.480591       -13.0775 
  49   1.0000      -0.476049       -12.9540 
  50   1.0000      -0.470796       -12.8110 
  51   1.0000      -0.462022       -12.5722 
  52   1.0000      -0.457955       -12.4616 
  53   1.0000      -0.437269       -11.8987 
  54   1.0000      -0.431749       -11.7485 
  55   1.0000      -0.429236       -11.6801 
  56   1.0000      -0.426045       -11.5933 
  57   1.0000      -0.424474       -11.5505 
  58   1.0000      -0.422004       -11.4833 
  59   1.0000      -0.411812       -11.2060 
  60   1.0000      -0.398183       -10.8351 
  61   1.0000      -0.397807       -10.8249 
  62   1.0000      -0.383684       -10.4406 
  63   1.0000      -0.378471       -10.2987 
  64   1.0000      -0.377412       -10.2699 
  65   1.0000      -0.365166        -9.9367 
  66   1.0000      -0.361670        -9.8415 
  67   1.0000      -0.356502        -9.7009 
  68   1.0000      -0.354260        -9.6399 
  69   1.0000      -0.350718        -9.5435 
  70   1.0000      -0.340258        -9.2589 
  71   1.0000      -0.332442        -9.0462 
  72   1.0000      -0.332073        -9.0362 
  73   1.0000      -0.330391        -8.9904 
  74   1.0000      -0.327762        -8.9189 
  75   1.0000      -0.324248        -8.8232 
  76   1.0000      -0.321832        -8.7575 
  77   1.0000      -0.297301        -8.0900 
  78   1.0000      -0.275202        -7.4886 
  79   1.0000      -0.273477        -7.4417 
  80   1.0000      -0.268652        -7.3104 
  81   1.0000      -0.258819        -7.0428 
  82   1.0000      -0.255679        -6.9574 
  83   1.0000      -0.214613        -5.8399 
  84   1.0000      -0.173096        -4.7102 
  85   0.0000      -0.060137        -1.6364 
  86   0.0000      -0.010505        -0.2859 
  87   0.0000      -0.008903        -0.2423 
  88   0.0000       0.016561         0.4507 
  89   0.0000       0.041848         1.1387 
  90   0.0000       0.050846         1.3836 
  91   0.0000       0.054265         1.4766 
  92   0.0000       0.063142         1.7182 
  93   0.0000       0.064593         1.7577 
  94   0.0000       0.065641         1.7862 
  95   0.0000       0.078670         2.1407 
  96   0.0000       0.083488         2.2718 
  97   0.0000       0.088626         2.4116 
  98   0.0000       0.095045         2.5863 
  99   0.0000       0.095665         2.6032 
 100   0.0000       0.099118         2.6971 
 101   0.0000       0.102567         2.7910 
 102   0.0000       0.103775         2.8238 
 103   0.0000       0.113648         3.0925 
 104   0.0000       0.120487         3.2786 
 105   0.0000       0.125824         3.4239 
 106   0.0000       0.130160         3.5418 
 107   0.0000       0.138182         3.7601 
 108   0.0000       0.143092         3.8937 
 109   0.0000       0.147086         4.0024 
 110   0.0000       0.151753         4.1294 
 111   0.0000       0.155346         4.2272 
 112   0.0000       0.158290         4.3073 
 113   0.0000       0.160408         4.3649 
 114   0.0000       0.161471         4.3939 
 115   0.0000       0.165119         4.4931 
 116   0.0000       0.172944         4.7060 
 117   0.0000       0.175675         4.7804 
 118   0.0000       0.183211         4.9854 
 119   0.0000       0.204155         5.5554 
 120   0.0000       0.211882         5.7656 
 121   0.0000       0.212451         5.7811 
 122   0.0000       0.217825         5.9273 
 123   0.0000       0.222497         6.0545 
 124   0.0000       0.224263         6.1025 
 125   0.0000       0.243533         6.6269 
 126   0.0000       0.249797         6.7973 
 127   0.0000       0.265668         7.2292 
 128   0.0000       0.267840         7.2883 
 129   0.0000       0.278870         7.5884 
 130   0.0000       0.285961         7.7814 
 131   0.0000       0.292018         7.9462 
 132   0.0000       0.306601         8.3430 
 133   0.0000       0.314096         8.5470 
 134   0.0000       0.318662         8.6712 
 135   0.0000       0.332092         9.0367 
 136   0.0000       0.348615         9.4863 
 137   0.0000       0.361081         9.8255 
 138   0.0000       0.365434         9.9440 
 139   0.0000       0.378873        10.3097 
 140   0.0000       0.391011        10.6399 
 141   0.0000       0.406140        11.0516 
 142   0.0000       0.411722        11.2035 
 143   0.0000       0.413565        11.2537 
 144   0.0000       0.419545        11.4164 
 145   0.0000       0.421949        11.4818 
 146   0.0000       0.430485        11.7141 
 147   0.0000       0.441036        12.0012 
 148   0.0000       0.441183        12.0052 
 149   0.0000       0.449881        12.2419 
 150   0.0000       0.451778        12.2935 
 151   0.0000       0.454136        12.3577 
 152   0.0000       0.462724        12.5914 
 153   0.0000       0.472361        12.8536 
 154   0.0000       0.473256        12.8780 
 155   0.0000       0.475023        12.9260 
 156   0.0000       0.476756        12.9732 
 157   0.0000       0.481028        13.0894 
 158   0.0000       0.491020        13.3613 
 159   0.0000       0.499570        13.5940 
 160   0.0000       0.499660        13.5964 
 161   0.0000       0.503020        13.6879 
 162   0.0000       0.506700        13.7880 
 163   0.0000       0.508685        13.8420 
 164   0.0000       0.514030        13.9875 
 165   0.0000       0.515627        14.0309 
 166   0.0000       0.517243        14.0749 
 167   0.0000       0.521704        14.1963 
 168   0.0000       0.525349        14.2955 
 169   0.0000       0.529664        14.4129 
 170   0.0000       0.534616        14.5476 
 171   0.0000       0.551043        14.9946 
 172   0.0000       0.552720        15.0403 
 173   0.0000       0.558212        15.1897 
 174   0.0000       0.569463        15.4959 
 175   0.0000       0.575649        15.6642 
 176   0.0000       0.585294        15.9267 
 177   0.0000       0.589572        16.0431 
 178   0.0000       0.592086        16.1115 
 179   0.0000       0.599031        16.3004 
 180   0.0000       0.601120        16.3573 
 181   0.0000       0.608858        16.5679 
 182   0.0000       0.609572        16.5873 
 183   0.0000       0.625076        17.0092 
 184   0.0000       0.625926        17.0323 
 185   0.0000       0.632681        17.2161 
 186   0.0000       0.638152        17.3650 
 187   0.0000       0.638377        17.3711 
 188   0.0000       0.643354        17.5066 
 189   0.0000       0.644070        17.5260 
 190   0.0000       0.645762        17.5721 
 191   0.0000       0.651615        17.7313 
 192   0.0000       0.655592        17.8396 
 193   0.0000       0.656022        17.8513 
 194   0.0000       0.661304        17.9950 
 195   0.0000       0.661927        18.0119 
 196   0.0000       0.665709        18.1149 
 197   0.0000       0.666350        18.1323 
 198   0.0000       0.666400        18.1337 
 199   0.0000       0.669523        18.2187 
 200   0.0000       0.678331        18.4583 
 201   0.0000       0.678368        18.4593 
 202   0.0000       0.683457        18.5978 
 203   0.0000       0.686681        18.6855 
 204   0.0000       0.691146        18.8070 
 205   0.0000       0.694066        18.8865 
 206   0.0000       0.695078        18.9140 
 207   0.0000       0.704827        19.1793 
 208   0.0000       0.711341        19.3566 
 209   0.0000       0.714208        19.4346 
 210   0.0000       0.723435        19.6857 
 211   0.0000       0.727697        19.8016 
 212   0.0000       0.733527        19.9603 
 213   0.0000       0.734190        19.9783 
 214   0.0000       0.736930        20.0529 
 215   0.0000       0.750669        20.4267 
 216   0.0000       0.754890        20.5416 
 217   0.0000       0.759427        20.6651 
 218   0.0000       0.769115        20.9287 
 219   0.0000       0.775806        21.1107 
 220   0.0000       0.780603        21.2413 
 221   0.0000       0.795285        21.6408 
 222   0.0000       0.802112        21.8266 
 223   0.0000       0.818816        22.2811 
 224   0.0000       0.829445        22.5703 
 225   0.0000       0.833692        22.6859 
 226   0.0000       0.848444        23.0873 
 227   0.0000       0.853762        23.2320 
 228   0.0000       0.862640        23.4736 
 229   0.0000       0.869663        23.6647 
 230   0.0000       0.875392        23.8206 
 231   0.0000       0.882231        24.0067 
 232   0.0000       0.900589        24.5063 
 233   0.0000       0.908946        24.7337 
 234   0.0000       0.911115        24.7927 
 235   0.0000       0.915849        24.9215 
 236   0.0000       0.935338        25.4518 
 237   0.0000       0.935419        25.4541 
 238   0.0000       0.945942        25.7404 
 239   0.0000       0.954970        25.9861 
 240   0.0000       0.976366        26.5683 
 241   0.0000       0.977197        26.5909 
 242   0.0000       0.979180        26.6448 
 243   0.0000       0.982510        26.7355 
 244   0.0000       0.993382        27.0313 
 245   0.0000       0.995735        27.0953 
 246   0.0000       1.001531        27.2531 
 247   0.0000       1.009048        27.4576 
 248   0.0000       1.029593        28.0166 
 249   0.0000       1.030323        28.0365 
 250   0.0000       1.031274        28.0624 
 251   0.0000       1.038720        28.2650 
 252   0.0000       1.038797        28.2671 
 253   0.0000       1.053090        28.6560 
 254   0.0000       1.058391        28.8003 
 255   0.0000       1.062958        28.9246 
 256   0.0000       1.065803        29.0020 
 257   0.0000       1.079922        29.3862 
 258   0.0000       1.096889        29.8479 
 259   0.0000       1.106437        30.1077 
 260   0.0000       1.116620        30.3848 
 261   0.0000       1.128035        30.6954 
 262   0.0000       1.143317        31.1112 
 263   0.0000       1.149271        31.2733 
 264   0.0000       1.167570        31.7712 
 265   0.0000       1.186274        32.2802 
 266   0.0000       1.199682        32.6450 
 267   0.0000       1.205518        32.8038 
 268   0.0000       1.208644        32.8889 
 269   0.0000       1.213718        33.0269 
 270   0.0000       1.215744        33.0821 
 271   0.0000       1.220934        33.2233 
 272   0.0000       1.223198        33.2849 
 273   0.0000       1.230815        33.4922 
 274   0.0000       1.232558        33.5396 
 275   0.0000       1.255550        34.1652 
 276   0.0000       1.277235        34.7553 
 277   0.0000       1.292890        35.1813 
 278   0.0000       1.293869        35.2080 
 279   0.0000       1.297779        35.3144 
 280   0.0000       1.311519        35.6882 
 281   0.0000       1.320032        35.9199 
 282   0.0000       1.327387        36.1200 
 283   0.0000       1.338516        36.4229 
 284   0.0000       1.344789        36.5936 
 285   0.0000       1.362485        37.0751 
 286   0.0000       1.376864        37.4664 
 287   0.0000       1.381774        37.6000 
 288   0.0000       1.393761        37.9262 
 289   0.0000       1.395819        37.9822 
 290   0.0000       1.401341        38.1324 
 291   0.0000       1.424140        38.7528 
 292   0.0000       1.425495        38.7897 
 293   0.0000       1.425782        38.7975 
 294   0.0000       1.427043        38.8318 
 295   0.0000       1.430680        38.9308 
 296   0.0000       1.443151        39.2701 
 297   0.0000       1.453745        39.5584 
 298   0.0000       1.464610        39.8541 
 299   0.0000       1.473704        40.1015 
 300   0.0000       1.475607        40.1533 
 301   0.0000       1.481551        40.3151 
 302   0.0000       1.484158        40.3860 
 303   0.0000       1.486254        40.4430 
 304   0.0000       1.499558        40.8050 
 305   0.0000       1.504140        40.9297 
 306   0.0000       1.509282        41.0696 
 307   0.0000       1.520780        41.3825 
 308   0.0000       1.533072        41.7170 
 309   0.0000       1.541192        41.9380 
 310   0.0000       1.556612        42.3576 
 311   0.0000       1.569674        42.7130 
 312   0.0000       1.581251        43.0280 
 313   0.0000       1.586754        43.1778 
 314   0.0000       1.596177        43.4342 
 315   0.0000       1.597908        43.4813 
 316   0.0000       1.598768        43.5047 
 317   0.0000       1.608199        43.7613 
 318   0.0000       1.611163        43.8420 
 319   0.0000       1.617266        44.0081 
 320   0.0000       1.624713        44.2107 
 321   0.0000       1.627895        44.2973 
 322   0.0000       1.631078        44.3839 
 323   0.0000       1.635338        44.4998 
 324   0.0000       1.639063        44.6012 
 325   0.0000       1.639508        44.6133 
 326   0.0000       1.646547        44.8048 
 327   0.0000       1.646687        44.8086 
 328   0.0000       1.650451        44.9111 
 329   0.0000       1.651769        44.9469 
 330   0.0000       1.660253        45.1778 
 331   0.0000       1.670296        45.4511 
 332   0.0000       1.671613        45.4869 
 333   0.0000       1.677183        45.6385 
 334   0.0000       1.681852        45.7655 
 335   0.0000       1.686984        45.9052 
 336   0.0000       1.687714        45.9250 
 337   0.0000       1.692854        46.0649 
 338   0.0000       1.698048        46.2062 
 339   0.0000       1.701086        46.2889 
 340   0.0000       1.704536        46.3828 
 341   0.0000       1.705765        46.4162 
 342   0.0000       1.709247        46.5110 
 343   0.0000       1.718171        46.7538 
 344   0.0000       1.721959        46.8569 
 345   0.0000       1.735095        47.2143 
 346   0.0000       1.738538        47.3080 
 347   0.0000       1.741556        47.3902 
 348   0.0000       1.745250        47.4907 
 349   0.0000       1.760848        47.9151 
 350   0.0000       1.770217        48.1701 
 351   0.0000       1.772189        48.2237 
 352   0.0000       1.781659        48.4814 
 353   0.0000       1.784702        48.5642 
 354   0.0000       1.788845        48.6770 
 355   0.0000       1.794518        48.8313 
 356   0.0000       1.797605        48.9153 
 357   0.0000       1.803439        49.0741 
 358   0.0000       1.806488        49.1570 
 359   0.0000       1.818005        49.4704 
 360   0.0000       1.826244        49.6946 
 361   0.0000       1.826756        49.7086 
 362   0.0000       1.835330        49.9419 
 363   0.0000       1.841257        50.1032 
 364   0.0000       1.848480        50.2997 
 365   0.0000       1.848678        50.3051 
 366   0.0000       1.852771        50.4165 
 367   0.0000       1.862960        50.6937 
 368   0.0000       1.874181        50.9991 
 369   0.0000       1.884433        51.2780 
 370   0.0000       1.892219        51.4899 
 371   0.0000       1.901578        51.7446 
 372   0.0000       1.911298        52.0091 
 373   0.0000       1.922531        52.3147 
 374   0.0000       1.924848        52.3778 
 375   0.0000       1.932846        52.5954 
 376   0.0000       1.949843        53.0579 
 377   0.0000       1.957234        53.2591 
 378   0.0000       1.963742        53.4361 
 379   0.0000       1.972637        53.6782 
 380   0.0000       1.978842        53.8470 
 381   0.0000       1.989289        54.1313 
 382   0.0000       1.994207        54.2651 
 383   0.0000       1.994555        54.2746 
 384   0.0000       2.018774        54.9336 
 385   0.0000       2.034909        55.3727 
 386   0.0000       2.040932        55.5366 
 387   0.0000       2.051582        55.8264 
 388   0.0000       2.066298        56.2268 
 389   0.0000       2.075866        56.4872 
 390   0.0000       2.078328        56.5542 
 391   0.0000       2.088303        56.8256 
 392   0.0000       2.108075        57.3636 
 393   0.0000       2.118408        57.6448 
 394   0.0000       2.130137        57.9640 
 395   0.0000       2.140108        58.2353 
 396   0.0000       2.155621        58.6574 
 397   0.0000       2.156056        58.6693 
 398   0.0000       2.172875        59.1269 
 399   0.0000       2.192120        59.6506 
 400   0.0000       2.192310        59.6558 
 401   0.0000       2.198106        59.8135 
 402   0.0000       2.210281        60.1448 
 403   0.0000       2.226810        60.5946 
 404   0.0000       2.230815        60.7036 
 405   0.0000       2.231791        60.7301 
 406   0.0000       2.235515        60.8314 
 407   0.0000       2.248439        61.1831 
 408   0.0000       2.273803        61.8733 
 409   0.0000       2.282048        62.0977 
 410   0.0000       2.301412        62.6246 
 411   0.0000       2.303961        62.6940 
 412   0.0000       2.305083        62.7245 
 413   0.0000       2.321752        63.1781 
 414   0.0000       2.329228        63.3815 
 415   0.0000       2.342324        63.7379 
 416   0.0000       2.359572        64.2072 
 417   0.0000       2.371019        64.5187 
 418   0.0000       2.377932        64.7068 
 419   0.0000       2.408233        65.5314 
 420   0.0000       2.408607        65.5415 
 421   0.0000       2.410938        65.6050 
 422   0.0000       2.414018        65.6888 
 423   0.0000       2.414504        65.7020 
 424   0.0000       2.418528        65.8115 
 425   0.0000       2.419972        65.8508 
 426   0.0000       2.429218        66.1024 
 427   0.0000       2.437506        66.3279 
 428   0.0000       2.449762        66.6614 
 429   0.0000       2.452120        66.7256 
 430   0.0000       2.484209        67.5988 
 431   0.0000       2.506354        68.2014 
 432   0.0000       2.522669        68.6453 
 433   0.0000       2.544893        69.2500 
 434   0.0000       2.548695        69.3535 
 435   0.0000       2.559986        69.6608 
 436   0.0000       2.580730        70.2252 
 437   0.0000       2.601403        70.7878 
 438   0.0000       2.615817        71.1800 
 439   0.0000       2.625485        71.4431 
 440   0.0000       2.637593        71.7725 
 441   0.0000       2.642543        71.9073 
 442   0.0000       2.653489        72.2051 
 443   0.0000       2.681306        72.9620 
 444   0.0000       2.712193        73.8025 
 445   0.0000       2.713660        73.8424 
 446   0.0000       2.719288        73.9956 
 447   0.0000       2.723438        74.1085 
 448   0.0000       2.733618        74.3855 
 449   0.0000       2.781781        75.6961 
 450   0.0000       2.806567        76.3706 
 451   0.0000       2.844393        77.3999 
 452   0.0000       2.863600        77.9225 
 453   0.0000       2.876544        78.2747 
 454   0.0000       2.892790        78.7168 
 455   0.0000       2.997122        81.5558 
 456   0.0000       3.074210        83.6535 
 457   0.0000       3.095969        84.2456 
 458   0.0000       3.202998        87.1580 
 459   0.0000       3.395447        92.3948 
 460   0.0000       3.584043        97.5268 

                 SPIN DOWN ORBITALS
  NO   OCC          E(Eh)            E(eV) 
   0   1.0000     -10.216561      -278.0068 
   1   1.0000     -10.213528      -277.9242 
   2   1.0000     -10.209982      -277.8277 
   3   1.0000     -10.200822      -277.5785 
   4   1.0000     -10.198758      -277.5223 
   5   1.0000     -10.197489      -277.4878 
   6   1.0000     -10.197372      -277.4846 
   7   1.0000     -10.196348      -277.4567 
   8   1.0000     -10.195690      -277.4388 
   9   1.0000     -10.195522      -277.4343 
  10   1.0000     -10.191697      -277.3302 
  11   1.0000     -10.191207      -277.3169 
  12   1.0000     -10.190179      -277.2889 
  13   1.0000     -10.190026      -277.2847 
  14   1.0000     -10.188649      -277.2472 
  15   1.0000     -10.187700      -277.2214 
  16   1.0000     -10.187142      -277.2062 
  17   1.0000     -10.183828      -277.1160 
  18   1.0000     -10.183560      -277.1088 
  19   1.0000     -10.182051      -277.0677 
  20   1.0000     -10.182044      -277.0675 
  21   1.0000     -10.181734      -277.0591 
  22   1.0000     -10.176966      -276.9293 
  23   1.0000     -10.175688      -276.8946 
  24   1.0000      -0.870398       -23.6847 
  25   1.0000      -0.863533       -23.4979 
  26   1.0000      -0.814992       -22.1771 
  27   1.0000      -0.796721       -21.6799 
  28   1.0000      -0.794172       -21.6105 
  29   1.0000      -0.777947       -21.1690 
  30   1.0000      -0.765709       -20.8360 
  31   1.0000      -0.751319       -20.4444 
  32   1.0000      -0.742984       -20.2176 
  33   1.0000      -0.726386       -19.7660 
  34   1.0000      -0.712222       -19.3805 
  35   1.0000      -0.695393       -18.9226 
  36   1.0000      -0.653567       -17.7845 
  37   1.0000      -0.641827       -17.4650 
  38   1.0000      -0.617147       -16.7934 
  39   1.0000      -0.609342       -16.5810 
  40   1.0000      -0.608752       -16.5650 
  41   1.0000      -0.591510       -16.0958 
  42   1.0000      -0.578308       -15.7366 
  43   1.0000      -0.558721       -15.2036 
  44   1.0000      -0.540564       -14.7095 
  45   1.0000      -0.528006       -14.3678 
  46   1.0000      -0.504090       -13.7170 
  47   1.0000      -0.488270       -13.2865 
  48   1.0000      -0.479810       -13.0563 
  49   1.0000      -0.475157       -12.9297 
  50   1.0000      -0.469948       -12.7879 
  51   1.0000      -0.458538       -12.4775 
  52   1.0000      -0.458013       -12.4632 
  53   1.0000      -0.436849       -11.8873 
  54   1.0000      -0.429955       -11.6997 
  55   1.0000      -0.427950       -11.6451 
  56   1.0000      -0.424915       -11.5625 
  57   1.0000      -0.424467       -11.5503 
  58   1.0000      -0.419384       -11.4120 
  59   1.0000      -0.411293       -11.1919 
  60   1.0000      -0.396693       -10.7946 
  61   1.0000      -0.390540       -10.6271 
  62   1.0000      -0.383139       -10.4258 
  63   1.0000      -0.376151       -10.2356 
  64   1.0000      -0.374180       -10.1820 
  65   1.0000      -0.364025        -9.9056 
  66   1.0000      -0.361615        -9.8401 
  67   1.0000      -0.355667        -9.6782 
  68   1.0000      -0.351164        -9.5557 
  69   1.0000      -0.350749        -9.5444 
  70   1.0000      -0.337993        -9.1973 
  71   1.0000      -0.331907        -9.0316 
  72   1.0000      -0.330684        -8.9984 
  73   1.0000      -0.328124        -8.9287 
  74   1.0000      -0.327401        -8.9090 
  75   1.0000      -0.323426        -8.8009 
  76   1.0000      -0.321471        -8.7477 
  77   1.0000      -0.294149        -8.0042 
  78   1.0000      -0.272849        -7.4246 
  79   1.0000      -0.268477        -7.3056 
  80   1.0000      -0.261332        -7.1112 
  81   1.0000      -0.259215        -7.0536 
  82   1.0000      -0.252336        -6.8664 
  83   1.0000      -0.207346        -5.6422 
  84   0.0000      -0.082828        -2.2539 
  85   0.0000      -0.052293        -1.4230 
  86   0.0000      -0.010852        -0.2953 
  87   0.0000      -0.007245        -0.1971 
  88   0.0000       0.034242         0.9318 
  89   0.0000       0.042272         1.1503 
  90   0.0000       0.051198         1.3932 
  91   0.0000       0.054274         1.4769 
  92   0.0000       0.063381         1.7247 
  93   0.0000       0.064909         1.7663 
  94   0.0000       0.070785         1.9261 
  95   0.0000       0.078774         2.1435 
  96   0.0000       0.084343         2.2951 
  97   0.0000       0.089316         2.4304 
  98   0.0000       0.095569         2.6006 
  99   0.0000       0.095773         2.6061 
 100   0.0000       0.099505         2.7077 
 101   0.0000       0.103251         2.8096 
 102   0.0000       0.104868         2.8536 
 103   0.0000       0.113766         3.0957 
 104   0.0000       0.121887         3.3167 
 105   0.0000       0.126215         3.4345 
 106   0.0000       0.130256         3.5445 
 107   0.0000       0.138235         3.7616 
 108   0.0000       0.143226         3.8974 
 109   0.0000       0.149599         4.0708 
 110   0.0000       0.152758         4.1568 
 111   0.0000       0.155559         4.2330 
 112   0.0000       0.159430         4.3383 
 113   0.0000       0.161038         4.3821 
 114   0.0000       0.162010         4.4085 
 115   0.0000       0.166848         4.5402 
 116   0.0000       0.173757         4.7282 
 117   0.0000       0.176208         4.7949 
 118   0.0000       0.188556         5.1309 
 119   0.0000       0.205170         5.5830 
 120   0.0000       0.213295         5.8040 
 121   0.0000       0.215204         5.8560 
 122   0.0000       0.218676         5.9505 
 123   0.0000       0.222694         6.0598 
 124   0.0000       0.225643         6.1401 
 125   0.0000       0.244856         6.6629 
 126   0.0000       0.252286         6.8651 
 127   0.0000       0.268335         7.3018 
 128   0.0000       0.268986         7.3195 
 129   0.0000       0.278853         7.5880 
 130   0.0000       0.286420         7.7939 
 131   0.0000       0.292586         7.9617 
 132   0.0000       0.307852         8.3771 
 133   0.0000       0.314677         8.5628 
 134   0.0000       0.321729         8.7547 
 135   0.0000       0.333021         9.0620 
 136   0.0000       0.349071         9.4987 
 137   0.0000       0.361614         9.8400 
 138   0.0000       0.366994         9.9864 
 139   0.0000       0.379045        10.3143 
 140   0.0000       0.392243        10.6735 
 141   0.0000       0.406343        11.0571 
 142   0.0000       0.412161        11.2155 
 143   0.0000       0.414070        11.2674 
 144   0.0000       0.419932        11.4269 
 145   0.0000       0.422743        11.5034 
 146   0.0000       0.432399        11.7662 
 147   0.0000       0.442742        12.0476 
 148   0.0000       0.450300        12.2533 
 149   0.0000       0.450772        12.2661 
 150   0.0000       0.455553        12.3962 
 151   0.0000       0.457347        12.4451 
 152   0.0000       0.467494        12.7212 
 153   0.0000       0.473453        12.8833 
 154   0.0000       0.475525        12.9397 
 155   0.0000       0.475910        12.9502 
 156   0.0000       0.480247        13.0682 
 157   0.0000       0.484457        13.1828 
 158   0.0000       0.493065        13.4170 
 159   0.0000       0.501029        13.6337 
 160   0.0000       0.501485        13.6461 
 161   0.0000       0.503394        13.6980 
 162   0.0000       0.507266        13.8034 
 163   0.0000       0.508963        13.8496 
[...]
  Y           0.5857390           -0.0003861            0.8104997
  Z          -0.0002414           -0.9999999           -0.0003019

Notes:  (1) The A matrix conforms to the "SAI" spin Hamiltonian convention.
        (2) Tensor is right-handed.

 -----------------------------------------------------------
 Nucleus  46H : A:ISTP=    1 I=  0.5 P=533.5514 MHz/au**3
                Q:ISTP=    2 I=  1.0 Q=  0.0029 barn     
 -----------------------------------------------------------
 Solving for nuclear perturbation:
Forming RHS of the CP-SCF equations         ... 
Calc. nucleus orbit integrals (SHARK)       ... done

------------------------------------------------------------------------------
                           ORCA CP-SCF CALCULATION
------------------------------------------------------------------------------

Input orbitals are from        ... cc-pVDZ.gbw
Input Perturbation             ... cc-pVDZ.pin.tmp
Wavefunction output            ... cc-pVDZ.pout.tmp
Perturbation mode              ... Imaginary perturbation
Solver                         ... POPLE
Max. number of iterations      ... 64
Convergence tolerance          ... 1.000e-03
Integral handling              ... Direct
DFT GridXC                     ... 1
COSX GridX                     ... 1
COSX IntAccX                   ... 3.067
COSX Algorithm                 ... Auto
Number of perturbations        ... 3
Number of operators            ... 2
Orbital ranges used for CP-SCF:
 Operator 0:  Orbitals   0... 84  to  85...460
 Operator 1:  Orbitals   0... 83  to  84...460
Variables per perturbation     ... 63628
DFT calculation                         ... on
XC functional terms                     ... off
Hybrid DFT                              ... on
   Exchange mixing (SCF)                ...  0.200
   Exchange mixing (CP-SCF)             ...  0.200
   GGA exch. scaling(SCF)               ...  0.720
   GGA exch. scaling (CP-SCF)           ...  0.720
   GGA corr. scaling (SCF)              ...  0.810
   GGA corr. scaling (CP-SCF)           ...  0.810

CP-SCF GRID
-----------

General Integration Accuracy     IntAcc      ... 3.467
Radial Grid Type                 RadialGrid  ... OptM3 with GC (2021)
Angular Grid (max. ang.)         AngularGrid ... 1 (Lebedev-50)
Angular grid pruning method      GridPruning ... 4 (adaptive)
Weight generation scheme         WeightScheme... Becke
Basis function cutoff            BFCut       ... 1.0000e-10
Integration weight cutoff        WCut        ... 1.0000e-14
Angular grids for H and He will be reduced by one unit
Partially contracted basis set               ... off
Rotationally invariant grid construction     ... off

Total number of grid points                  ...    31887
Total number of batches                      ...      520
Average number of points per batch           ...       61
Average number of grid points per atom       ...      651

CP-SCF GRIDX
------------

General Integration Accuracy     IntAcc      ... 3.067
Radial Grid Type                 RadialGrid  ... OptM3 with GC (2021)
Angular Grid (max. ang.)         AngularGrid ... 1 (Lebedev-50)
Angular grid pruning method      GridPruning ... 4 (adaptive)
Weight generation scheme         WeightScheme... Becke
Basis function cutoff            BFCut       ... 1.0000e-10
Integration weight cutoff        WCut        ... 1.0000e-14
Angular grids for H and He will be reduced by one unit
Partially contracted basis set               ... on
Rotationally invariant grid construction     ... off

Total number of grid points                  ...    14950
Total number of batches                      ...      265
Average number of points per batch           ...       56
Average number of grid points per atom       ...      305

Memory available               ... 875.8 MB
Memory needed per perturbation ...  13.4 MB
Perturbations treated per batch... 3
Number of batches              ... 1
     CP-SCF ITERATION   0:   4.5377e-02 (   2.0 sec   0/  3 done)
     CP-SCF ITERATION   1:   1.9121e-03 (   1.9 sec   0/  3 done)
     CP-SCF ITERATION   2:   1.3373e-04 (   2.1 sec   3/  3 done)
                    *** THE CP-SCF HAS CONVERGED ***

Forming final perturbed densities           ... done
Transforming perturbed density to AO basis  ... done

 Raw HFC matrix (all values in MHz): 
 -----------------------------------
                 1.2500              -0.2842              -0.0001
                -0.2840               0.1050               0.0000
                -0.0001               0.0000               0.4300

 A(FC)           0.5950               0.5950               0.5950
 A(SD)          -0.5566              -0.1651               0.7217
 A(ORB+DIA)     -0.0001               0.0001              -0.0001    A(PC) =  -0.0000
 A(ORB)         -0.0001               0.0000              -0.0001    A(PC) =  -0.0001
 A(DIA)         -0.0000               0.0001               0.0000    A(PC) =   0.0000
             ----------           ----------           ----------
 A(Tot)          0.0384               0.4300               1.3167    A(iso)=    0.5950
 Orientation: 
  X           0.2283787           -0.0001002           -0.9735724
  Y           0.9735724            0.0000015            0.2283787
  Z          -0.0000215           -1.0000000            0.0000979

Notes:  (1) The A matrix conforms to the "SAI" spin Hamiltonian convention.
        (2) Tensor is right-handed.

 -----------------------------------------------------------
 Nucleus  47H : A:ISTP=    1 I=  0.5 P=533.5514 MHz/au**3
                Q:ISTP=    2 I=  1.0 Q=  0.0029 barn     
 -----------------------------------------------------------
 Solving for nuclear perturbation:
Forming RHS of the CP-SCF equations         ... 
Calc. nucleus orbit integrals (SHARK)       ... done

------------------------------------------------------------------------------
                           ORCA CP-SCF CALCULATION
------------------------------------------------------------------------------

Input orbitals are from        ... cc-pVDZ.gbw
Input Perturbation             ... cc-pVDZ.pin.tmp
Wavefunction output            ... cc-pVDZ.pout.tmp
Perturbation mode              ... Imaginary perturbation
Solver                         ... POPLE
Max. number of iterations      ... 64
Convergence tolerance          ... 1.000e-03
Integral handling              ... Direct
DFT GridXC                     ... 1
COSX GridX                     ... 1
COSX IntAccX                   ... 3.067
COSX Algorithm                 ... Auto
Number of perturbations        ... 3
Number of operators            ... 2
Orbital ranges used for CP-SCF:
 Operator 0:  Orbitals   0... 84  to  85...460
 Operator 1:  Orbitals   0... 83  to  84...460
Variables per perturbation     ... 63628
DFT calculation                         ... on
XC functional terms                     ... off
Hybrid DFT                              ... on
   Exchange mixing (SCF)                ...  0.200
   Exchange mixing (CP-SCF)             ...  0.200
   GGA exch. scaling(SCF)               ...  0.720
   GGA exch. scaling (CP-SCF)           ...  0.720
   GGA corr. scaling (SCF)              ...  0.810
   GGA corr. scaling (CP-SCF)           ...  0.810

CP-SCF GRID
-----------

General Integration Accuracy     IntAcc      ... 3.467
Radial Grid Type                 RadialGrid  ... OptM3 with GC (2021)
Angular Grid (max. ang.)         AngularGrid ... 1 (Lebedev-50)
Angular grid pruning method      GridPruning ... 4 (adaptive)
Weight generation scheme         WeightScheme... Becke
Basis function cutoff            BFCut       ... 1.0000e-10
Integration weight cutoff        WCut        ... 1.0000e-14
Angular grids for H and He will be reduced by one unit
Partially contracted basis set               ... off
Rotationally invariant grid construction     ... off

Total number of grid points                  ...    31887
Total number of batches                      ...      520
Average number of points per batch           ...       61
Average number of grid points per atom       ...      651

CP-SCF GRIDX
------------

General Integration Accuracy     IntAcc      ... 3.067
Radial Grid Type                 RadialGrid  ... OptM3 with GC (2021)
Angular Grid (max. ang.)         AngularGrid ... 1 (Lebedev-50)
Angular grid pruning method      GridPruning ... 4 (adaptive)
Weight generation scheme         WeightScheme... Becke
Basis function cutoff            BFCut       ... 1.0000e-10
Integration weight cutoff        WCut        ... 1.0000e-14
Angular grids for H and He will be reduced by one unit
Partially contracted basis set               ... on
Rotationally invariant grid construction     ... off

Total number of grid points                  ...    14950
Total number of batches                      ...      265
Average number of points per batch           ...       56
Average number of grid points per atom       ...      305

Memory available               ... 875.2 MB
Memory needed per perturbation ...  13.4 MB
Perturbations treated per batch... 3
Number of batches              ... 1
     CP-SCF ITERATION   0:   4.5407e-02 (   2.1 sec   0/  3 done)
     CP-SCF ITERATION   1:   1.9108e-03 (   2.0 sec   0/  3 done)
     CP-SCF ITERATION   2:   1.3640e-04 (   2.0 sec   3/  3 done)
                    *** THE CP-SCF HAS CONVERGED ***

Forming final perturbed densities           ... done
Transforming perturbed density to AO basis  ... done

 Raw HFC matrix (all values in MHz): 
 -----------------------------------
                 1.1224               0.3732              -0.0001
                 0.3731               0.1853               0.0001
                -0.0001               0.0001               0.4778

 A(FC)           0.5953               0.5953               0.5953
 A(SD)          -0.5402              -0.1175               0.6577
 A(ORB+DIA)     -0.0001               0.0001              -0.0001    A(PC) =  -0.0001
 A(ORB)         -0.0001               0.0000              -0.0002    A(PC) =  -0.0001
 A(DIA)         -0.0000               0.0001               0.0000    A(PC) =   0.0000
             ----------           ----------           ----------
 A(Tot)          0.0549               0.4778               1.2528    A(iso)=    0.5952
 Orientation: 
  X          -0.3300125           -0.0000043            0.9439765
  Y           0.9439765            0.0002006            0.3300125
  Z          -0.0001908            1.0000000           -0.0000622

Notes:  (1) The A matrix conforms to the "SAI" spin Hamiltonian convention.
        (2) Tensor is right-handed.

 -----------------------------------------------------------
 Nucleus  48H : A:ISTP=    1 I=  0.5 P=533.5514 MHz/au**3
                Q:ISTP=    2 I=  1.0 Q=  0.0029 barn     
 -----------------------------------------------------------
 Solving for nuclear perturbation:
Forming RHS of the CP-SCF equations         ... 
Calc. nucleus orbit integrals (SHARK)       ... done

------------------------------------------------------------------------------
                           ORCA CP-SCF CALCULATION
------------------------------------------------------------------------------

Input orbitals are from        ... cc-pVDZ.gbw
Input Perturbation             ... cc-pVDZ.pin.tmp
Wavefunction output            ... cc-pVDZ.pout.tmp
Perturbation mode              ... Imaginary perturbation
Solver                         ... POPLE
Max. number of iterations      ... 64
Convergence tolerance          ... 1.000e-03
Integral handling              ... Direct
DFT GridXC                     ... 1
COSX GridX                     ... 1
COSX IntAccX                   ... 3.067
COSX Algorithm                 ... Auto
Number of perturbations        ... 3
Number of operators            ... 2
Orbital ranges used for CP-SCF:
 Operator 0:  Orbitals   0... 84  to  85...460
 Operator 1:  Orbitals   0... 83  to  84...460
Variables per perturbation     ... 63628
DFT calculation                         ... on
XC functional terms                     ... off
Hybrid DFT                              ... on
   Exchange mixing (SCF)                ...  0.200
   Exchange mixing (CP-SCF)             ...  0.200
   GGA exch. scaling(SCF)               ...  0.720
   GGA exch. scaling (CP-SCF)           ...  0.720
   GGA corr. scaling (SCF)              ...  0.810
   GGA corr. scaling (CP-SCF)           ...  0.810

CP-SCF GRID
-----------

General Integration Accuracy     IntAcc      ... 3.467
Radial Grid Type                 RadialGrid  ... OptM3 with GC (2021)
Angular Grid (max. ang.)         AngularGrid ... 1 (Lebedev-50)
Angular grid pruning method      GridPruning ... 4 (adaptive)
Weight generation scheme         WeightScheme... Becke
Basis function cutoff            BFCut       ... 1.0000e-10
Integration weight cutoff        WCut        ... 1.0000e-14
Angular grids for H and He will be reduced by one unit
Partially contracted basis set               ... off
Rotationally invariant grid construction     ... off

Total number of grid points                  ...    31887
Total number of batches                      ...      520
Average number of points per batch           ...       61
Average number of grid points per atom       ...      651

CP-SCF GRIDX
------------

General Integration Accuracy     IntAcc      ... 3.067
Radial Grid Type                 RadialGrid  ... OptM3 with GC (2021)
Angular Grid (max. ang.)         AngularGrid ... 1 (Lebedev-50)
Angular grid pruning method      GridPruning ... 4 (adaptive)
Weight generation scheme         WeightScheme... Becke
Basis function cutoff            BFCut       ... 1.0000e-10
Integration weight cutoff        WCut        ... 1.0000e-14
Angular grids for H and He will be reduced by one unit
Partially contracted basis set               ... on
Rotationally invariant grid construction     ... off

Total number of grid points                  ...    14950
Total number of batches                      ...      265
Average number of points per batch           ...       56
Average number of grid points per atom       ...      305

Memory available               ... 874.7 MB
Memory needed per perturbation ...  13.4 MB
Perturbations treated per batch... 3
Number of batches              ... 1
     CP-SCF ITERATION   0:   4.1556e-02 (   2.0 sec   0/  3 done)
     CP-SCF ITERATION   1:   1.6791e-03 (   1.8 sec   2/  3 done)
     CP-SCF ITERATION   2:   7.5528e-05 (   1.2 sec   3/  3 done)
                    *** THE CP-SCF HAS CONVERGED ***

Forming final perturbed densities           ... done
Transforming perturbed density to AO basis  ... done

 Raw HFC matrix (all values in MHz): 
 -----------------------------------
                -0.1365              -0.0961              -0.0001
                -0.0961              -0.3013              -0.0000
                -0.0001              -0.0000              -0.2428

 A(FC)          -0.2269              -0.2269              -0.2269
 A(SD)           0.1345              -0.0159              -0.1187
 A(ORB+DIA)      0.0001               0.0000               0.0000    A(PC) =   0.0000
 A(ORB)          0.0000               0.0000               0.0000    A(PC) =   0.0000
 A(DIA)          0.0000               0.0000               0.0000    A(PC) =   0.0000
             ----------           ----------           ----------
 A(Tot)         -0.0923              -0.2428              -0.3455    A(iso)=   -0.2269
 Orientation: 
  X           0.9085362           -0.0001550            0.4178061
  Y          -0.4178060            0.0004361            0.9085361
  Z          -0.0003230           -0.9999999            0.0003314

Notes:  (1) The A matrix conforms to the "SAI" spin Hamiltonian convention.
        (2) Tensor is right-handed.


--------------------------------------------------------------------------------
----------------------------------------------------------------------------
                           ORCA EULER ANGLE PROGRAM
----------------------------------------------------------------------------

Only g-tensor available        -->  using g-tensor as reference tensor

Reference tensor               ...  g

g-tensor ordering              ...  |g_min> --> |gx>
                                    |g_mid> --> |gy>
                                    |g_max> --> |gz>

A- and EFG-tensor ordering     ...  the axes |Ax>, |Qx>, |Ay>, etc. are assigned
                                    such that the Euler rotation is minimal. You
                                    can find the respective eigenvalues as Ax,
                                    EFGx, Ay, etc. in the tables below.
                                    The relation of |Ax>, |Ay>,  etc. to Amin, Amid, etc.
                                    (as printed in the ORCA EPR/NMR CALCULATION Output)
                                    is obtained in the detailed printout.

Euler rotation around          ...  z - y - z
   First rotation              -->  by alpha around z
   Second rotation             -->  by beta around y'
   Third rotation              -->  by gamma around z''
   Positive / Negative angle   -->  clockwise / counterclockwise rotation

Plot EFG-tensors                    (-)
Plot HFC-tensors                    (-)
Detailed Printout                   (-)

-------------------------------------------------------------------------
          Euler rotation of hyperfine tensor to g-tensor
-------------------------------------------------------------------------

-------------------------------------------------------------------
 Atom  |   Alpha    Beta    Gamma   |   Ax       Ay       Az 
       |          [degrees]         |           [MHz]         
-------------------------------------------------------------------
  9H      -89.9      2.6     89.9     -16.03    -6.94   -19.48
 10H      -90.1      5.2     90.1       3.90     4.63     9.38
 12H      -90.0     42.9     90.0     -46.52   -71.55   -17.39
 14H     -166.8     12.2   -175.4      57.49    67.15    58.81
 15H      -13.2     12.0     -4.6      57.35    67.01    58.67
 17H      152.2     29.4   -120.8      -3.21    -3.04     3.21
 18H       27.9     29.2    -59.5      -3.20    -3.04     3.21
 20H      -49.0     47.2     26.1      -0.10     2.26     0.02
 21H     -131.1     47.3    154.1      -0.10     2.26     0.02
 23H      -32.2     17.5     -8.9      20.20    20.76    23.90
 24H     -147.8     17.5   -171.1      20.19    20.76    23.90
 26H      -95.7     29.1     82.3      -0.98     1.00    -0.86
 27H      -84.4     29.1     97.7      -0.98     1.00    -0.86
 29H      109.7     30.8    -73.0      -0.10    -0.15     0.81
 30H       70.3     30.8   -107.0      -0.10    -0.15     0.81
 32H      -85.5     41.9     93.9      -0.13     0.39    -0.11
 33H      -94.5     41.9     86.1      -0.13     0.39    -0.11
 35H       90.2     41.3    -90.0      -7.79    -2.27   -10.74
 36H       89.5     39.5    -90.0      -0.80    -0.82     0.77
 37H       90.1     38.3    -90.0      -0.13    -0.13     0.24
 44H      -90.0     44.4     90.0       0.57     0.99     0.34
 45H      -90.2      5.2     90.2      -0.23    -0.38    -0.07
 46H       90.0     35.7    -90.0       0.43     1.32     0.04
 47H      -90.0     21.8     90.0       0.48     0.05     1.25
 48H       90.0     24.2    -89.9      -0.24    -0.09    -0.35
-------------------------------------------------------------------


Maximum memory used throughout the entire EPRNMR-calculation: 219.1 MB

Timings for individual modules:

Sum of individual times         ...     4861.525 sec (=  81.025 min)
GTO integral calculation        ...        4.699 sec (=   0.078 min)   0.1 %
Spin-Orbit-Coupling Matrices    ...        9.225 sec (=   0.154 min)   0.2 %
SCF iterations                  ...       93.577 sec (=   1.560 min)   1.9 %
EPR/NMR calculation             ...     4754.023 sec (=  79.234 min)  97.8 %
                             ****ORCA TERMINATED NORMALLY****
TOTAL RUN TIME: 0 days 1 hours 21 minutes 5 seconds 505 msec
