
                                 *****************
                                 * O   R   C   A *
                                 *****************

                                            #,                                       
                                            ###                                      
                                            ####                                     
                                            #####                                    
                                            ######                                   
                                           ########,                                 
                                     ,,################,,,,,                         
                               ,,#################################,,                 
                          ,,##########################################,,             
                       ,#########################################, ''#####,          
                    ,#############################################,,   '####,        
                  ,##################################################,,,,####,       
                ,###########''''           ''''###############################       
              ,#####''   ,,,,##########,,,,          '''####'''          '####       
            ,##' ,,,,###########################,,,                        '##       
           ' ,,###''''                  '''############,,,                           
         ,,##''                                '''############,,,,        ,,,,,,###''
      ,#''                                            '''#######################'''  
     '                                                          ''''####''''         
             ,#######,   #######,   ,#######,      ##                                
            ,#'     '#,  ##    ##  ,#'     '#,    #''#        ######   ,####,        
            ##       ##  ##   ,#'  ##            #'  '#       #        #'  '#        
            ##       ##  #######   ##           ,######,      #####,   #    #        
            '#,     ,#'  ##    ##  '#,     ,#' ,#      #,         ##   #,  ,#        
             '#######'   ##     ##  '#######'  #'      '#     #####' # '####'        



                  #######################################################
                  #                        -***-                        #
                  #          Department of theory and spectroscopy      #
                  #    Directorship and core code : Frank Neese         #
                  #        Max Planck Institute fuer Kohlenforschung    #
                  #                Kaiser Wilhelm Platz 1               #
                  #                 D-45470 Muelheim/Ruhr               #
                  #                      Germany                        #
                  #                                                     #
                  #                  All rights reserved                #
                  #                        -***-                        #
                  #######################################################


                         Program Version 5.0.4 -  RELEASE  -


 With contributions from (in alphabetic order):
   Daniel Aravena         : Magnetic Suceptibility
   Michael Atanasov       : Ab Initio Ligand Field Theory (pilot matlab implementation)
   Alexander A. Auer      : GIAO ZORA, VPT2 properties, NMR spectrum
   Ute Becker             : Parallelization
   Giovanni Bistoni       : ED, misc. LED, open-shell LED, HFLD
   Martin Brehm           : Molecular dynamics
   Dmytro Bykov           : SCF Hessian
   Vijay G. Chilkuri      : MRCI spin determinant printing, contributions to CSF-ICE
   Dipayan Datta          : RHF DLPNO-CCSD density
   Achintya Kumar Dutta   : EOM-CC, STEOM-CC
   Dmitry Ganyushin       : Spin-Orbit,Spin-Spin,Magnetic field MRCI
   Miquel Garcia          : C-PCM and meta-GGA Hessian, CC/C-PCM, Gaussian charge scheme
   Yang Guo               : DLPNO-NEVPT2, F12-NEVPT2, CIM, IAO-localization
   Andreas Hansen         : Spin unrestricted coupled pair/coupled cluster methods
   Benjamin Helmich-Paris : MC-RPA, TRAH-SCF, COSX integrals
   Lee Huntington         : MR-EOM, pCC
   Robert Izsak           : Overlap fitted RIJCOSX, COSX-SCS-MP3, EOM
   Marcus Kettner         : VPT2
   Christian Kollmar      : KDIIS, OOCD, Brueckner-CCSD(T), CCSD density, CASPT2, CASPT2-K
   Simone Kossmann        : Meta GGA functionals, TD-DFT gradient, OOMP2, MP2 Hessian
   Martin Krupicka        : Initial AUTO-CI
   Lucas Lang             : DCDCAS
   Marvin Lechner         : AUTO-CI (C++ implementation), FIC-MRCC
   Dagmar Lenk            : GEPOL surface, SMD
   Dimitrios Liakos       : Extrapolation schemes; Compound Job, initial MDCI parallelization
   Dimitrios Manganas     : Further ROCIS development; embedding schemes
   Dimitrios Pantazis     : SARC Basis sets
   Anastasios Papadopoulos: AUTO-CI, single reference methods and gradients
   Taras Petrenko         : DFT Hessian,TD-DFT gradient, ASA, ECA, R-Raman, ABS, FL, XAS/XES, NRVS
   Peter Pinski           : DLPNO-MP2, DLPNO-MP2 Gradient
   Christoph Reimann      : Effective Core Potentials
   Marius Retegan         : Local ZFS, SOC
   Christoph Riplinger    : Optimizer, TS searches, QM/MM, DLPNO-CCSD(T), (RO)-DLPNO pert. Triples
   Tobias Risthaus        : Range-separated hybrids, TD-DFT gradient, RPA, STAB
   Michael Roemelt        : Original ROCIS implementation
   Masaaki Saitow         : Open-shell DLPNO-CCSD energy and density
   Barbara Sandhoefer     : DKH picture change effects
   Avijit Sen             : IP-ROCIS
   Kantharuban Sivalingam : CASSCF convergence, NEVPT2, FIC-MRCI
   Bernardo de Souza      : ESD, SOC TD-DFT
   Georgi Stoychev        : AutoAux, RI-MP2 NMR, DLPNO-MP2 response
   Willem Van den Heuvel  : Paramagnetic NMR
   Boris Wezisla          : Elementary symmetry handling
   Frank Wennmohs         : Technical directorship


 We gratefully acknowledge several colleagues who have allowed us to
 interface, adapt or use parts of their codes:
   Stefan Grimme, W. Hujo, H. Kruse, P. Pracht,  : VdW corrections, initial TS optimization,
                  C. Bannwarth, S. Ehlert          DFT functionals, gCP, sTDA/sTD-DF
   Ed Valeev, F. Pavosevic, A. Kumar             : LibInt (2-el integral package), F12 methods
   Garnet Chan, S. Sharma, J. Yang, R. Olivares  : DMRG
   Ulf Ekstrom                                   : XCFun DFT Library
   Mihaly Kallay                                 : mrcc  (arbitrary order and MRCC methods)
   Jiri Pittner, Ondrej Demel                    : Mk-CCSD
   Frank Weinhold                                : gennbo (NPA and NBO analysis)
   Christopher J. Cramer and Donald G. Truhlar   : smd solvation model
   Lars Goerigk                                  : TD-DFT with DH, B97 family of functionals
   V. Asgeirsson, H. Jonsson                     : NEB implementation
   FAccTs GmbH                                   : IRC, NEB, NEB-TS, DLPNO-Multilevel, CI-OPT
                                                   MM, QMMM, 2- and 3-layer-ONIOM, Crystal-QMMM,
                                                   LR-CPCM, SF, NACMEs, symmetry and pop. for TD-DFT,
                                                   nearIR, NL-DFT gradient (VV10), updates on ESD,
                                                   ML-optimized integration grids
   S Lehtola, MJT Oliveira, MAL Marques          : LibXC Library
   Liviu Ungur et al                             : ANISO software


 Your calculation uses the libint2 library for the computation of 2-el integrals
 For citations please refer to: http://libint.valeyev.net

 Your ORCA version has been built with support for libXC version: 5.1.0
 For citations please refer to: https://tddft.org/programs/libxc/

 This ORCA versions uses:
   CBLAS   interface :  Fast vector & matrix operations
   LAPACKE interface :  Fast linear algebra routines
   SCALAPACK package :  Parallel linear algebra routines
   Shared memory     :  Shared parallel matrices
   BLAS/LAPACK       :  OpenBLAS 0.3.15  USE64BITINT DYNAMIC_ARCH NO_AFFINITY SkylakeX SINGLE_THREADED
        Core in use  :  SkylakeX
   Copyright (c) 2011-2014, The OpenBLAS Project




***************************************
The coordinates will be read from file: opt_cc-pVDZ.xyz
***************************************


================================================================================

----- Orbital basis set information -----
Your calculation utilizes the basis: cc-pVDZ 
       H, B-Ne : Obtained from the ccRepo (grant-hill.group.shef.ac.uk/ccrepo) Feb. 2017
                 T. H. Dunning, Jr., J. Chem. Phys. 90, 1007 (1989)
            He : Obtained from the ccRepo (grant-hill.group.shef.ac.uk/ccrepo) Feb. 2017
                 D. E. Woon, T. H. Dunning, Jr., J. Chem. Phys. 100, 2975 (1994)
  Li-Be, Na-Mg : Obtained from the ccRepo (grant-hill.group.shef.ac.uk/ccrepo) Feb. 2017
                 B. P. Prascher, D. E. Woon, K. A. Peterson, T. H. Dunning, Jr., A. K. Wilson, Theor. Chem. Acc. 128, 69 (2011)
         Al-Ar : Obtained from the ccRepo (grant-hill.group.shef.ac.uk/ccrepo) Feb. 2017
                 D. E. Woon, T. H. Dunning, Jr., J. Chem. Phys. 98, 1358 (1993)
            Ca : Obtained from the Peterson Research Group Website (tyr0.chem.wsu.edu/~kipeters) Feb. 2017
                 J. Koput, K. A. Peterson, J. Phys. Chem. 106, 9595 (2002)
         Sc-Zn : Obtained from the ccRepo (grant-hill.group.shef.ac.uk/ccrepo) Feb. 2017
                 N. B. Balabanov, K. A. Peterson, J. Chem. Phys. 123, 064107 (2005)
                 N. B. Balabanov, K. A. Peterson, J. Chem. Phys. 125, 074110 (2006)
         Ga-Kr : Obtained from the ccRepo (grant-hill.group.shef.ac.uk/ccrepo) Feb. 2017
                 A. K. Wilson, D. E. Woon, K. A. Peterson, T. H. Dunning, Jr., J. Chem. Phys. 110, 7667 (1999)

----- AuxJ basis set information -----
Your calculation utilizes the AutoAux generation procedure.
  G. L. Stoychev, A. A. Auer, F. Neese, J. Chem. Theory Comput. 13, 554 (2017)

----- AuxC basis set information -----
Your calculation utilizes the AutoAux generation procedure.
  G. L. Stoychev, A. A. Auer, F. Neese, J. Chem. Theory Comput. 13, 554 (2017)

----- AuxJK basis set information -----
Your calculation utilizes the AutoAux generation procedure.
  G. L. Stoychev, A. A. Auer, F. Neese, J. Chem. Theory Comput. 13, 554 (2017)

================================================================================
                                        WARNINGS
                       Please study these warnings very carefully!
================================================================================

WARNING: Old DensityContainer found on disk!
         Will remove this file - 
         If you want to keep old densities, please start your calculation with a different basename. 


WARNING: your system is open-shell and RHF/RKS was chosen
  ===> : WILL SWITCH to UHF/UKS


INFO   : the flag for use of the SHARK integral package has been found!

================================================================================
                                       INPUT FILE
================================================================================
NAME = cc-pVDZ.inp
|  1> ! B3LYP cc-pVDZ AUTOAUX
|  2> %pal nprocs 16 end
|  3> *XYZFile 0 2 opt_cc-pVDZ.xyz
|  4> %EPRNMR
|  5>         GTENSOR   TRUE
|  6>         NUCLEI    = ALL H {SHIFT, AISO, ADIP, AORB}
|  7>         ORI       CenterOfElCharge
|  8> END
|  9> 
| 10>                          ****END OF INPUT****
================================================================================

                       ****************************
                       * Single Point Calculation *
                       ****************************

---------------------------------
CARTESIAN COORDINATES (ANGSTROEM)
---------------------------------
  C     -4.052444    0.114576   -0.001917
  C     -2.836695    0.052025   -0.003549
  C      2.842695   -0.002426   -0.002408
  C     -1.410144    0.003191   -0.003255
  C     -0.707833   -1.257321   -0.002801
  C      0.713475   -1.191078   -0.002467
  C      1.414021    0.018615   -0.002638
  C      0.705646    1.262168   -0.003060
  C     -0.689967    1.210355   -0.003436
  H      1.289119   -2.116882   -0.002129
  H     -1.264137    2.136725   -0.003842
  C     -1.395767   -2.491604   -0.002682
  H     -2.488356   -2.454946   -0.003084
  C     -0.739360   -3.839669   -0.002176
  H     -0.068220   -3.935242   -0.880855
  H     -0.067023   -3.934025    0.875699
  C     -1.736885   -5.005361   -0.000686
  H     -2.395172   -4.914378    0.882525
  H     -2.396441   -4.915579   -0.883075
  C     -1.058620   -6.376565   -0.000244
  H     -0.417437   -6.506580    0.888808
  H     -0.418674   -6.507764   -0.890012
  C      1.478555    2.564463   -0.003144
  H      2.156290    2.563709    0.871191
  H      2.156815    2.563291   -0.877069
  C      0.659046    3.857635   -0.003676
  H     -0.004000    3.881923   -0.888042
  H     -0.004408    3.882379    0.880373
  C      1.539231    5.113403   -0.003803
  H      2.205315    5.090862    0.878749
  H      2.205482    5.090558   -0.886221
  C      0.732674    6.414392   -0.004106
  H      0.082535    6.482884    0.885190
  H      0.082600    6.482510   -0.893479
  C      4.064440   -0.027928   -0.003417
  H     -5.123092    0.174772    0.001530
  H     -1.799228   -7.192431    0.000819
  H      1.391168    7.298169   -0.004270
  C      5.492399   -0.059967   -0.003046
  C      6.183758   -1.291155   -0.002801
  C      7.578043   -1.317672   -0.002381
  C      8.307982   -0.123597   -0.002235
  C      7.632783    1.102378   -0.002518
  C      6.238787    1.138745   -0.002938
  H      9.400210   -0.148386   -0.001911
  H      8.197162    2.038024   -0.002414
  H      5.612073   -2.221113   -0.002927
  H      5.710033    2.093778   -0.003169
  H      8.099916   -2.277678   -0.002172

----------------------------
CARTESIAN COORDINATES (A.U.)
----------------------------
  NO LB      ZA    FRAG     MASS         X           Y           Z
   0 C     6.0000    0    12.011   -7.658009    0.216518   -0.003623
   1 C     6.0000    0    12.011   -5.360578    0.098313   -0.006707
   2 C     6.0000    0    12.011    5.371915   -0.004584   -0.004551
   3 C     6.0000    0    12.011   -2.664785    0.006031   -0.006151
   4 C     6.0000    0    12.011   -1.337611   -2.375992   -0.005294
   5 C     6.0000    0    12.011    1.348273   -2.250812   -0.004662
   6 C     6.0000    0    12.011    2.672113    0.035178   -0.004986
   7 C     6.0000    0    12.011    1.333478    2.385153   -0.005782
   8 C     6.0000    0    12.011   -1.303849    2.287240   -0.006493
   9 H     1.0000    0     1.008    2.436081   -4.000327   -0.004023
  10 H     1.0000    0     1.008   -2.388872    4.037824   -0.007260
  11 C     6.0000    0    12.011   -2.637618   -4.708450   -0.005068
  12 H     1.0000    0     1.008   -4.702311   -4.639176   -0.005827
  13 C     6.0000    0    12.011   -1.397188   -7.255923   -0.004112
  14 H     1.0000    0     1.008   -0.128917   -7.436530   -1.664575
  15 H     1.0000    0     1.008   -0.126656   -7.434230    1.654832
  16 C     6.0000    0    12.011   -3.282236   -9.458762   -0.001297
  17 H     1.0000    0     1.008   -4.526220   -9.286828    1.667730
  18 H     1.0000    0     1.008   -4.528616   -9.289098   -1.668771
  19 C     6.0000    0    12.011   -2.000502  -12.049961   -0.000460
  20 H     1.0000    0     1.008   -0.788841  -12.295654    1.679604
  21 H     1.0000    0     1.008   -0.791179  -12.297891   -1.681880
  22 C     6.0000    0    12.011    2.794064    4.846133   -0.005941
  23 H     1.0000    0     1.008    4.074797    4.844708    1.646313
  24 H     1.0000    0     1.008    4.075790    4.843918   -1.657420
  25 C     6.0000    0    12.011    1.245416    7.289874   -0.006946
  26 H     1.0000    0     1.008   -0.007559    7.335771   -1.678157
  27 H     1.0000    0     1.008   -0.008331    7.336633    1.663664
  28 C     6.0000    0    12.011    2.908726    9.662931   -0.007187
  29 H     1.0000    0     1.008    4.167441    9.620335    1.660595
  30 H     1.0000    0     1.008    4.167757    9.619761   -1.674714
  31 C     6.0000    0    12.011    1.384553   12.121444   -0.007759
  32 H     1.0000    0     1.008    0.155969   12.250875    1.672767
  33 H     1.0000    0     1.008    0.156091   12.250169   -1.688430
  34 C     6.0000    0    12.011    7.680678   -0.052776   -0.006457
  35 H     1.0000    0     1.008   -9.681241    0.330271    0.002892
  36 H     1.0000    0     1.008   -3.400049  -13.591724    0.001548
  37 H     1.0000    0     1.008    2.628927   13.791542   -0.008069
  38 C     6.0000    0    12.011   10.379129   -0.113322   -0.005755
  39 C     6.0000    0    12.011   11.685609   -2.439930   -0.005293
  40 C     6.0000    0    12.011   14.320425   -2.490039   -0.004500
  41 C     6.0000    0    12.011   15.699810   -0.233564   -0.004224
  42 C     6.0000    0    12.011   14.423869    2.083192   -0.004758
  43 C     6.0000    0    12.011   11.789599    2.151916   -0.005552
  44 H     1.0000    0     1.008   17.763823   -0.280409   -0.003612
  45 H     1.0000    0     1.008   15.490392    3.851306   -0.004563
  46 H     1.0000    0     1.008   10.605282   -4.197296   -0.005531
  47 H     1.0000    0     1.008   10.790398    3.956667   -0.005988
  48 H     1.0000    0     1.008   15.306622   -4.304187   -0.004105

--------------------------------
INTERNAL COORDINATES (ANGSTROEM)
--------------------------------
 C      0   0   0     0.000000000000     0.00000000     0.00000000
 C      1   0   0     1.217357345639     0.00000000     0.00000000
 C      2   1   0     5.679651796201   177.60235448     0.00000000
 C      2   1   3     1.427387347139   179.01127865     3.03087566
 C      4   2   1     1.442959037066   121.08550173   174.84479059
 C      5   4   2     1.422851328009   116.45649255   180.00316349
 C      6   5   4     1.397899695431   122.74401691     0.00000000
 C      7   6   5     1.431160275567   120.25693378     0.00000000
 C      8   7   6     1.396575265399   117.54132068     0.00000000
 H      6   5   4     1.090173420312   119.20397160   180.00060302
 H      9   8   7     1.089876316749   119.66473475   180.00477494
 C      5   4   2     1.413049817581   121.74175339     0.00000000
 H     12   5   4     1.093203097690   117.21168200     0.00000000
 C     12   5   4     1.499383110994   124.90403662   180.00200300
 H     14  12   5     1.109793097291   109.99310423   302.57147331
 H     14  12   5     1.109776656832   109.99464776    57.30754797
 C     14  12   5     1.534240989721   113.48257623   179.94018068
 H     17  14  12     1.105297323245   108.99353366   302.35823002
 H     17  14  12     1.105298959148   108.99475878    57.63588184
 C     17  14  12     1.529785012610   113.12595931   179.99735987
 H     20  17  14     1.103826364614   111.30619761    59.86791388
 H     20  17  14     1.103826386377   111.30608366   300.13361360
 C      8   7   6     1.514384045783   119.64350448   179.99577582
 H     23   8   7     1.106249319304   108.18275854   303.72127360
 H     23   8   7     1.106247221807   108.18310239    56.27016821
 C     23   8   7     1.530976378686   116.94771924   179.99689754
 H     26  23   8     1.105587504183   109.86812932   301.75058689
 H     26  23   8     1.105588362513   109.86754404    58.25614051
 C     26  23   8     1.533518749264   112.60956762   180.00340703
 H     29  26  23     1.105926302590   109.20410393   302.33971913
 H     29  26  23     1.105926109579   109.20376798    57.67927776
 C     29  26  23     1.530721484091   113.17570181   180.00927600
 H     32  29  26     1.103729942993   111.28172051    59.85519541
 H     32  29  26     1.103730098213   111.28174795   300.15330103
 C      3   2   1     1.222011236678   179.35083565   183.08532526
 H      1   2   4     1.072345010486   179.70696039   343.64345341
 H     20  17  14     1.101879751538   111.44891707   180.00054395
 H     32  29  26     1.102123860359   111.51341922   180.00436808
 C     35   3   7     1.428318169212   179.89098368   316.10183587
 C     39  35   3     1.412020316997   120.60121481    34.77483805
 C     40  39  35     1.394537096259   120.40541004   180.00272866
 C     41  40  39     1.399509854284   120.34793869     0.00000000
 C     42  41  40     1.399609806242   119.71897410     0.00000000
 C     43  42  41     1.394469720926   120.33795889     0.00000000
 H     42  41  40     1.092509528414   120.13728546   180.00029856
 H     43  42  41     1.092683462804   120.05814513   180.00054988
 H     40  39  35     1.091625077931   119.10333236     0.00000000
 H     44  43  42     1.091636054825   120.46553062   180.00061023
 H     41  40  39     1.092685906449   119.61868472   179.99858373

---------------------------
INTERNAL COORDINATES (A.U.)
---------------------------
 C      0   0   0     0.000000000000     0.00000000     0.00000000
 C      1   0   0     2.300471990374     0.00000000     0.00000000
 C      2   1   0    10.732986430853   177.60235448     0.00000000
 C      2   1   3     2.697371173117   179.01127865     3.03087566
 C      4   2   1     2.726797402522   121.08550173   174.84479059
 C      5   4   2     2.688799339224   116.45649255   180.00316349
 C      6   5   4     2.641647587057   122.74401691     0.00000000
 C      7   6   5     2.704500974569   120.25693378     0.00000000
 C      8   7   6     2.639144777012   117.54132068     0.00000000
 H      6   5   4     2.060129202870   119.20397160   180.00060302
 H      9   8   7     2.059567758503   119.66473475   180.00477494
 C      5   4   2     2.670277168815   121.74175339     0.00000000
 H     12   5   4     2.065854463388   117.21168200     0.00000000
 C     12   5   4     2.833423449606   124.90403662   180.00200300
 H     14  12   5     2.097205019196   109.99310423   302.57147331
 H     14  12   5     2.097173951231   109.99464776    57.30754797
 C     14  12   5     2.899295294009   113.48257623   179.94018068
 H     17  14  12     2.088709237489   108.99353366   302.35823002
 H     17  14  12     2.088712328897   108.99475878    57.63588184
 C     17  14  12     2.890874717609   113.12595931   179.99735987
 H     20  17  14     2.085929528523   111.30619761    59.86791388
 H     20  17  14     2.085929569648   111.30608366   300.13361360
 C      8   7   6     2.861771108110   119.64350448   179.99577582
 H     23   8   7     2.090508249322   108.18275854   303.72127360
 H     23   8   7     2.090504285627   108.18310239    56.27016821
 C     23   8   7     2.893126073219   116.94771924   179.99689754
 H     26  23   8     2.089257599991   109.86812932   301.75058689
 H     26  23   8     2.089259222000   109.86754404    58.25614051
 C     26  23   8     2.897930457342   112.60956762   180.00340703
 H     29  26  23     2.089897836194   109.20410393   302.33971913
 H     29  26  23     2.089897471458   109.20376798    57.67927776
 C     29  26  23     2.892644392241   113.17570181   180.00927600
 H     32  29  26     2.085747318065   111.28172051    59.85519541
 H     32  29  26     2.085747611388   111.28174795   300.15330103
 C      3   2   1     2.309266569896   179.35083565   183.08532526
 H      1   2   4     2.026438390896   179.70696039   343.64345341
 H     20  17  14     2.082250962919   111.44891707   180.00054395
 H     32  29  26     2.082712261738   111.51341922   180.00436808
 C     35   3   7     2.699130171914   179.89098368   316.10183587
 C     39  35   3     2.668331694657   120.60121481    34.77483805
 C     40  39  35     2.635293195523   120.40541004   180.00272866
 C     41  40  39     2.644690346321   120.34793869     0.00000000
 C     42  41  40     2.644879228148   119.71897410     0.00000000
 C     43  42  41     2.635165874596   120.33795889     0.00000000
 H     42  41  40     2.064543807402   120.13728546   180.00029856
 H     43  42  41     2.064872495765   120.05814513   180.00054988
 H     40  39  35     2.062872438211   119.10333236     0.00000000
 H     44  43  42     2.062893181533   120.46553062   180.00061023
 H     41  40  39     2.064877113585   119.61868472   179.99858373

---------------------
BASIS SET INFORMATION
---------------------
There are 2 groups of distinct atoms

 Group   1 Type C   : 17s4p1d contracted to 3s2p1d pattern {881/31/1}
 Group   2 Type H   : 4s1p contracted to 2s1p pattern {31/1}

Atom   0C    basis set group =>   1
Atom   1C    basis set group =>   1
Atom   2C    basis set group =>   1
Atom   3C    basis set group =>   1
Atom   4C    basis set group =>   1
Atom   5C    basis set group =>   1
Atom   6C    basis set group =>   1
Atom   7C    basis set group =>   1
Atom   8C    basis set group =>   1
Atom   9H    basis set group =>   2
Atom  10H    basis set group =>   2
Atom  11C    basis set group =>   1
Atom  12H    basis set group =>   2
Atom  13C    basis set group =>   1
Atom  14H    basis set group =>   2
Atom  15H    basis set group =>   2
Atom  16C    basis set group =>   1
Atom  17H    basis set group =>   2
Atom  18H    basis set group =>   2
Atom  19C    basis set group =>   1
Atom  20H    basis set group =>   2
Atom  21H    basis set group =>   2
Atom  22C    basis set group =>   1
Atom  23H    basis set group =>   2
Atom  24H    basis set group =>   2
Atom  25C    basis set group =>   1
Atom  26H    basis set group =>   2
Atom  27H    basis set group =>   2
Atom  28C    basis set group =>   1
Atom  29H    basis set group =>   2
Atom  30H    basis set group =>   2
Atom  31C    basis set group =>   1
Atom  32H    basis set group =>   2
Atom  33H    basis set group =>   2
Atom  34C    basis set group =>   1
Atom  35H    basis set group =>   2
Atom  36H    basis set group =>   2
Atom  37H    basis set group =>   2
Atom  38C    basis set group =>   1
Atom  39C    basis set group =>   1
Atom  40C    basis set group =>   1
Atom  41C    basis set group =>   1
Atom  42C    basis set group =>   1
Atom  43C    basis set group =>   1
Atom  44H    basis set group =>   2
Atom  45H    basis set group =>   2
Atom  46H    basis set group =>   2
Atom  47H    basis set group =>   2
Atom  48H    basis set group =>   2
---------------------------------
AUXILIARY/J BASIS SET INFORMATION
---------------------------------
There are 2 groups of distinct atoms

 Group   1 Type C   : 14s11p10d2f contracted to 14s11p10d2f pattern {11111111111111/11111111111/1111111111/11}
 Group   2 Type H   : 9s2p1d contracted to 9s2p1d pattern {111111111/11/1}

Atom   0C    basis set group =>   1
Atom   1C    basis set group =>   1
Atom   2C    basis set group =>   1
Atom   3C    basis set group =>   1
Atom   4C    basis set group =>   1
Atom   5C    basis set group =>   1
Atom   6C    basis set group =>   1
Atom   7C    basis set group =>   1
Atom   8C    basis set group =>   1
Atom   9H    basis set group =>   2
Atom  10H    basis set group =>   2
Atom  11C    basis set group =>   1
Atom  12H    basis set group =>   2
Atom  13C    basis set group =>   1
Atom  14H    basis set group =>   2
Atom  15H    basis set group =>   2
Atom  16C    basis set group =>   1
Atom  17H    basis set group =>   2
Atom  18H    basis set group =>   2
Atom  19C    basis set group =>   1
Atom  20H    basis set group =>   2
Atom  21H    basis set group =>   2
Atom  22C    basis set group =>   1
Atom  23H    basis set group =>   2
Atom  24H    basis set group =>   2
Atom  25C    basis set group =>   1
Atom  26H    basis set group =>   2
Atom  27H    basis set group =>   2
Atom  28C    basis set group =>   1
Atom  29H    basis set group =>   2
Atom  30H    basis set group =>   2
Atom  31C    basis set group =>   1
Atom  32H    basis set group =>   2
Atom  33H    basis set group =>   2
Atom  34C    basis set group =>   1
Atom  35H    basis set group =>   2
Atom  36H    basis set group =>   2
Atom  37H    basis set group =>   2
Atom  38C    basis set group =>   1
Atom  39C    basis set group =>   1
Atom  40C    basis set group =>   1
Atom  41C    basis set group =>   1
Atom  42C    basis set group =>   1
Atom  43C    basis set group =>   1
Atom  44H    basis set group =>   2
Atom  45H    basis set group =>   2
Atom  46H    basis set group =>   2
Atom  47H    basis set group =>   2
Atom  48H    basis set group =>   2
---------------------------------
AUXILIARY/C BASIS SET INFORMATION
---------------------------------
There are 2 groups of distinct atoms

 Group   1 Type C   : 14s11p10d2f contracted to 14s11p10d2f pattern {11111111111111/11111111111/1111111111/11}
 Group   2 Type H   : 9s2p1d contracted to 9s2p1d pattern {111111111/11/1}

Atom   0C    basis set group =>   1
Atom   1C    basis set group =>   1
Atom   2C    basis set group =>   1
Atom   3C    basis set group =>   1
Atom   4C    basis set group =>   1
Atom   5C    basis set group =>   1
Atom   6C    basis set group =>   1
Atom   7C    basis set group =>   1
Atom   8C    basis set group =>   1
Atom   9H    basis set group =>   2
Atom  10H    basis set group =>   2
Atom  11C    basis set group =>   1
Atom  12H    basis set group =>   2
Atom  13C    basis set group =>   1
Atom  14H    basis set group =>   2
Atom  15H    basis set group =>   2
Atom  16C    basis set group =>   1
Atom  17H    basis set group =>   2
Atom  18H    basis set group =>   2
Atom  19C    basis set group =>   1
Atom  20H    basis set group =>   2
Atom  21H    basis set group =>   2
Atom  22C    basis set group =>   1
Atom  23H    basis set group =>   2
Atom  24H    basis set group =>   2
Atom  25C    basis set group =>   1
Atom  26H    basis set group =>   2
Atom  27H    basis set group =>   2
Atom  28C    basis set group =>   1
Atom  29H    basis set group =>   2
Atom  30H    basis set group =>   2
Atom  31C    basis set group =>   1
Atom  32H    basis set group =>   2
Atom  33H    basis set group =>   2
Atom  34C    basis set group =>   1
Atom  35H    basis set group =>   2
Atom  36H    basis set group =>   2
Atom  37H    basis set group =>   2
Atom  38C    basis set group =>   1
Atom  39C    basis set group =>   1
Atom  40C    basis set group =>   1
Atom  41C    basis set group =>   1
Atom  42C    basis set group =>   1
Atom  43C    basis set group =>   1
Atom  44H    basis set group =>   2
Atom  45H    basis set group =>   2
Atom  46H    basis set group =>   2
Atom  47H    basis set group =>   2
Atom  48H    basis set group =>   2
----------------------------------
AUXILIARY/JK BASIS SET INFORMATION
----------------------------------
There are 2 groups of distinct atoms

 Group   1 Type C   : 14s11p10d2f contracted to 14s11p10d2f pattern {11111111111111/11111111111/1111111111/11}
 Group   2 Type H   : 9s2p1d contracted to 9s2p1d pattern {111111111/11/1}

Atom   0C    basis set group =>   1
Atom   1C    basis set group =>   1
Atom   2C    basis set group =>   1
Atom   3C    basis set group =>   1
Atom   4C    basis set group =>   1
Atom   5C    basis set group =>   1
Atom   6C    basis set group =>   1
Atom   7C    basis set group =>   1
Atom   8C    basis set group =>   1
Atom   9H    basis set group =>   2
Atom  10H    basis set group =>   2
Atom  11C    basis set group =>   1
Atom  12H    basis set group =>   2
Atom  13C    basis set group =>   1
Atom  14H    basis set group =>   2
Atom  15H    basis set group =>   2
Atom  16C    basis set group =>   1
Atom  17H    basis set group =>   2
Atom  18H    basis set group =>   2
Atom  19C    basis set group =>   1
Atom  20H    basis set group =>   2
Atom  21H    basis set group =>   2
Atom  22C    basis set group =>   1
Atom  23H    basis set group =>   2
Atom  24H    basis set group =>   2
Atom  25C    basis set group =>   1
Atom  26H    basis set group =>   2
Atom  27H    basis set group =>   2
Atom  28C    basis set group =>   1
Atom  29H    basis set group =>   2
Atom  30H    basis set group =>   2
Atom  31C    basis set group =>   1
Atom  32H    basis set group =>   2
Atom  33H    basis set group =>   2
Atom  34C    basis set group =>   1
Atom  35H    basis set group =>   2
Atom  36H    basis set group =>   2
Atom  37H    basis set group =>   2
Atom  38C    basis set group =>   1
Atom  39C    basis set group =>   1
Atom  40C    basis set group =>   1
Atom  41C    basis set group =>   1
Atom  42C    basis set group =>   1
Atom  43C    basis set group =>   1
Atom  44H    basis set group =>   2
Atom  45H    basis set group =>   2
Atom  46H    basis set group =>   2
Atom  47H    basis set group =>   2
Atom  48H    basis set group =>   2

Checking for AutoStart:
The File: cc-pVDZ.gbw exists
Trying to determine its content:
     ... Fine, the file contains calculation information
     ... Fine, the calculation information was read
     ... Fine, the file contains a basis set
     ... Fine, the basis set was read
     ... Fine, the file contains a geometry
     ... Fine, the geometry was read
     ... Fine, the file contains a set of orbitals
     ... Fine, the orbitals can be read
     => possible old guess file was deleted
     => GBW file was renamed to GES file
     => GES file is set as startup file
     => Guess is set to MORead
     ... now leaving AutoStart



           ************************************************************
           *        Program running with 16 parallel MPI-processes    *
           *              working on a common directory               *
           ************************************************************
------------------------------------------------------------------------------
                           ORCA GTO INTEGRAL CALCULATION
                           -- RI-GTO INTEGRALS CHOSEN --
------------------------------------------------------------------------------
------------------------------------------------------------------------------
                   ___                                                        
                  /   \      - P O W E R E D   B Y -                         
                 /     \                                                     
                 |  |  |   _    _      __       _____    __    __             
                 |  |  |  | |  | |    /  \     |  _  \  |  |  /  |          
                  \  \/   | |  | |   /    \    | | | |  |  | /  /          
                 / \  \   | |__| |  /  /\  \   | |_| |  |  |/  /          
                |  |  |   |  __  | /  /__\  \  |    /   |      \           
                |  |  |   | |  | | |   __   |  |    \   |  |\   \          
                \     /   | |  | | |  |  |  |  | |\  \  |  | \   \       
                 \___/    |_|  |_| |__|  |__|  |_| \__\ |__|  \__/        
                                                                              
                      - O R C A' S   B I G   F R I E N D -                    
                                      &                                       
                       - I N T E G R A L  F E E D E R -                       
                                                                              
 v1 FN, 2020, v2 2021                                                         
------------------------------------------------------------------------------


Reading SHARK input file cc-pVDZ.SHARKINP.tmp ... ok
----------------------
SHARK INTEGRAL PACKAGE
----------------------

Number of atoms                             ...     49
Number of basis functions                   ...    605
Number of shells                            ...    363
Maximum angular momentum                    ...      2
Integral batch strategy                     ... SHARK/LIBINT Hybrid
RI-J (if used) integral strategy            ... SPLIT-RIJ (Revised 2003 algorithm where possible)
Printlevel                                  ...      1
Contraction scheme used                     ... PARTIAL GENERAL contraction
Coulomb Range Separation                    ... NOT USED
Exchange Range Separation                   ... NOT USED
Finite Nucleus Model                        ... NOT USED
Auxiliary Coulomb fitting basis             ... AVAILABLE
   # of basis functions in Aux-J            ...   3164
   # of shells in Aux-J                     ...   1188
   Maximum angular momentum in Aux-J        ...      3
Auxiliary J/K fitting basis                 ... AVAILABLE
   # of basis functions in Aux-JK           ...   3164
   # of shells in Aux-JK                    ...   1188
   Maximum angular momentum in Aux-JK       ...      3
Auxiliary Correlation fitting basis         ... AVAILABLE
   # of basis functions in Aux-C            ...   3164
   # of shells in Aux-C                     ...   1188
   Maximum angular momentum in Aux-C        ...      3
Auxiliary 'external' fitting basis          ... NOT available
Integral threshold                          ...     1.000000e-10
Primitive cut-off                           ...     1.000000e-11
Primitive pair pre-selection threshold      ...     1.000000e-11

Calculating pre-screening integrals         ... done (  0.0 sec) Dimension = 363
Calculating pre-screening integrals (ORCA)  ... done (  0.1 sec) Dimension = 219
Organizing shell pair data                  ... done (  0.2 sec)
Shell pair information
Total number of shell pairs                 ...     66066
Shell pairs after pre-screening             ...     25424
Total number of primitive shell pairs       ...    106638
Primitive shell pairs kept                  ...     34279
          la=0 lb=0:  11005 shell pairs
          la=1 lb=0:   8981 shell pairs
          la=1 lb=1:   1604 shell pairs
          la=2 lb=0:   2693 shell pairs
          la=2 lb=1:    978 shell pairs
          la=2 lb=2:    163 shell pairs

Calculating one electron integrals          ... done (  0.0 sec)
Calculating RI/J V-Matrix + Cholesky decomp.... done (  0.6 sec)
Calculating RI/JK V-Matrix + Cholesky decomp... done (  0.6 sec)
Calculating RI/C V-Matrix + Cholesky decomp.... done (  0.6 sec)
Calculating Nuclear repulsion               ... done (  0.0 sec) ENN=   1723.990864257979 Eh

SHARK setup successfully completed in   2.5 seconds

Maximum memory used throughout the entire GTOINT-calculation: 41.6 MB


           ************************************************************
           *        Program running with 16 parallel MPI-processes    *
           *              working on a common directory               *
           ************************************************************
-------------------------------------------------------------------------------
                                 ORCA SCF
-------------------------------------------------------------------------------

------------
SCF SETTINGS
------------
Hamiltonian:
 Density Functional     Method          .... DFT(GTOs)
 Exchange Functional    Exchange        .... B88
   X-Alpha parameter    XAlpha          ....  0.666667
   Becke's b parameter  XBeta           ....  0.004200
 Correlation Functional Correlation     .... LYP
 LDA part of GGA corr.  LDAOpt          .... VWN-5
 Gradients option       PostSCFGGA      .... off
 Hybrid DFT is turned on
   Fraction HF Exchange ScalHFX         ....  0.200000
   Scaling of DF-GGA-X  ScalDFX         ....  0.720000
   Scaling of DF-GGA-C  ScalDFC         ....  0.810000
   Scaling of DF-LDA-C  ScalLDAC        ....  1.000000
   Perturbative correction              ....  0.000000
   Density functional embedding theory  .... OFF
   NL short-range parameter             ....  4.800000
 RI-approximation to the Coulomb term is turned on
   Number of AuxJ basis functions       .... 3164
   RIJ-COSX (HFX calculated with COS-X)).... on


General Settings:
 Integral files         IntName         .... cc-pVDZ
 Hartree-Fock type      HFTyp           .... UHF
 Total Charge           Charge          ....    0
 Multiplicity           Mult            ....    2
 Number of Electrons    NEL             ....  169
 Basis Dimension        Dim             ....  461
 Nuclear Repulsion      ENuc            ....   1723.9908642580 Eh

Convergence Acceleration:
 DIIS                   CNVDIIS         .... on
   Start iteration      DIISMaxIt       ....    12
   Startup error        DIISStart       ....  0.200000
   # of expansion vecs  DIISMaxEq       ....     5
   Bias factor          DIISBfac        ....   1.050
   Max. coefficient     DIISMaxC        ....  10.000
 Trust-Rad. Augm. Hess. CNVTRAH         .... auto
   Auto Start mean grad. ratio tolernc. ....  1.125000
   Auto Start start iteration           ....     1
   Auto Start num. interpolation iter.  ....    10
   Max. Number of Micro iterations      ....    16
   Max. Number of Macro iterations      .... Maxiter - #DIIS iter
   Number of Davidson start vectors     ....     2
   Converg. threshold I  (grad. norm)   ....   5.000e-05
   Converg. threshold II (energy diff.) ....   1.000e-06
   Grad. Scal. Fac. for Micro threshold ....   0.100
   Minimum threshold for Micro iter.    ....   0.010
   NR start threshold (gradient norm)   ....   0.001
   Initial trust radius                 ....   0.400
   Minimum AH scaling param. (alpha)    ....   1.000
   Maximum AH scaling param. (alpha)    .... 1000.000
   Orbital update algorithm             .... Taylor
   White noise on init. David. guess    .... on
   Maximum white noise                  ....   0.010
   Quad. conv. algorithm                .... NR
 SOSCF                  CNVSOSCF        .... off
 Level Shifting         CNVShift        .... on
   Level shift para.    LevelShift      ....    0.2500
   Turn off err/grad.   ShiftErr        ....    0.0010
 Zerner damping         CNVZerner       .... off
 Static damping         CNVDamp         .... on
   Fraction old density DampFac         ....    0.7000
   Max. Damping (<1)    DampMax         ....    0.9800
   Min. Damping (>=0)   DampMin         ....    0.0000
   Turn off err/grad.   DampErr         ....    0.1000
 Fernandez-Rico         CNVRico         .... off

SCF Procedure:
 Maximum # iterations   MaxIter         ....   125
 SCF integral mode      SCFMode         .... Direct
   Integral package                     .... SHARK and LIBINT hybrid scheme
 Reset frequency        DirectResetFreq ....    20
 Integral Threshold     Thresh          ....  1.000e-10 Eh
 Primitive CutOff       TCut            ....  1.000e-11 Eh

Convergence Tolerance:
 Convergence Check Mode ConvCheckMode   .... Total+1el-Energy
 Convergence forced     ConvForced      .... 0
 Energy Change          TolE            ....  1.000e-06 Eh
 1-El. energy change                    ....  1.000e-03 Eh
 DIIS Error             TolErr          ....  1.000e-06


Diagonalization of the overlap matrix:
Smallest eigenvalue                        ... 5.124e-05
Time for diagonalization                   ...    0.053 sec
Threshold for overlap eigenvalues          ... 1.000e-08
Number of eigenvalues below threshold      ... 0
Time for construction of square roots      ...    0.045 sec
Total time needed                          ...    0.099 sec

---------------------
INITIAL GUESS: MOREAD
---------------------
Guess MOs are being read from file: cc-pVDZ.ges
Input geometry compatible with but different from current geometry
Input basis set matches current basis set (good)
MOs were renormalized
MOs were reorthogonalized (Cholesky)
                      ------------------
                      INITIAL GUESS DONE (   0.2 sec)
                      ------------------
-------------------
DFT GRID GENERATION
-------------------

General Integration Accuracy     IntAcc      ... 4.388
Radial Grid Type                 RadialGrid  ... OptM3 with GC (2021)
Angular Grid (max. ang.)         AngularGrid ... 4 (Lebedev-302)
Angular grid pruning method      GridPruning ... 4 (adaptive)
Weight generation scheme         WeightScheme... Becke
Basis function cutoff            BFCut       ... 1.0000e-10
Integration weight cutoff        WCut        ... 1.0000e-14
Angular grids for H and He will be reduced by one unit
Partially contracted basis set               ... off
Rotationally invariant grid construction     ... off

Total number of grid points                  ...   223175
Total number of batches                      ...     3510
Average number of points per batch           ...       63
Average number of grid points per atom       ...     4555
Time for grid setup =    1.484 sec

--------------------
COSX GRID GENERATION
--------------------

GRIDX 1
-------
General Integration Accuracy     IntAcc      ... 3.816
Radial Grid Type                 RadialGrid  ... OptM3 with GC (2021)
Angular Grid (max. ang.)         AngularGrid ... 1 (Lebedev-50)
Angular grid pruning method      GridPruning ... 4 (adaptive)
Weight generation scheme         WeightScheme... Becke
Basis function cutoff            BFCut       ... 1.0000e-10
Integration weight cutoff        WCut        ... 1.0000e-14
Angular grids for H and He will be reduced by one unit
Partially contracted basis set               ... on
Rotationally invariant grid construction     ... off

Total number of grid points                  ...    28453
Total number of batches                      ...      470
Average number of points per batch           ...       60
Average number of grid points per atom       ...      581
UseSFitting                                  ... on

GRIDX 2
-------
General Integration Accuracy     IntAcc      ... 4.020
Radial Grid Type                 RadialGrid  ... OptM3 with GC (2021)
Angular Grid (max. ang.)         AngularGrid ... 2 (Lebedev-110)
Angular grid pruning method      GridPruning ... 4 (adaptive)
Weight generation scheme         WeightScheme... Becke
Basis function cutoff            BFCut       ... 1.0000e-10
Integration weight cutoff        WCut        ... 1.0000e-14
Angular grids for H and He will be reduced by one unit
Partially contracted basis set               ... on
Rotationally invariant grid construction     ... off

Total number of grid points                  ...    60638
Total number of batches                      ...      973
Average number of points per batch           ...       62
Average number of grid points per atom       ...     1238
UseSFitting                                  ... on

GRIDX 3
-------
General Integration Accuracy     IntAcc      ... 4.338
Radial Grid Type                 RadialGrid  ... OptM3 with GC (2021)
Angular Grid (max. ang.)         AngularGrid ... 3 (Lebedev-194)
Angular grid pruning method      GridPruning ... 4 (adaptive)
Weight generation scheme         WeightScheme... Becke
Basis function cutoff            BFCut       ... 1.0000e-10
Integration weight cutoff        WCut        ... 1.0000e-14
Angular grids for H and He will be reduced by one unit
Partially contracted basis set               ... on
Rotationally invariant grid construction     ... off

Total number of grid points                  ...   132612
Total number of batches                      ...     2098
Average number of points per batch           ...       63
Average number of grid points per atom       ...     2706
UseSFitting                                  ... on

Time for X-Grid setup             =    2.427 sec

 re-compute Schwartz prescreening matrix in partically contracted basis (1) ...done (   0.107 sec)
--------------
SCF ITERATIONS
--------------
ITER       Energy         Delta-E        Max-DP      RMS-DP      [F,P]     Damp
               ***  Starting incremental Fock matrix formation  ***
  0   -928.9011679499   0.000000000000 0.00008601  0.00000172  0.0004315 0.7000
  1   -928.9011698019  -0.000001852026 0.00007966  0.00000149  0.0003056 0.7000
                               ***Turning on DIIS***
  2   -928.9011711418  -0.000001339953 0.00022641  0.00000389  0.0002145 0.0000
               *** Restarting incremental Fock matrix formation ***
                                   *** Resetting DIIS ***
  3   -928.9011746354  -0.000003493563 0.00006512  0.00000066  0.0000381 0.0000
                 **** Energy Check signals convergence ****

               *****************************************************
               *                     SUCCESS                       *
               *           SCF CONVERGED AFTER   4 CYCLES          *
               *****************************************************

Old exchange energy                            =    -26.638353220 Eh
New exchange energy                            =    -26.638466153 Eh
Exchange energy change after final integration =     -0.000112934 Eh
Total energy after final integration           =   -928.901287601 Eh
Final COS-X integration done in                =     7.825 sec

----------------
TOTAL SCF ENERGY
----------------

Total Energy       :         -928.90128760 Eh          -25276.68908 eV

Components:
Nuclear Repulsion  :         1723.99086426 Eh           46912.17639 eV
Electronic Energy  :        -2652.89215186 Eh          -72188.86546 eV
One Electron Energy:        -4676.96274514 Eh         -127266.62641 eV
Two Electron Energy:         2024.07059328 Eh           55077.76094 eV
Max COSX asymmetry :            0.00000058 Eh               0.00002 eV

Virial components:
Potential Energy   :        -1851.36864543 Eh          -50378.30203 eV
Kinetic Energy     :          922.46735783 Eh           25101.61295 eV
Virial Ratio       :            2.00697470


DFT components:
N(Alpha)           :       85.000168564559 electrons
N(Beta)            :       84.000160994610 electrons
N(Total)           :      169.000329559169 electrons
E(X)               :     -105.658887486382 Eh       
E(C)               :       -6.575449582063 Eh       
E(XC)              :     -112.234337068444 Eh       
DFET-embed. en.    :        0.000000000000 Eh       

---------------
SCF CONVERGENCE
---------------

  Last Energy change         ...   -3.2358e-08  Tolerance :   1.0000e-06
  Last MAX-Density change    ...    0.0000e+00  Tolerance :   1.0000e-05
  Last RMS-Density change    ...    0.0000e+00  Tolerance :   1.0000e-06
  Last DIIS Error            ...    6.5891e-05  Tolerance :   1.0000e-06

             **** THE GBW FILE WAS UPDATED (cc-pVDZ.gbw) ****
             **** DENSITY cc-pVDZ.scfp WAS UPDATED ****
             **** ENERGY FILE WAS UPDATED (cc-pVDZ.en.tmp) ****
----------------------
UHF SPIN CONTAMINATION
----------------------

Warning: in a DFT calculation there is little theoretical justification to 
         calculate <S**2> as in Hartree-Fock theory. We will do it anyways
         but you should keep in mind that the values have only limited relevance

Expectation value of <S**2>     :     0.786983
Ideal value S*(S+1) for S=0.5   :     0.750000
Deviation                       :     0.036983

             **** THE GBW FILE WAS UPDATED (cc-pVDZ.gbw) ****
             **** DENSITY cc-pVDZ.scfp WAS UPDATED ****
----------------
ORBITAL ENERGIES
----------------
                 SPIN UP ORBITALS
  NO   OCC          E(Eh)            E(eV) 
   0   1.0000     -10.216679      -278.0100 
   1   1.0000     -10.213352      -277.9194 
   2   1.0000     -10.212017      -277.8831 
   3   1.0000     -10.202234      -277.6169 
   4   1.0000     -10.198340      -277.5109 
   5   1.0000     -10.197333      -277.4835 
   6   1.0000     -10.197202      -277.4800 
   7   1.0000     -10.196210      -277.4530 
   8   1.0000     -10.195725      -277.4398 
   9   1.0000     -10.195504      -277.4338 
  10   1.0000     -10.194335      -277.4019 
  11   1.0000     -10.192061      -277.3401 
  12   1.0000     -10.190101      -277.2867 
  13   1.0000     -10.189776      -277.2779 
  14   1.0000     -10.189410      -277.2679 
  15   1.0000     -10.187956      -277.2284 
  16   1.0000     -10.187780      -277.2236 
  17   1.0000     -10.186954      -277.2011 
  18   1.0000     -10.185105      -277.1508 
  19   1.0000     -10.183596      -277.1097 
  20   1.0000     -10.182036      -277.0673 
  21   1.0000     -10.181734      -277.0591 
  22   1.0000     -10.176959      -276.9291 
  23   1.0000     -10.175684      -276.8944 
  24   1.0000      -0.873772       -23.7766 
  25   1.0000      -0.863441       -23.4954 
  26   1.0000      -0.819935       -22.3116 
  27   1.0000      -0.797947       -21.7132 
  28   1.0000      -0.796638       -21.6776 
  29   1.0000      -0.778293       -21.1784 
  30   1.0000      -0.767825       -20.8936 
  31   1.0000      -0.751156       -20.4400 
  32   1.0000      -0.744231       -20.2516 
  33   1.0000      -0.729978       -19.8637 
  34   1.0000      -0.713913       -19.4266 
  35   1.0000      -0.697702       -18.9854 
  36   1.0000      -0.656577       -17.8664 
  37   1.0000      -0.643553       -17.5120 
  38   1.0000      -0.620131       -16.8746 
  39   1.0000      -0.611558       -16.6414 
  40   1.0000      -0.609217       -16.5776 
  41   1.0000      -0.592441       -16.1211 
  42   1.0000      -0.579908       -15.7801 
  43   1.0000      -0.561739       -15.2857 
  44   1.0000      -0.541206       -14.7270 
  45   1.0000      -0.529747       -14.4152 
  46   1.0000      -0.507097       -13.7988 
  47   1.0000      -0.489866       -13.3299 
  48   1.0000      -0.480583       -13.0773 
  49   1.0000      -0.476039       -12.9537 
  50   1.0000      -0.470793       -12.8109 
  51   1.0000      -0.462015       -12.5721 
  52   1.0000      -0.457929       -12.4609 
  53   1.0000      -0.437255       -11.8983 
  54   1.0000      -0.431749       -11.7485 
  55   1.0000      -0.429224       -11.6798 
  56   1.0000      -0.426030       -11.5929 
  57   1.0000      -0.424459       -11.5501 
  58   1.0000      -0.422012       -11.4835 
  59   1.0000      -0.411799       -11.2056 
  60   1.0000      -0.398184       -10.8351 
  61   1.0000      -0.397803       -10.8248 
  62   1.0000      -0.383675       -10.4403 
  63   1.0000      -0.378455       -10.2983 
  64   1.0000      -0.377407       -10.2698 
  65   1.0000      -0.365158        -9.9365 
  66   1.0000      -0.361642        -9.8408 
  67   1.0000      -0.356491        -9.7006 
  68   1.0000      -0.354267        -9.6401 
  69   1.0000      -0.350703        -9.5431 
  70   1.0000      -0.340243        -9.2585 
  71   1.0000      -0.332438        -9.0461 
  72   1.0000      -0.332083        -9.0364 
  73   1.0000      -0.330400        -8.9907 
  74   1.0000      -0.327764        -8.9189 
  75   1.0000      -0.324248        -8.8232 
  76   1.0000      -0.321845        -8.7578 
  77   1.0000      -0.297291        -8.0897 
  78   1.0000      -0.275191        -7.4883 
  79   1.0000      -0.273480        -7.4418 
  80   1.0000      -0.268657        -7.3105 
  81   1.0000      -0.258794        -7.0422 
  82   1.0000      -0.255686        -6.9576 
  83   1.0000      -0.214614        -5.8399 
  84   1.0000      -0.173110        -4.7106 
  85   0.0000      -0.060121        -1.6360 
  86   0.0000      -0.010485        -0.2853 
  87   0.0000      -0.008896        -0.2421 
  88   0.0000       0.016577         0.4511 
  89   0.0000       0.041849         1.1388 
  90   0.0000       0.050848         1.3837 
  91   0.0000       0.054298         1.4775 
  92   0.0000       0.063136         1.7180 
  93   0.0000       0.064592         1.7576 
  94   0.0000       0.065642         1.7862 
  95   0.0000       0.078694         2.1414 
  96   0.0000       0.083465         2.2712 
  97   0.0000       0.088614         2.4113 
  98   0.0000       0.095052         2.5865 
  99   0.0000       0.095660         2.6030 
 100   0.0000       0.099118         2.6971 
 101   0.0000       0.102572         2.7911 
 102   0.0000       0.103778         2.8239 
 103   0.0000       0.113622         3.0918 
 104   0.0000       0.120492         3.2787 
 105   0.0000       0.125820         3.4237 
 106   0.0000       0.130168         3.5420 
 107   0.0000       0.138176         3.7600 
 108   0.0000       0.143100         3.8940 
 109   0.0000       0.147089         4.0025 
 110   0.0000       0.151752         4.1294 
 111   0.0000       0.155349         4.2272 
 112   0.0000       0.158299         4.3075 
 113   0.0000       0.160410         4.3650 
 114   0.0000       0.161477         4.3940 
 115   0.0000       0.165134         4.4935 
 116   0.0000       0.172964         4.7066 
 117   0.0000       0.175672         4.7803 
 118   0.0000       0.183218         4.9856 
 119   0.0000       0.204154         5.5553 
 120   0.0000       0.211875         5.7654 
 121   0.0000       0.212441         5.7808 
 122   0.0000       0.217813         5.9270 
 123   0.0000       0.222497         6.0545 
 124   0.0000       0.224256         6.1023 
 125   0.0000       0.243500         6.6260 
 126   0.0000       0.249784         6.7970 
 127   0.0000       0.265679         7.2295 
 128   0.0000       0.267837         7.2882 
 129   0.0000       0.278886         7.5889 
 130   0.0000       0.285977         7.7818 
 131   0.0000       0.292026         7.9464 
 132   0.0000       0.306612         8.3433 
 133   0.0000       0.314118         8.5476 
 134   0.0000       0.318658         8.6711 
 135   0.0000       0.332110         9.0372 
 136   0.0000       0.348598         9.4858 
 137   0.0000       0.361087         9.8257 
 138   0.0000       0.365416         9.9435 
 139   0.0000       0.378884        10.3100 
 140   0.0000       0.391028        10.6404 
 141   0.0000       0.406159        11.0521 
 142   0.0000       0.411719        11.2035 
 143   0.0000       0.413568        11.2538 
 144   0.0000       0.419542        11.4163 
 145   0.0000       0.421976        11.4826 
 146   0.0000       0.430467        11.7136 
 147   0.0000       0.441042        12.0014 
 148   0.0000       0.441204        12.0058 
 149   0.0000       0.449884        12.2420 
 150   0.0000       0.451795        12.2940 
 151   0.0000       0.454179        12.3588 
 152   0.0000       0.462729        12.5915 
 153   0.0000       0.472348        12.8532 
 154   0.0000       0.473254        12.8779 
 155   0.0000       0.475016        12.9258 
 156   0.0000       0.476767        12.9735 
 157   0.0000       0.481023        13.0893 
 158   0.0000       0.491031        13.3616 
 159   0.0000       0.499565        13.5939 
 160   0.0000       0.499671        13.5967 
 161   0.0000       0.503041        13.6884 
 162   0.0000       0.506710        13.7883 
 163   0.0000       0.508698        13.8424 
 164   0.0000       0.514048        13.9880 
 165   0.0000       0.515656        14.0317 
 166   0.0000       0.517233        14.0746 
 167   0.0000       0.521679        14.1956 
 168   0.0000       0.525328        14.2949 
 169   0.0000       0.529668        14.4130 
 170   0.0000       0.534612        14.5475 
 171   0.0000       0.551022        14.9941 
 172   0.0000       0.552736        15.0407 
 173   0.0000       0.558199        15.1894 
 174   0.0000       0.569475        15.4962 
 175   0.0000       0.575632        15.6637 
 176   0.0000       0.585315        15.9272 
 177   0.0000       0.589573        16.0431 
 178   0.0000       0.592087        16.1115 
 179   0.0000       0.599035        16.3006 
 180   0.0000       0.601095        16.3566 
 181   0.0000       0.608876        16.5683 
 182   0.0000       0.609560        16.5870 
 183   0.0000       0.625069        17.0090 
 184   0.0000       0.625914        17.0320 
 185   0.0000       0.632682        17.2162 
 186   0.0000       0.638155        17.3651 
 187   0.0000       0.638381        17.3712 
 188   0.0000       0.643339        17.5061 
 189   0.0000       0.644074        17.5261 
 190   0.0000       0.645760        17.5720 
 191   0.0000       0.651618        17.7314 
 192   0.0000       0.655607        17.8400 
 193   0.0000       0.656023        17.8513 
 194   0.0000       0.661308        17.9951 
 195   0.0000       0.661942        18.0124 
 196   0.0000       0.665724        18.1153 
 197   0.0000       0.666350        18.1323 
 198   0.0000       0.666408        18.1339 
 199   0.0000       0.669533        18.2189 
 200   0.0000       0.678328        18.4583 
 201   0.0000       0.678386        18.4598 
 202   0.0000       0.683464        18.5980 
 203   0.0000       0.686709        18.6863 
 204   0.0000       0.691108        18.8060 
 205   0.0000       0.694095        18.8873 
 206   0.0000       0.695059        18.9135 
 207   0.0000       0.704830        19.1794 
 208   0.0000       0.711355        19.3570 
 209   0.0000       0.714226        19.4351 
 210   0.0000       0.723413        19.6851 
 211   0.0000       0.727687        19.8014 
 212   0.0000       0.733501        19.9596 
 213   0.0000       0.734208        19.9788 
 214   0.0000       0.736923        20.0527 
 215   0.0000       0.750679        20.4270 
 216   0.0000       0.754893        20.5417 
 217   0.0000       0.759421        20.6649 
 218   0.0000       0.769101        20.9283 
 219   0.0000       0.775815        21.1110 
 220   0.0000       0.780586        21.2408 
 221   0.0000       0.795317        21.6417 
 222   0.0000       0.802123        21.8269 
 223   0.0000       0.818820        22.2812 
 224   0.0000       0.829446        22.5704 
 225   0.0000       0.833688        22.6858 
 226   0.0000       0.848459        23.0878 
 227   0.0000       0.853718        23.2309 
 228   0.0000       0.862618        23.4730 
 229   0.0000       0.869661        23.6647 
 230   0.0000       0.875373        23.8201 
 231   0.0000       0.882227        24.0066 
 232   0.0000       0.900607        24.5068 
 233   0.0000       0.908969        24.7343 
 234   0.0000       0.911113        24.7926 
 235   0.0000       0.915783        24.9197 
 236   0.0000       0.935334        25.4517 
 237   0.0000       0.935442        25.4547 
 238   0.0000       0.945953        25.7407 
 239   0.0000       0.954989        25.9866 
 240   0.0000       0.976389        26.5689 
 241   0.0000       0.977233        26.5918 
 242   0.0000       0.979188        26.6450 
 243   0.0000       0.982524        26.7358 
 244   0.0000       0.993358        27.0306 
 245   0.0000       0.995741        27.0955 
 246   0.0000       1.001542        27.2533 
 247   0.0000       1.009066        27.4581 
 248   0.0000       1.029589        28.0165 
 249   0.0000       1.030331        28.0367 
 250   0.0000       1.031303        28.0632 
 251   0.0000       1.038719        28.2650 
 252   0.0000       1.038781        28.2667 
 253   0.0000       1.053101        28.6563 
 254   0.0000       1.058418        28.8010 
 255   0.0000       1.062927        28.9237 
 256   0.0000       1.065803        29.0020 
 257   0.0000       1.079940        29.3867 
 258   0.0000       1.096890        29.8479 
 259   0.0000       1.106433        30.1076 
 260   0.0000       1.116610        30.3845 
 261   0.0000       1.128064        30.6962 
 262   0.0000       1.143361        31.1124 
 263   0.0000       1.149282        31.2735 
 264   0.0000       1.167609        31.7722 
 265   0.0000       1.186190        32.2779 
 266   0.0000       1.199660        32.6444 
 267   0.0000       1.205490        32.8031 
 268   0.0000       1.208634        32.8886 
 269   0.0000       1.213707        33.0266 
 270   0.0000       1.215723        33.0815 
 271   0.0000       1.220892        33.2221 
 272   0.0000       1.223223        33.2856 
 273   0.0000       1.230808        33.4920 
 274   0.0000       1.232549        33.5394 
 275   0.0000       1.255564        34.1656 
 276   0.0000       1.277278        34.7565 
 277   0.0000       1.292914        35.1820 
 278   0.0000       1.293872        35.2081 
 279   0.0000       1.297805        35.3151 
 280   0.0000       1.311511        35.6880 
 281   0.0000       1.320025        35.9197 
 282   0.0000       1.327388        36.1201 
 283   0.0000       1.338472        36.4217 
 284   0.0000       1.344810        36.5942 
 285   0.0000       1.362422        37.0734 
 286   0.0000       1.376855        37.4661 
 287   0.0000       1.381784        37.6003 
 288   0.0000       1.393760        37.9261 
 289   0.0000       1.395786        37.9813 
 290   0.0000       1.401398        38.1340 
 291   0.0000       1.424145        38.7530 
 292   0.0000       1.425503        38.7899 
 293   0.0000       1.425779        38.7974 
 294   0.0000       1.427028        38.8314 
 295   0.0000       1.430695        38.9312 
 296   0.0000       1.443141        39.2699 
 297   0.0000       1.453776        39.5593 
 298   0.0000       1.464578        39.8532 
 299   0.0000       1.473644        40.0999 
 300   0.0000       1.475631        40.1540 
 301   0.0000       1.481571        40.3156 
 302   0.0000       1.484153        40.3859 
 303   0.0000       1.486268        40.4434 
 304   0.0000       1.499559        40.8051 
 305   0.0000       1.504200        40.9314 
 306   0.0000       1.509327        41.0709 
 307   0.0000       1.520700        41.3803 
 308   0.0000       1.533103        41.7179 
 309   0.0000       1.541106        41.9356 
 310   0.0000       1.556591        42.3570 
 311   0.0000       1.569664        42.7127 
 312   0.0000       1.581254        43.0281 
 313   0.0000       1.586785        43.1786 
 314   0.0000       1.596204        43.4349 
 315   0.0000       1.597906        43.4812 
 316   0.0000       1.598768        43.5047 
 317   0.0000       1.608230        43.7622 
 318   0.0000       1.611165        43.8420 
 319   0.0000       1.617241        44.0074 
 320   0.0000       1.624679        44.2098 
 321   0.0000       1.627882        44.2969 
 322   0.0000       1.631082        44.3840 
 323   0.0000       1.635335        44.4997 
 324   0.0000       1.639075        44.6015 
 325   0.0000       1.639516        44.6135 
 326   0.0000       1.646555        44.8050 
 327   0.0000       1.646685        44.8086 
 328   0.0000       1.650443        44.9108 
 329   0.0000       1.651789        44.9475 
 330   0.0000       1.660280        45.1785 
 331   0.0000       1.670275        45.4505 
 332   0.0000       1.671615        45.4870 
 333   0.0000       1.677182        45.6384 
 334   0.0000       1.681869        45.7660 
 335   0.0000       1.686982        45.9051 
 336   0.0000       1.687719        45.9252 
 337   0.0000       1.692856        46.0650 
 338   0.0000       1.698056        46.2064 
 339   0.0000       1.701052        46.2880 
 340   0.0000       1.704520        46.3823 
 341   0.0000       1.705761        46.4161 
 342   0.0000       1.709251        46.5111 
 343   0.0000       1.718155        46.7534 
 344   0.0000       1.721925        46.8559 
 345   0.0000       1.735123        47.2151 
 346   0.0000       1.738518        47.3075 
 347   0.0000       1.741554        47.3901 
 348   0.0000       1.745262        47.4910 
 349   0.0000       1.760827        47.9145 
 350   0.0000       1.770294        48.1722 
 351   0.0000       1.772194        48.2238 
 352   0.0000       1.781664        48.4815 
 353   0.0000       1.784693        48.5640 
 354   0.0000       1.788830        48.6765 
 355   0.0000       1.794530        48.8317 
 356   0.0000       1.797598        48.9151 
 357   0.0000       1.803436        49.0740 
 358   0.0000       1.806508        49.1576 
 359   0.0000       1.818043        49.4715 
 360   0.0000       1.826227        49.6942 
 361   0.0000       1.826783        49.7093 
 362   0.0000       1.835329        49.9418 
 363   0.0000       1.841281        50.1038 
 364   0.0000       1.848492        50.3000 
 365   0.0000       1.848690        50.3054 
 366   0.0000       1.852778        50.4167 
 367   0.0000       1.862919        50.6926 
 368   0.0000       1.874209        50.9998 
 369   0.0000       1.884418        51.2776 
 370   0.0000       1.892228        51.4901 
 371   0.0000       1.901577        51.7446 
 372   0.0000       1.911308        52.0093 
 373   0.0000       1.922540        52.3150 
 374   0.0000       1.924908        52.3794 
 375   0.0000       1.932906        52.5970 
 376   0.0000       1.949838        53.0578 
 377   0.0000       1.957190        53.2578 
 378   0.0000       1.963712        53.4353 
 379   0.0000       1.972647        53.6785 
 380   0.0000       1.978836        53.8469 
 381   0.0000       1.989301        54.1316 
 382   0.0000       1.994172        54.2642 
 383   0.0000       1.994567        54.2749 
 384   0.0000       2.018783        54.9339 
 385   0.0000       2.034915        55.3728 
 386   0.0000       2.040939        55.5368 
 387   0.0000       2.051593        55.8267 
 388   0.0000       2.066255        56.2257 
 389   0.0000       2.075892        56.4879 
 390   0.0000       2.078343        56.5546 
 391   0.0000       2.088320        56.8261 
 392   0.0000       2.108054        57.3631 
 393   0.0000       2.118418        57.6451 
 394   0.0000       2.130116        57.9634 
 395   0.0000       2.140126        58.2358 
 396   0.0000       2.155616        58.6573 
 397   0.0000       2.156059        58.6694 
 398   0.0000       2.172852        59.1263 
 399   0.0000       2.192101        59.6501 
 400   0.0000       2.192315        59.6559 
 401   0.0000       2.198119        59.8138 
 402   0.0000       2.210268        60.1444 
 403   0.0000       2.226828        60.5951 
 404   0.0000       2.230862        60.7048 
 405   0.0000       2.231792        60.7301 
 406   0.0000       2.235525        60.8317 
 407   0.0000       2.248415        61.1825 
 408   0.0000       2.273826        61.8740 
 409   0.0000       2.282054        62.0978 
 410   0.0000       2.301413        62.6246 
 411   0.0000       2.303952        62.6937 
 412   0.0000       2.305084        62.7245 
 413   0.0000       2.321775        63.1787 
 414   0.0000       2.329203        63.3808 
 415   0.0000       2.342273        63.7365 
 416   0.0000       2.359594        64.2078 
 417   0.0000       2.371026        64.5189 
 418   0.0000       2.377953        64.7074 
 419   0.0000       2.408267        65.5323 
 420   0.0000       2.408628        65.5421 
 421   0.0000       2.410967        65.6058 
 422   0.0000       2.414025        65.6890 
 423   0.0000       2.414544        65.7031 
 424   0.0000       2.418541        65.8118 
 425   0.0000       2.419991        65.8513 
 426   0.0000       2.429172        66.1011 
 427   0.0000       2.437570        66.3296 
 428   0.0000       2.449746        66.6610 
 429   0.0000       2.452131        66.7259 
 430   0.0000       2.484178        67.5979 
 431   0.0000       2.506361        68.2016 
 432   0.0000       2.522673        68.6454 
 433   0.0000       2.544870        69.2494 
 434   0.0000       2.548674        69.3529 
 435   0.0000       2.559974        69.6604 
 436   0.0000       2.580796        70.2270 
 437   0.0000       2.601345        70.7862 
 438   0.0000       2.615789        71.1792 
 439   0.0000       2.625495        71.4433 
 440   0.0000       2.637579        71.7722 
 441   0.0000       2.642534        71.9070 
 442   0.0000       2.653498        72.2053 
 443   0.0000       2.681299        72.9619 
 444   0.0000       2.712195        73.8026 
 445   0.0000       2.713625        73.8415 
 446   0.0000       2.719319        73.9964 
 447   0.0000       2.723406        74.1077 
 448   0.0000       2.733671        74.3870 
 449   0.0000       2.781783        75.6962 
 450   0.0000       2.806601        76.3715 
 451   0.0000       2.844420        77.4006 
 452   0.0000       2.863616        77.9230 
 453   0.0000       2.876530        78.2744 
 454   0.0000       2.892740        78.7155 
 455   0.0000       2.997124        81.5559 
 456   0.0000       3.074216        83.6537 
 457   0.0000       3.096051        84.2478 
 458   0.0000       3.202994        87.1579 
 459   0.0000       3.395397        92.3934 
 460   0.0000       3.584051        97.5270 

                 SPIN DOWN ORBITALS
  NO   OCC          E(Eh)            E(eV) 
   0   1.0000     -10.216526      -278.0058 
   1   1.0000     -10.213609      -277.9264 
   2   1.0000     -10.209926      -277.8262 
   3   1.0000     -10.200790      -277.5776 
   4   1.0000     -10.198790      -277.5232 
   5   1.0000     -10.197485      -277.4877 
   6   1.0000     -10.197355      -277.4841 
   7   1.0000     -10.196313      -277.4558 
   8   1.0000     -10.195659      -277.4380 
   9   1.0000     -10.195487      -277.4333 
  10   1.0000     -10.191693      -277.3301 
  11   1.0000     -10.191216      -277.3171 
  12   1.0000     -10.190184      -277.2890 
  13   1.0000     -10.190002      -277.2841 
  14   1.0000     -10.188641      -277.2470 
  15   1.0000     -10.187729      -277.2222 
  16   1.0000     -10.187159      -277.2067 
  17   1.0000     -10.183811      -277.1156 
  18   1.0000     -10.183557      -277.1087 
  19   1.0000     -10.182036      -277.0673 
  20   1.0000     -10.182023      -277.0669 
  21   1.0000     -10.181731      -277.0590 
  22   1.0000     -10.176966      -276.9293 
  23   1.0000     -10.175685      -276.8945 
  24   1.0000      -0.870404       -23.6849 
  25   1.0000      -0.863513       -23.4974 
  26   1.0000      -0.814989       -22.1770 
  27   1.0000      -0.796722       -21.6799 
  28   1.0000      -0.794155       -21.6100 
  29   1.0000      -0.777932       -21.1686 
  30   1.0000      -0.765696       -20.8357 
  31   1.0000      -0.751302       -20.4440 
  32   1.0000      -0.742983       -20.2176 
  33   1.0000      -0.726378       -19.7658 
  34   1.0000      -0.712216       -19.3804 
  35   1.0000      -0.695386       -18.9224 
  36   1.0000      -0.653569       -17.7845 
  37   1.0000      -0.641816       -17.4647 
  38   1.0000      -0.617134       -16.7931 
  39   1.0000      -0.609325       -16.5806 
  40   1.0000      -0.608745       -16.5648 
  41   1.0000      -0.591512       -16.0959 
  42   1.0000      -0.578313       -15.7367 
  43   1.0000      -0.558730       -15.2038 
  44   1.0000      -0.540552       -14.7092 
  45   1.0000      -0.528007       -14.3678 
  46   1.0000      -0.504089       -13.7170 
  47   1.0000      -0.488268       -13.2864 
  48   1.0000      -0.479805       -13.0562 
  49   1.0000      -0.475151       -12.9295 
  50   1.0000      -0.469941       -12.7877 
  51   1.0000      -0.458537       -12.4774 
  52   1.0000      -0.457991       -12.4626 
  53   1.0000      -0.436834       -11.8869 
  54   1.0000      -0.429952       -11.6996 
  55   1.0000      -0.427942       -11.6449 
  56   1.0000      -0.424900       -11.5621 
  57   1.0000      -0.424454       -11.5500 
  58   1.0000      -0.419384       -11.4120 
  59   1.0000      -0.411279       -11.1915 
  60   1.0000      -0.396688       -10.7944 
  61   1.0000      -0.390548       -10.6273 
  62   1.0000      -0.383132       -10.4256 
  63   1.0000      -0.376136       -10.2352 
  64   1.0000      -0.374181       -10.1820 
  65   1.0000      -0.364014        -9.9053 
  66   1.0000      -0.361592        -9.8394 
  67   1.0000      -0.355655        -9.6779 
  68   1.0000      -0.351164        -9.5556 
  69   1.0000      -0.350736        -9.5440 
  70   1.0000      -0.337980        -9.1969 
  71   1.0000      -0.331904        -9.0316 
  72   1.0000      -0.330691        -8.9985 
  73   1.0000      -0.328134        -8.9290 
  74   1.0000      -0.327401        -8.9090 
  75   1.0000      -0.323425        -8.8008 
  76   1.0000      -0.321483        -8.7480 
  77   1.0000      -0.294142        -8.0040 
  78   1.0000      -0.272846        -7.4245 
  79   1.0000      -0.268482        -7.3058 
  80   1.0000      -0.261335        -7.1113 
  81   1.0000      -0.259203        -7.0533 
  82   1.0000      -0.252330        -6.8662 
  83   1.0000      -0.207349        -5.6423 
  84   0.0000      -0.082808        -2.2533 
  85   0.0000      -0.052278        -1.4226 
  86   0.0000      -0.010842        -0.2950 
  87   0.0000      -0.007237        -0.1969 
  88   0.0000       0.034243         0.9318 
  89   0.0000       0.042275         1.1504 
  90   0.0000       0.051202         1.3933 
  91   0.0000       0.054305         1.4777 
  92   0.0000       0.063372         1.7245 
  93   0.0000       0.064908         1.7662 
  94   0.0000       0.070793         1.9264 
  95   0.0000       0.078799         2.1442 
  96   0.0000       0.084321         2.2945 
  97   0.0000       0.089312         2.4303 
  98   0.0000       0.095577         2.6008 
  99   0.0000       0.095768         2.6060 
 100   0.0000       0.099508         2.7077 
 101   0.0000       0.103256         2.8097 
 102   0.0000       0.104870         2.8537 
 103   0.0000       0.113738         3.0950 
 104   0.0000       0.121892         3.3168 
 105   0.0000       0.126211         3.4344 
 106   0.0000       0.130263         3.5446 
 107   0.0000       0.138227         3.7613 
 108   0.0000       0.143234         3.8976 
 109   0.0000       0.149600         4.0708 
 110   0.0000       0.152761         4.1568 
 111   0.0000       0.155561         4.2330 
 112   0.0000       0.159440         4.3386 
 113   0.0000       0.161039         4.3821 
 114   0.0000       0.162016         4.4087 
 115   0.0000       0.166866         4.5406 
 116   0.0000       0.173779         4.7288 
 117   0.0000       0.176206         4.7948 
 118   0.0000       0.188560         5.1310 
 119   0.0000       0.205168         5.5829 
 120   0.0000       0.213290         5.8039 
 121   0.0000       0.215196         5.8558 
 122   0.0000       0.218667         5.9502 
 123   0.0000       0.222694         6.0598 
 124   0.0000       0.225627         6.1396 
 125   0.0000       0.244827         6.6621 
 126   0.0000       0.252274         6.8647 
 127   0.0000       0.268342         7.3020 
 128   0.0000       0.268992         7.3196 
 129   0.0000       0.278872         7.5885 
 130   0.0000       0.286433         7.7942 
 131   0.0000       0.292594         7.9619 
 132   0.0000       0.307857         8.3772 
 133   0.0000       0.314699         8.5634 
 134   0.0000       0.321728         8.7547 
 135   0.0000       0.333037         9.0624 
 136   0.0000       0.349057         9.4983 
 137   0.0000       0.361618         9.8401 
 138   0.0000       0.366985         9.9862 
 139   0.0000       0.379052        10.3145 
 140   0.0000       0.392262        10.6740 
 141   0.0000       0.406356        11.0575 
 142   0.0000       0.412159        11.2154 
 143   0.0000       0.414074        11.2675 
 144   0.0000       0.419927        11.4268 
 145   0.0000       0.422766        11.5041 
 146   0.0000       0.432375        11.7655 
 147   0.0000       0.442770        12.0484 
 148   0.0000       0.450298        12.2532 
 149   0.0000       0.450760        12.2658 
 150   0.0000       0.455580        12.3969 
 151   0.0000       0.457359        12.4454 
 152   0.0000       0.467502        12.7214 
 153   0.0000       0.473452        12.8833 
 154   0.0000       0.475528        12.9398 
 155   0.0000       0.475909        12.9501 
 156   0.0000       0.480254        13.0684 
 157   0.0000       0.484440        13.1823 
 158   0.0000       0.493085        13.4175 
 159   0.0000       0.501016        13.6334 
 160   0.0000       0.501489        13.6462 
 161   0.0000       0.503415        13.6986 
 162   0.0000       0.507275        13.8037 
 163   0.0000       0.508975        13.8499 
 164   0.0000       0.514293        13.9946 
 165   0.0000       0.515764        14.0347 
 166   0.0000       0.521287        14.1849 
 167   0.0000       0.522906        14.2290 
 168   0.0000       0.528595        14.3838 
 169   0.0000       0.531741        14.4694 
 170   0.0000       0.536503        14.5990 
 171   0.0000       0.553280        15.0555 
 172   0.0000       0.559537        15.2258 
 173   0.0000       0.567822        15.4512 
 174   0.0000       0.572429        15.5766 
 175   0.0000       0.576233        15.6801 
 176   0.0000       0.586280        15.9535 
 177   0.0000       0.592499        16.1227 
 178   0.0000       0.593979        16.1630 
 179   0.0000       0.600495        16.3403 
 180   0.0000       0.601950        16.3799 
[...]
  Y           0.6207265           -0.0004212            0.7840271
  Z          -0.0002303           -0.9999999           -0.0003548

Notes:  (1) The A matrix conforms to the "SAI" spin Hamiltonian convention.
        (2) Tensor is right-handed.

 -----------------------------------------------------------
 Nucleus  46H : A:ISTP=    1 I=  0.5 P=533.5514 MHz/au**3
                Q:ISTP=    2 I=  1.0 Q=  0.0029 barn     
 -----------------------------------------------------------
 Solving for nuclear perturbation:
Forming RHS of the CP-SCF equations         ... 
Calc. nucleus orbit integrals (SHARK)       ... done

------------------------------------------------------------------------------
                           ORCA CP-SCF CALCULATION
------------------------------------------------------------------------------

Input orbitals are from        ... cc-pVDZ.gbw
Input Perturbation             ... cc-pVDZ.pin.tmp
Wavefunction output            ... cc-pVDZ.pout.tmp
Perturbation mode              ... Imaginary perturbation
Solver                         ... POPLE
Max. number of iterations      ... 64
Convergence tolerance          ... 1.000e-03
Integral handling              ... Direct
DFT GridXC                     ... 1
COSX GridX                     ... 1
COSX IntAccX                   ... 3.067
COSX Algorithm                 ... Auto
Number of perturbations        ... 3
Number of operators            ... 2
Orbital ranges used for CP-SCF:
 Operator 0:  Orbitals   0... 84  to  85...460
 Operator 1:  Orbitals   0... 83  to  84...460
Variables per perturbation     ... 63628
DFT calculation                         ... on
XC functional terms                     ... off
Hybrid DFT                              ... on
   Exchange mixing (SCF)                ...  0.200
   Exchange mixing (CP-SCF)             ...  0.200
   GGA exch. scaling(SCF)               ...  0.720
   GGA exch. scaling (CP-SCF)           ...  0.720
   GGA corr. scaling (SCF)              ...  0.810
   GGA corr. scaling (CP-SCF)           ...  0.810

CP-SCF GRID
-----------

General Integration Accuracy     IntAcc      ... 3.467
Radial Grid Type                 RadialGrid  ... OptM3 with GC (2021)
Angular Grid (max. ang.)         AngularGrid ... 1 (Lebedev-50)
Angular grid pruning method      GridPruning ... 4 (adaptive)
Weight generation scheme         WeightScheme... Becke
Basis function cutoff            BFCut       ... 1.0000e-10
Integration weight cutoff        WCut        ... 1.0000e-14
Angular grids for H and He will be reduced by one unit
Partially contracted basis set               ... off
Rotationally invariant grid construction     ... off

Total number of grid points                  ...    31886
Total number of batches                      ...      519
Average number of points per batch           ...       61
Average number of grid points per atom       ...      651

CP-SCF GRIDX
------------

General Integration Accuracy     IntAcc      ... 3.067
Radial Grid Type                 RadialGrid  ... OptM3 with GC (2021)
Angular Grid (max. ang.)         AngularGrid ... 1 (Lebedev-50)
Angular grid pruning method      GridPruning ... 4 (adaptive)
Weight generation scheme         WeightScheme... Becke
Basis function cutoff            BFCut       ... 1.0000e-10
Integration weight cutoff        WCut        ... 1.0000e-14
Angular grids for H and He will be reduced by one unit
Partially contracted basis set               ... on
Rotationally invariant grid construction     ... off

Total number of grid points                  ...    14949
Total number of batches                      ...      264
Average number of points per batch           ...       56
Average number of grid points per atom       ...      305

Memory available               ... 876.0 MB
Memory needed per perturbation ...  13.4 MB
Perturbations treated per batch... 3
Number of batches              ... 1
     CP-SCF ITERATION   0:   4.5381e-02 (   1.9 sec   0/  3 done)
     CP-SCF ITERATION   1:   1.9123e-03 (   2.1 sec   0/  3 done)
     CP-SCF ITERATION   2:   1.3363e-04 (   1.9 sec   3/  3 done)
                    *** THE CP-SCF HAS CONVERGED ***

Forming final perturbed densities           ... done
Transforming perturbed density to AO basis  ... done

 Raw HFC matrix (all values in MHz): 
 -----------------------------------
                 1.3437              -0.3066              -0.0001
                -0.3064               0.1683               0.0000
                -0.0001               0.0000               0.5140

 A(FC)           0.6753               0.6753               0.6753
 A(SD)          -0.5821              -0.1615               0.7435
 A(ORB+DIA)     -0.0001               0.0001              -0.0001    A(PC) =  -0.0000
 A(ORB)         -0.0001              -0.0000              -0.0001    A(PC) =  -0.0001
 A(DIA)         -0.0000               0.0001               0.0001    A(PC) =   0.0000
             ----------           ----------           ----------
 A(Tot)          0.0931               0.5140               1.4188    A(iso)=    0.6753
 Orientation: 
  X           0.2381060           -0.0000840           -0.9712392
  Y           0.9712392           -0.0000246            0.2381060
  Z          -0.0000439           -1.0000000            0.0000757

Notes:  (1) The A matrix conforms to the "SAI" spin Hamiltonian convention.
        (2) Tensor is right-handed.

 -----------------------------------------------------------
 Nucleus  47H : A:ISTP=    1 I=  0.5 P=533.5514 MHz/au**3
                Q:ISTP=    2 I=  1.0 Q=  0.0029 barn     
 -----------------------------------------------------------
 Solving for nuclear perturbation:
Forming RHS of the CP-SCF equations         ... 
Calc. nucleus orbit integrals (SHARK)       ... done

------------------------------------------------------------------------------
                           ORCA CP-SCF CALCULATION
------------------------------------------------------------------------------

Input orbitals are from        ... cc-pVDZ.gbw
Input Perturbation             ... cc-pVDZ.pin.tmp
Wavefunction output            ... cc-pVDZ.pout.tmp
Perturbation mode              ... Imaginary perturbation
Solver                         ... POPLE
Max. number of iterations      ... 64
Convergence tolerance          ... 1.000e-03
Integral handling              ... Direct
DFT GridXC                     ... 1
COSX GridX                     ... 1
COSX IntAccX                   ... 3.067
COSX Algorithm                 ... Auto
Number of perturbations        ... 3
Number of operators            ... 2
Orbital ranges used for CP-SCF:
 Operator 0:  Orbitals   0... 84  to  85...460
 Operator 1:  Orbitals   0... 83  to  84...460
Variables per perturbation     ... 63628
DFT calculation                         ... on
XC functional terms                     ... off
Hybrid DFT                              ... on
   Exchange mixing (SCF)                ...  0.200
   Exchange mixing (CP-SCF)             ...  0.200
   GGA exch. scaling(SCF)               ...  0.720
   GGA exch. scaling (CP-SCF)           ...  0.720
   GGA corr. scaling (SCF)              ...  0.810
   GGA corr. scaling (CP-SCF)           ...  0.810

CP-SCF GRID
-----------

General Integration Accuracy     IntAcc      ... 3.467
Radial Grid Type                 RadialGrid  ... OptM3 with GC (2021)
Angular Grid (max. ang.)         AngularGrid ... 1 (Lebedev-50)
Angular grid pruning method      GridPruning ... 4 (adaptive)
Weight generation scheme         WeightScheme... Becke
Basis function cutoff            BFCut       ... 1.0000e-10
Integration weight cutoff        WCut        ... 1.0000e-14
Angular grids for H and He will be reduced by one unit
Partially contracted basis set               ... off
Rotationally invariant grid construction     ... off

Total number of grid points                  ...    31886
Total number of batches                      ...      519
Average number of points per batch           ...       61
Average number of grid points per atom       ...      651

CP-SCF GRIDX
------------

General Integration Accuracy     IntAcc      ... 3.067
Radial Grid Type                 RadialGrid  ... OptM3 with GC (2021)
Angular Grid (max. ang.)         AngularGrid ... 1 (Lebedev-50)
Angular grid pruning method      GridPruning ... 4 (adaptive)
Weight generation scheme         WeightScheme... Becke
Basis function cutoff            BFCut       ... 1.0000e-10
Integration weight cutoff        WCut        ... 1.0000e-14
Angular grids for H and He will be reduced by one unit
Partially contracted basis set               ... on
Rotationally invariant grid construction     ... off

Total number of grid points                  ...    14949
Total number of batches                      ...      264
Average number of points per batch           ...       56
Average number of grid points per atom       ...      305

Memory available               ... 875.5 MB
Memory needed per perturbation ...  13.4 MB
Perturbations treated per batch... 3
Number of batches              ... 1
     CP-SCF ITERATION   0:   4.5399e-02 (   2.0 sec   0/  3 done)
     CP-SCF ITERATION   1:   1.9102e-03 (   1.9 sec   0/  3 done)
     CP-SCF ITERATION   2:   1.3643e-04 (   1.9 sec   3/  3 done)
                    *** THE CP-SCF HAS CONVERGED ***

Forming final perturbed densities           ... done
Transforming perturbed density to AO basis  ... done

 Raw HFC matrix (all values in MHz): 
 -----------------------------------
                 1.2181               0.3922              -0.0001
                 0.3921               0.2463               0.0001
                -0.0001               0.0001               0.5626

 A(FC)           0.6757               0.6757               0.6757
 A(SD)          -0.5678              -0.1132               0.6810
 A(ORB+DIA)     -0.0001               0.0001              -0.0002    A(PC) =  -0.0001
 A(ORB)         -0.0001               0.0000              -0.0002    A(PC) =  -0.0001
 A(DIA)         -0.0000               0.0001               0.0000    A(PC) =   0.0000
             ----------           ----------           ----------
 A(Tot)          0.1078               0.5626               1.3566    A(iso)=    0.6757
 Orientation: 
  X          -0.3330463            0.0000043            0.9429105
  Y           0.9429105            0.0002187            0.3330463
  Z          -0.0002048            1.0000000           -0.0000769

Notes:  (1) The A matrix conforms to the "SAI" spin Hamiltonian convention.
        (2) Tensor is right-handed.

 -----------------------------------------------------------
 Nucleus  48H : A:ISTP=    1 I=  0.5 P=533.5514 MHz/au**3
                Q:ISTP=    2 I=  1.0 Q=  0.0029 barn     
 -----------------------------------------------------------
 Solving for nuclear perturbation:
Forming RHS of the CP-SCF equations         ... 
Calc. nucleus orbit integrals (SHARK)       ... done

------------------------------------------------------------------------------
                           ORCA CP-SCF CALCULATION
------------------------------------------------------------------------------

Input orbitals are from        ... cc-pVDZ.gbw
Input Perturbation             ... cc-pVDZ.pin.tmp
Wavefunction output            ... cc-pVDZ.pout.tmp
Perturbation mode              ... Imaginary perturbation
Solver                         ... POPLE
Max. number of iterations      ... 64
Convergence tolerance          ... 1.000e-03
Integral handling              ... Direct
DFT GridXC                     ... 1
COSX GridX                     ... 1
COSX IntAccX                   ... 3.067
COSX Algorithm                 ... Auto
Number of perturbations        ... 3
Number of operators            ... 2
Orbital ranges used for CP-SCF:
 Operator 0:  Orbitals   0... 84  to  85...460
 Operator 1:  Orbitals   0... 83  to  84...460
Variables per perturbation     ... 63628
DFT calculation                         ... on
XC functional terms                     ... off
Hybrid DFT                              ... on
   Exchange mixing (SCF)                ...  0.200
   Exchange mixing (CP-SCF)             ...  0.200
   GGA exch. scaling(SCF)               ...  0.720
   GGA exch. scaling (CP-SCF)           ...  0.720
   GGA corr. scaling (SCF)              ...  0.810
   GGA corr. scaling (CP-SCF)           ...  0.810

CP-SCF GRID
-----------

General Integration Accuracy     IntAcc      ... 3.467
Radial Grid Type                 RadialGrid  ... OptM3 with GC (2021)
Angular Grid (max. ang.)         AngularGrid ... 1 (Lebedev-50)
Angular grid pruning method      GridPruning ... 4 (adaptive)
Weight generation scheme         WeightScheme... Becke
Basis function cutoff            BFCut       ... 1.0000e-10
Integration weight cutoff        WCut        ... 1.0000e-14
Angular grids for H and He will be reduced by one unit
Partially contracted basis set               ... off
Rotationally invariant grid construction     ... off

Total number of grid points                  ...    31886
Total number of batches                      ...      519
Average number of points per batch           ...       61
Average number of grid points per atom       ...      651

CP-SCF GRIDX
------------

General Integration Accuracy     IntAcc      ... 3.067
Radial Grid Type                 RadialGrid  ... OptM3 with GC (2021)
Angular Grid (max. ang.)         AngularGrid ... 1 (Lebedev-50)
Angular grid pruning method      GridPruning ... 4 (adaptive)
Weight generation scheme         WeightScheme... Becke
Basis function cutoff            BFCut       ... 1.0000e-10
Integration weight cutoff        WCut        ... 1.0000e-14
Angular grids for H and He will be reduced by one unit
Partially contracted basis set               ... on
Rotationally invariant grid construction     ... off

Total number of grid points                  ...    14949
Total number of batches                      ...      264
Average number of points per batch           ...       56
Average number of grid points per atom       ...      305

Memory available               ... 875.0 MB
Memory needed per perturbation ...  13.4 MB
Perturbations treated per batch... 3
Number of batches              ... 1
     CP-SCF ITERATION   0:   4.1556e-02 (   2.0 sec   0/  3 done)
     CP-SCF ITERATION   1:   1.6791e-03 (   1.9 sec   2/  3 done)
     CP-SCF ITERATION   2:   7.5520e-05 (   1.3 sec   3/  3 done)
                    *** THE CP-SCF HAS CONVERGED ***

Forming final perturbed densities           ... done
Transforming perturbed density to AO basis  ... done

 Raw HFC matrix (all values in MHz): 
 -----------------------------------
                -0.2125              -0.1132              -0.0001
                -0.1131              -0.3540              -0.0000
                -0.0001              -0.0000              -0.3047

 A(FC)          -0.2904              -0.2904              -0.2904
 A(SD)           0.1406              -0.0143              -0.1263
 A(ORB+DIA)      0.0001               0.0000               0.0001    A(PC) =   0.0000
 A(ORB)          0.0000               0.0000               0.0000    A(PC) =   0.0000
 A(DIA)          0.0000               0.0000               0.0000    A(PC) =   0.0000
             ----------           ----------           ----------
 A(Tot)         -0.1498              -0.3047              -0.4167    A(iso)=   -0.2904
 Orientation: 
  X           0.8746364           -0.0000785            0.4847794
  Y          -0.4847794            0.0004188            0.8746364
  Z          -0.0002717           -0.9999999            0.0003282

Notes:  (1) The A matrix conforms to the "SAI" spin Hamiltonian convention.
        (2) Tensor is right-handed.


--------------------------------------------------------------------------------
----------------------------------------------------------------------------
                           ORCA EULER ANGLE PROGRAM
----------------------------------------------------------------------------

Only g-tensor available        -->  using g-tensor as reference tensor

Reference tensor               ...  g

g-tensor ordering              ...  |g_min> --> |gx>
                                    |g_mid> --> |gy>
                                    |g_max> --> |gz>

A- and EFG-tensor ordering     ...  the axes |Ax>, |Qx>, |Ay>, etc. are assigned
                                    such that the Euler rotation is minimal. You
                                    can find the respective eigenvalues as Ax,
                                    EFGx, Ay, etc. in the tables below.
                                    The relation of |Ax>, |Ay>,  etc. to Amin, Amid, etc.
                                    (as printed in the ORCA EPR/NMR CALCULATION Output)
                                    is obtained in the detailed printout.

Euler rotation around          ...  z - y - z
   First rotation              -->  by alpha around z
   Second rotation             -->  by beta around y'
   Third rotation              -->  by gamma around z''
   Positive / Negative angle   -->  clockwise / counterclockwise rotation

Plot EFG-tensors                    (-)
Plot HFC-tensors                    (-)
Detailed Printout                   (-)

-------------------------------------------------------------------------
          Euler rotation of hyperfine tensor to g-tensor
-------------------------------------------------------------------------

-------------------------------------------------------------------
 Atom  |   Alpha    Beta    Gamma   |   Ax       Ay       Az 
       |          [degrees]         |           [MHz]         
-------------------------------------------------------------------
  9H      -90.0     32.0     90.0     -16.19    -7.05   -19.67
 10H      -90.0     34.6     90.0       4.00     4.70     9.50
 12H       90.0     17.7    -90.0     -46.50   -17.38   -71.52
 14H      -93.3     30.7    114.3      57.44    67.10    58.76
 15H      -87.0     30.6     66.1      57.30    66.96    58.62
 17H     -131.4     15.0    166.6      -3.20    -3.04     3.21
 18H      -49.3     14.8     14.0      -3.20    -3.04     3.20
 20H       67.2     28.1   -111.5      -0.10     0.02     2.26
 21H      113.0     28.1    -68.5      -0.10     0.02     2.26
 23H      -10.7     31.3     55.2      20.83    20.26    23.98
 24H     -169.3     31.3    124.9      20.82    20.26    23.97
 26H      105.8     33.1   -113.0      -0.99    -0.86     1.00
 27H       74.2     33.1    -66.9      -0.99    -0.86     1.00
 29H       36.5      8.6     -2.3      -0.10    -0.15     0.82
 30H      143.5      8.6   -177.6      -0.10    -0.15     0.82
 32H       71.6     19.9    -67.7      -0.13    -0.11     0.39
 33H      108.4     19.9   -112.2      -0.13    -0.11     0.39
 35H       90.1     12.0    -89.9      -7.95    -2.37   -10.91
 36H       89.6     10.1    -90.1      -0.80    -0.82     0.77
 37H       90.0      8.9    -90.0      -0.13    -0.13     0.24
 44H       89.9     16.2    -89.9       0.65     0.39     1.10
 45H      -90.0     32.1     90.0      -0.29    -0.46    -0.12
 46H       89.9      5.8    -89.9       0.51     1.42     0.09
 47H       90.0     39.0    -90.0       0.56     1.36     0.11
 48H      -89.8      9.5     89.9      -0.30    -0.15    -0.42
-------------------------------------------------------------------


Maximum memory used throughout the entire EPRNMR-calculation: 218.8 MB

Timings for individual modules:

Sum of individual times         ...     4844.456 sec (=  80.741 min)
GTO integral calculation        ...        4.784 sec (=   0.080 min)   0.1 %
Spin-Orbit-Coupling Matrices    ...        9.475 sec (=   0.158 min)   0.2 %
SCF iterations                  ...       47.197 sec (=   0.787 min)   1.0 %
EPR/NMR calculation             ...     4782.999 sec (=  79.717 min)  98.7 %
                             ****ORCA TERMINATED NORMALLY****
TOTAL RUN TIME: 0 days 1 hours 20 minutes 48 seconds 795 msec
