
                                 *****************
                                 * O   R   C   A *
                                 *****************

                                            #,                                       
                                            ###                                      
                                            ####                                     
                                            #####                                    
                                            ######                                   
                                           ########,                                 
                                     ,,################,,,,,                         
                               ,,#################################,,                 
                          ,,##########################################,,             
                       ,#########################################, ''#####,          
                    ,#############################################,,   '####,        
                  ,##################################################,,,,####,       
                ,###########''''           ''''###############################       
              ,#####''   ,,,,##########,,,,          '''####'''          '####       
            ,##' ,,,,###########################,,,                        '##       
           ' ,,###''''                  '''############,,,                           
         ,,##''                                '''############,,,,        ,,,,,,###''
      ,#''                                            '''#######################'''  
     '                                                          ''''####''''         
             ,#######,   #######,   ,#######,      ##                                
            ,#'     '#,  ##    ##  ,#'     '#,    #''#        ######   ,####,        
            ##       ##  ##   ,#'  ##            #'  '#       #        #'  '#        
            ##       ##  #######   ##           ,######,      #####,   #    #        
            '#,     ,#'  ##    ##  '#,     ,#' ,#      #,         ##   #,  ,#        
             '#######'   ##     ##  '#######'  #'      '#     #####' # '####'        



                  #######################################################
                  #                        -***-                        #
                  #          Department of theory and spectroscopy      #
                  #    Directorship and core code : Frank Neese         #
                  #        Max Planck Institute fuer Kohlenforschung    #
                  #                Kaiser Wilhelm Platz 1               #
                  #                 D-45470 Muelheim/Ruhr               #
                  #                      Germany                        #
                  #                                                     #
                  #                  All rights reserved                #
                  #                        -***-                        #
                  #######################################################


                         Program Version 5.0.4 -  RELEASE  -


 With contributions from (in alphabetic order):
   Daniel Aravena         : Magnetic Suceptibility
   Michael Atanasov       : Ab Initio Ligand Field Theory (pilot matlab implementation)
   Alexander A. Auer      : GIAO ZORA, VPT2 properties, NMR spectrum
   Ute Becker             : Parallelization
   Giovanni Bistoni       : ED, misc. LED, open-shell LED, HFLD
   Martin Brehm           : Molecular dynamics
   Dmytro Bykov           : SCF Hessian
   Vijay G. Chilkuri      : MRCI spin determinant printing, contributions to CSF-ICE
   Dipayan Datta          : RHF DLPNO-CCSD density
   Achintya Kumar Dutta   : EOM-CC, STEOM-CC
   Dmitry Ganyushin       : Spin-Orbit,Spin-Spin,Magnetic field MRCI
   Miquel Garcia          : C-PCM and meta-GGA Hessian, CC/C-PCM, Gaussian charge scheme
   Yang Guo               : DLPNO-NEVPT2, F12-NEVPT2, CIM, IAO-localization
   Andreas Hansen         : Spin unrestricted coupled pair/coupled cluster methods
   Benjamin Helmich-Paris : MC-RPA, TRAH-SCF, COSX integrals
   Lee Huntington         : MR-EOM, pCC
   Robert Izsak           : Overlap fitted RIJCOSX, COSX-SCS-MP3, EOM
   Marcus Kettner         : VPT2
   Christian Kollmar      : KDIIS, OOCD, Brueckner-CCSD(T), CCSD density, CASPT2, CASPT2-K
   Simone Kossmann        : Meta GGA functionals, TD-DFT gradient, OOMP2, MP2 Hessian
   Martin Krupicka        : Initial AUTO-CI
   Lucas Lang             : DCDCAS
   Marvin Lechner         : AUTO-CI (C++ implementation), FIC-MRCC
   Dagmar Lenk            : GEPOL surface, SMD
   Dimitrios Liakos       : Extrapolation schemes; Compound Job, initial MDCI parallelization
   Dimitrios Manganas     : Further ROCIS development; embedding schemes
   Dimitrios Pantazis     : SARC Basis sets
   Anastasios Papadopoulos: AUTO-CI, single reference methods and gradients
   Taras Petrenko         : DFT Hessian,TD-DFT gradient, ASA, ECA, R-Raman, ABS, FL, XAS/XES, NRVS
   Peter Pinski           : DLPNO-MP2, DLPNO-MP2 Gradient
   Christoph Reimann      : Effective Core Potentials
   Marius Retegan         : Local ZFS, SOC
   Christoph Riplinger    : Optimizer, TS searches, QM/MM, DLPNO-CCSD(T), (RO)-DLPNO pert. Triples
   Tobias Risthaus        : Range-separated hybrids, TD-DFT gradient, RPA, STAB
   Michael Roemelt        : Original ROCIS implementation
   Masaaki Saitow         : Open-shell DLPNO-CCSD energy and density
   Barbara Sandhoefer     : DKH picture change effects
   Avijit Sen             : IP-ROCIS
   Kantharuban Sivalingam : CASSCF convergence, NEVPT2, FIC-MRCI
   Bernardo de Souza      : ESD, SOC TD-DFT
   Georgi Stoychev        : AutoAux, RI-MP2 NMR, DLPNO-MP2 response
   Willem Van den Heuvel  : Paramagnetic NMR
   Boris Wezisla          : Elementary symmetry handling
   Frank Wennmohs         : Technical directorship


 We gratefully acknowledge several colleagues who have allowed us to
 interface, adapt or use parts of their codes:
   Stefan Grimme, W. Hujo, H. Kruse, P. Pracht,  : VdW corrections, initial TS optimization,
                  C. Bannwarth, S. Ehlert          DFT functionals, gCP, sTDA/sTD-DF
   Ed Valeev, F. Pavosevic, A. Kumar             : LibInt (2-el integral package), F12 methods
   Garnet Chan, S. Sharma, J. Yang, R. Olivares  : DMRG
   Ulf Ekstrom                                   : XCFun DFT Library
   Mihaly Kallay                                 : mrcc  (arbitrary order and MRCC methods)
   Jiri Pittner, Ondrej Demel                    : Mk-CCSD
   Frank Weinhold                                : gennbo (NPA and NBO analysis)
   Christopher J. Cramer and Donald G. Truhlar   : smd solvation model
   Lars Goerigk                                  : TD-DFT with DH, B97 family of functionals
   V. Asgeirsson, H. Jonsson                     : NEB implementation
   FAccTs GmbH                                   : IRC, NEB, NEB-TS, DLPNO-Multilevel, CI-OPT
                                                   MM, QMMM, 2- and 3-layer-ONIOM, Crystal-QMMM,
                                                   LR-CPCM, SF, NACMEs, symmetry and pop. for TD-DFT,
                                                   nearIR, NL-DFT gradient (VV10), updates on ESD,
                                                   ML-optimized integration grids
   S Lehtola, MJT Oliveira, MAL Marques          : LibXC Library
   Liviu Ungur et al                             : ANISO software


 Your calculation uses the libint2 library for the computation of 2-el integrals
 For citations please refer to: http://libint.valeyev.net

 Your ORCA version has been built with support for libXC version: 5.1.0
 For citations please refer to: https://tddft.org/programs/libxc/

 This ORCA versions uses:
   CBLAS   interface :  Fast vector & matrix operations
   LAPACKE interface :  Fast linear algebra routines
   SCALAPACK package :  Parallel linear algebra routines
   Shared memory     :  Shared parallel matrices
   BLAS/LAPACK       :  OpenBLAS 0.3.15  USE64BITINT DYNAMIC_ARCH NO_AFFINITY SkylakeX SINGLE_THREADED
        Core in use  :  SkylakeX
   Copyright (c) 2011-2014, The OpenBLAS Project




***************************************
The coordinates will be read from file: opt_cc-pVDZ.xyz
***************************************


================================================================================

----- Orbital basis set information -----
Your calculation utilizes the basis: cc-pVDZ 
       H, B-Ne : Obtained from the ccRepo (grant-hill.group.shef.ac.uk/ccrepo) Feb. 2017
                 T. H. Dunning, Jr., J. Chem. Phys. 90, 1007 (1989)
            He : Obtained from the ccRepo (grant-hill.group.shef.ac.uk/ccrepo) Feb. 2017
                 D. E. Woon, T. H. Dunning, Jr., J. Chem. Phys. 100, 2975 (1994)
  Li-Be, Na-Mg : Obtained from the ccRepo (grant-hill.group.shef.ac.uk/ccrepo) Feb. 2017
                 B. P. Prascher, D. E. Woon, K. A. Peterson, T. H. Dunning, Jr., A. K. Wilson, Theor. Chem. Acc. 128, 69 (2011)
         Al-Ar : Obtained from the ccRepo (grant-hill.group.shef.ac.uk/ccrepo) Feb. 2017
                 D. E. Woon, T. H. Dunning, Jr., J. Chem. Phys. 98, 1358 (1993)
            Ca : Obtained from the Peterson Research Group Website (tyr0.chem.wsu.edu/~kipeters) Feb. 2017
                 J. Koput, K. A. Peterson, J. Phys. Chem. 106, 9595 (2002)
         Sc-Zn : Obtained from the ccRepo (grant-hill.group.shef.ac.uk/ccrepo) Feb. 2017
                 N. B. Balabanov, K. A. Peterson, J. Chem. Phys. 123, 064107 (2005)
                 N. B. Balabanov, K. A. Peterson, J. Chem. Phys. 125, 074110 (2006)
         Ga-Kr : Obtained from the ccRepo (grant-hill.group.shef.ac.uk/ccrepo) Feb. 2017
                 A. K. Wilson, D. E. Woon, K. A. Peterson, T. H. Dunning, Jr., J. Chem. Phys. 110, 7667 (1999)

----- AuxJ basis set information -----
Your calculation utilizes the AutoAux generation procedure.
  G. L. Stoychev, A. A. Auer, F. Neese, J. Chem. Theory Comput. 13, 554 (2017)

----- AuxC basis set information -----
Your calculation utilizes the AutoAux generation procedure.
  G. L. Stoychev, A. A. Auer, F. Neese, J. Chem. Theory Comput. 13, 554 (2017)

----- AuxJK basis set information -----
Your calculation utilizes the AutoAux generation procedure.
  G. L. Stoychev, A. A. Auer, F. Neese, J. Chem. Theory Comput. 13, 554 (2017)

================================================================================
                                        WARNINGS
                       Please study these warnings very carefully!
================================================================================

WARNING: Old DensityContainer found on disk!
         Will remove this file - 
         If you want to keep old densities, please start your calculation with a different basename. 


WARNING: your system is open-shell and RHF/RKS was chosen
  ===> : WILL SWITCH to UHF/UKS


INFO   : the flag for use of the SHARK integral package has been found!

================================================================================
                                       INPUT FILE
================================================================================
NAME = cc-pVDZ_i.inp
|  1> ! B3LYP cc-pVDZ AUTOAUX
|  2> %pal nprocs 16 end
|  3> *XYZFile 0 2 opt_cc-pVDZ.xyz
|  4> %EPRNMR
|  5>         GTENSOR   TRUE
|  6>         NUCLEI    = ALL H {SHIFT, AISO, ADIP, AORB}
|  7>         ORI       GIAO
|  8> END
|  9> 
| 10>                          ****END OF INPUT****
================================================================================

                       ****************************
                       * Single Point Calculation *
                       ****************************

---------------------------------
CARTESIAN COORDINATES (ANGSTROEM)
---------------------------------
  C     -4.052444    0.114576   -0.001917
  C     -2.836695    0.052025   -0.003549
  C      2.842695   -0.002426   -0.002408
  C     -1.410144    0.003191   -0.003255
  C     -0.707833   -1.257321   -0.002801
  C      0.713475   -1.191078   -0.002467
  C      1.414021    0.018615   -0.002638
  C      0.705646    1.262168   -0.003060
  C     -0.689967    1.210355   -0.003436
  H      1.289119   -2.116882   -0.002129
  H     -1.264137    2.136725   -0.003842
  C     -1.395767   -2.491604   -0.002682
  H     -2.488356   -2.454946   -0.003084
  C     -0.739360   -3.839669   -0.002176
  H     -0.068220   -3.935242   -0.880855
  H     -0.067023   -3.934025    0.875699
  C     -1.736885   -5.005361   -0.000686
  H     -2.395172   -4.914378    0.882525
  H     -2.396441   -4.915579   -0.883075
  C     -1.058620   -6.376565   -0.000244
  H     -0.417437   -6.506580    0.888808
  H     -0.418674   -6.507764   -0.890012
  C      1.478555    2.564463   -0.003144
  H      2.156290    2.563709    0.871191
  H      2.156815    2.563291   -0.877069
  C      0.659046    3.857635   -0.003676
  H     -0.004000    3.881923   -0.888042
  H     -0.004408    3.882379    0.880373
  C      1.539231    5.113403   -0.003803
  H      2.205315    5.090862    0.878749
  H      2.205482    5.090558   -0.886221
  C      0.732674    6.414392   -0.004106
  H      0.082535    6.482884    0.885190
  H      0.082600    6.482510   -0.893479
  C      4.064440   -0.027928   -0.003417
  H     -5.123092    0.174772    0.001530
  H     -1.799228   -7.192431    0.000819
  H      1.391168    7.298169   -0.004270
  C      5.492399   -0.059967   -0.003046
  C      6.183758   -1.291155   -0.002801
  C      7.578043   -1.317672   -0.002381
  C      8.307982   -0.123597   -0.002235
  C      7.632783    1.102378   -0.002518
  C      6.238787    1.138745   -0.002938
  H      9.400210   -0.148386   -0.001911
  H      8.197162    2.038024   -0.002414
  H      5.612073   -2.221113   -0.002927
  H      5.710033    2.093778   -0.003169
  H      8.099916   -2.277678   -0.002172

----------------------------
CARTESIAN COORDINATES (A.U.)
----------------------------
  NO LB      ZA    FRAG     MASS         X           Y           Z
   0 C     6.0000    0    12.011   -7.658009    0.216518   -0.003623
   1 C     6.0000    0    12.011   -5.360578    0.098313   -0.006707
   2 C     6.0000    0    12.011    5.371915   -0.004584   -0.004551
   3 C     6.0000    0    12.011   -2.664785    0.006031   -0.006151
   4 C     6.0000    0    12.011   -1.337611   -2.375992   -0.005294
   5 C     6.0000    0    12.011    1.348273   -2.250812   -0.004662
   6 C     6.0000    0    12.011    2.672113    0.035178   -0.004986
   7 C     6.0000    0    12.011    1.333478    2.385153   -0.005782
   8 C     6.0000    0    12.011   -1.303849    2.287240   -0.006493
   9 H     1.0000    0     1.008    2.436081   -4.000327   -0.004023
  10 H     1.0000    0     1.008   -2.388872    4.037824   -0.007260
  11 C     6.0000    0    12.011   -2.637618   -4.708450   -0.005068
  12 H     1.0000    0     1.008   -4.702311   -4.639176   -0.005827
  13 C     6.0000    0    12.011   -1.397188   -7.255923   -0.004112
  14 H     1.0000    0     1.008   -0.128917   -7.436530   -1.664575
  15 H     1.0000    0     1.008   -0.126656   -7.434230    1.654832
  16 C     6.0000    0    12.011   -3.282236   -9.458762   -0.001297
  17 H     1.0000    0     1.008   -4.526220   -9.286828    1.667730
  18 H     1.0000    0     1.008   -4.528616   -9.289098   -1.668771
  19 C     6.0000    0    12.011   -2.000502  -12.049961   -0.000460
  20 H     1.0000    0     1.008   -0.788841  -12.295654    1.679604
  21 H     1.0000    0     1.008   -0.791179  -12.297891   -1.681880
  22 C     6.0000    0    12.011    2.794064    4.846133   -0.005941
  23 H     1.0000    0     1.008    4.074797    4.844708    1.646313
  24 H     1.0000    0     1.008    4.075790    4.843918   -1.657420
  25 C     6.0000    0    12.011    1.245416    7.289874   -0.006946
  26 H     1.0000    0     1.008   -0.007559    7.335771   -1.678157
  27 H     1.0000    0     1.008   -0.008331    7.336633    1.663664
  28 C     6.0000    0    12.011    2.908726    9.662931   -0.007187
  29 H     1.0000    0     1.008    4.167441    9.620335    1.660595
  30 H     1.0000    0     1.008    4.167757    9.619761   -1.674714
  31 C     6.0000    0    12.011    1.384553   12.121444   -0.007759
  32 H     1.0000    0     1.008    0.155969   12.250875    1.672767
  33 H     1.0000    0     1.008    0.156091   12.250169   -1.688430
  34 C     6.0000    0    12.011    7.680678   -0.052776   -0.006457
  35 H     1.0000    0     1.008   -9.681241    0.330271    0.002892
  36 H     1.0000    0     1.008   -3.400049  -13.591724    0.001548
  37 H     1.0000    0     1.008    2.628927   13.791542   -0.008069
  38 C     6.0000    0    12.011   10.379129   -0.113322   -0.005755
  39 C     6.0000    0    12.011   11.685609   -2.439930   -0.005293
  40 C     6.0000    0    12.011   14.320425   -2.490039   -0.004500
  41 C     6.0000    0    12.011   15.699810   -0.233564   -0.004224
  42 C     6.0000    0    12.011   14.423869    2.083192   -0.004758
  43 C     6.0000    0    12.011   11.789599    2.151916   -0.005552
  44 H     1.0000    0     1.008   17.763823   -0.280409   -0.003612
  45 H     1.0000    0     1.008   15.490392    3.851306   -0.004563
  46 H     1.0000    0     1.008   10.605282   -4.197296   -0.005531
  47 H     1.0000    0     1.008   10.790398    3.956667   -0.005988
  48 H     1.0000    0     1.008   15.306622   -4.304187   -0.004105

--------------------------------
INTERNAL COORDINATES (ANGSTROEM)
--------------------------------
 C      0   0   0     0.000000000000     0.00000000     0.00000000
 C      1   0   0     1.217357345639     0.00000000     0.00000000
 C      2   1   0     5.679651796201   177.60235448     0.00000000
 C      2   1   3     1.427387347139   179.01127865     3.03087566
 C      4   2   1     1.442959037066   121.08550173   174.84479059
 C      5   4   2     1.422851328009   116.45649255   180.00316349
 C      6   5   4     1.397899695431   122.74401691     0.00000000
 C      7   6   5     1.431160275567   120.25693378     0.00000000
 C      8   7   6     1.396575265399   117.54132068     0.00000000
 H      6   5   4     1.090173420312   119.20397160   180.00060302
 H      9   8   7     1.089876316749   119.66473475   180.00477494
 C      5   4   2     1.413049817581   121.74175339     0.00000000
 H     12   5   4     1.093203097690   117.21168200     0.00000000
 C     12   5   4     1.499383110994   124.90403662   180.00200300
 H     14  12   5     1.109793097291   109.99310423   302.57147331
 H     14  12   5     1.109776656832   109.99464776    57.30754797
 C     14  12   5     1.534240989721   113.48257623   179.94018068
 H     17  14  12     1.105297323245   108.99353366   302.35823002
 H     17  14  12     1.105298959148   108.99475878    57.63588184
 C     17  14  12     1.529785012610   113.12595931   179.99735987
 H     20  17  14     1.103826364614   111.30619761    59.86791388
 H     20  17  14     1.103826386377   111.30608366   300.13361360
 C      8   7   6     1.514384045783   119.64350448   179.99577582
 H     23   8   7     1.106249319304   108.18275854   303.72127360
 H     23   8   7     1.106247221807   108.18310239    56.27016821
 C     23   8   7     1.530976378686   116.94771924   179.99689754
 H     26  23   8     1.105587504183   109.86812932   301.75058689
 H     26  23   8     1.105588362513   109.86754404    58.25614051
 C     26  23   8     1.533518749264   112.60956762   180.00340703
 H     29  26  23     1.105926302590   109.20410393   302.33971913
 H     29  26  23     1.105926109579   109.20376798    57.67927776
 C     29  26  23     1.530721484091   113.17570181   180.00927600
 H     32  29  26     1.103729942993   111.28172051    59.85519541
 H     32  29  26     1.103730098213   111.28174795   300.15330103
 C      3   2   1     1.222011236678   179.35083565   183.08532526
 H      1   2   4     1.072345010486   179.70696039   343.64345341
 H     20  17  14     1.101879751538   111.44891707   180.00054395
 H     32  29  26     1.102123860359   111.51341922   180.00436808
 C     35   3   7     1.428318169212   179.89098368   316.10183587
 C     39  35   3     1.412020316997   120.60121481    34.77483805
 C     40  39  35     1.394537096259   120.40541004   180.00272866
 C     41  40  39     1.399509854284   120.34793869     0.00000000
 C     42  41  40     1.399609806242   119.71897410     0.00000000
 C     43  42  41     1.394469720926   120.33795889     0.00000000
 H     42  41  40     1.092509528414   120.13728546   180.00029856
 H     43  42  41     1.092683462804   120.05814513   180.00054988
 H     40  39  35     1.091625077931   119.10333236     0.00000000
 H     44  43  42     1.091636054825   120.46553062   180.00061023
 H     41  40  39     1.092685906449   119.61868472   179.99858373

---------------------------
INTERNAL COORDINATES (A.U.)
---------------------------
 C      0   0   0     0.000000000000     0.00000000     0.00000000
 C      1   0   0     2.300471990374     0.00000000     0.00000000
 C      2   1   0    10.732986430853   177.60235448     0.00000000
 C      2   1   3     2.697371173117   179.01127865     3.03087566
 C      4   2   1     2.726797402522   121.08550173   174.84479059
 C      5   4   2     2.688799339224   116.45649255   180.00316349
 C      6   5   4     2.641647587057   122.74401691     0.00000000
 C      7   6   5     2.704500974569   120.25693378     0.00000000
 C      8   7   6     2.639144777012   117.54132068     0.00000000
 H      6   5   4     2.060129202870   119.20397160   180.00060302
 H      9   8   7     2.059567758503   119.66473475   180.00477494
 C      5   4   2     2.670277168815   121.74175339     0.00000000
 H     12   5   4     2.065854463388   117.21168200     0.00000000
 C     12   5   4     2.833423449606   124.90403662   180.00200300
 H     14  12   5     2.097205019196   109.99310423   302.57147331
 H     14  12   5     2.097173951231   109.99464776    57.30754797
 C     14  12   5     2.899295294009   113.48257623   179.94018068
 H     17  14  12     2.088709237489   108.99353366   302.35823002
 H     17  14  12     2.088712328897   108.99475878    57.63588184
 C     17  14  12     2.890874717609   113.12595931   179.99735987
 H     20  17  14     2.085929528523   111.30619761    59.86791388
 H     20  17  14     2.085929569648   111.30608366   300.13361360
 C      8   7   6     2.861771108110   119.64350448   179.99577582
 H     23   8   7     2.090508249322   108.18275854   303.72127360
 H     23   8   7     2.090504285627   108.18310239    56.27016821
 C     23   8   7     2.893126073219   116.94771924   179.99689754
 H     26  23   8     2.089257599991   109.86812932   301.75058689
 H     26  23   8     2.089259222000   109.86754404    58.25614051
 C     26  23   8     2.897930457342   112.60956762   180.00340703
 H     29  26  23     2.089897836194   109.20410393   302.33971913
 H     29  26  23     2.089897471458   109.20376798    57.67927776
 C     29  26  23     2.892644392241   113.17570181   180.00927600
 H     32  29  26     2.085747318065   111.28172051    59.85519541
 H     32  29  26     2.085747611388   111.28174795   300.15330103
 C      3   2   1     2.309266569896   179.35083565   183.08532526
 H      1   2   4     2.026438390896   179.70696039   343.64345341
 H     20  17  14     2.082250962919   111.44891707   180.00054395
 H     32  29  26     2.082712261738   111.51341922   180.00436808
 C     35   3   7     2.699130171914   179.89098368   316.10183587
 C     39  35   3     2.668331694657   120.60121481    34.77483805
 C     40  39  35     2.635293195523   120.40541004   180.00272866
 C     41  40  39     2.644690346321   120.34793869     0.00000000
 C     42  41  40     2.644879228148   119.71897410     0.00000000
 C     43  42  41     2.635165874596   120.33795889     0.00000000
 H     42  41  40     2.064543807402   120.13728546   180.00029856
 H     43  42  41     2.064872495765   120.05814513   180.00054988
 H     40  39  35     2.062872438211   119.10333236     0.00000000
 H     44  43  42     2.062893181533   120.46553062   180.00061023
 H     41  40  39     2.064877113585   119.61868472   179.99858373

---------------------
BASIS SET INFORMATION
---------------------
There are 2 groups of distinct atoms

 Group   1 Type C   : 17s4p1d contracted to 3s2p1d pattern {881/31/1}
 Group   2 Type H   : 4s1p contracted to 2s1p pattern {31/1}

Atom   0C    basis set group =>   1
Atom   1C    basis set group =>   1
Atom   2C    basis set group =>   1
Atom   3C    basis set group =>   1
Atom   4C    basis set group =>   1
Atom   5C    basis set group =>   1
Atom   6C    basis set group =>   1
Atom   7C    basis set group =>   1
Atom   8C    basis set group =>   1
Atom   9H    basis set group =>   2
Atom  10H    basis set group =>   2
Atom  11C    basis set group =>   1
Atom  12H    basis set group =>   2
Atom  13C    basis set group =>   1
Atom  14H    basis set group =>   2
Atom  15H    basis set group =>   2
Atom  16C    basis set group =>   1
Atom  17H    basis set group =>   2
Atom  18H    basis set group =>   2
Atom  19C    basis set group =>   1
Atom  20H    basis set group =>   2
Atom  21H    basis set group =>   2
Atom  22C    basis set group =>   1
Atom  23H    basis set group =>   2
Atom  24H    basis set group =>   2
Atom  25C    basis set group =>   1
Atom  26H    basis set group =>   2
Atom  27H    basis set group =>   2
Atom  28C    basis set group =>   1
Atom  29H    basis set group =>   2
Atom  30H    basis set group =>   2
Atom  31C    basis set group =>   1
Atom  32H    basis set group =>   2
Atom  33H    basis set group =>   2
Atom  34C    basis set group =>   1
Atom  35H    basis set group =>   2
Atom  36H    basis set group =>   2
Atom  37H    basis set group =>   2
Atom  38C    basis set group =>   1
Atom  39C    basis set group =>   1
Atom  40C    basis set group =>   1
Atom  41C    basis set group =>   1
Atom  42C    basis set group =>   1
Atom  43C    basis set group =>   1
Atom  44H    basis set group =>   2
Atom  45H    basis set group =>   2
Atom  46H    basis set group =>   2
Atom  47H    basis set group =>   2
Atom  48H    basis set group =>   2
---------------------------------
AUXILIARY/J BASIS SET INFORMATION
---------------------------------
There are 2 groups of distinct atoms

 Group   1 Type C   : 14s11p10d2f contracted to 14s11p10d2f pattern {11111111111111/11111111111/1111111111/11}
 Group   2 Type H   : 9s2p1d contracted to 9s2p1d pattern {111111111/11/1}

Atom   0C    basis set group =>   1
Atom   1C    basis set group =>   1
Atom   2C    basis set group =>   1
Atom   3C    basis set group =>   1
Atom   4C    basis set group =>   1
Atom   5C    basis set group =>   1
Atom   6C    basis set group =>   1
Atom   7C    basis set group =>   1
Atom   8C    basis set group =>   1
Atom   9H    basis set group =>   2
Atom  10H    basis set group =>   2
Atom  11C    basis set group =>   1
Atom  12H    basis set group =>   2
Atom  13C    basis set group =>   1
Atom  14H    basis set group =>   2
Atom  15H    basis set group =>   2
Atom  16C    basis set group =>   1
Atom  17H    basis set group =>   2
Atom  18H    basis set group =>   2
Atom  19C    basis set group =>   1
Atom  20H    basis set group =>   2
Atom  21H    basis set group =>   2
Atom  22C    basis set group =>   1
Atom  23H    basis set group =>   2
Atom  24H    basis set group =>   2
Atom  25C    basis set group =>   1
Atom  26H    basis set group =>   2
Atom  27H    basis set group =>   2
Atom  28C    basis set group =>   1
Atom  29H    basis set group =>   2
Atom  30H    basis set group =>   2
Atom  31C    basis set group =>   1
Atom  32H    basis set group =>   2
Atom  33H    basis set group =>   2
Atom  34C    basis set group =>   1
Atom  35H    basis set group =>   2
Atom  36H    basis set group =>   2
Atom  37H    basis set group =>   2
Atom  38C    basis set group =>   1
Atom  39C    basis set group =>   1
Atom  40C    basis set group =>   1
Atom  41C    basis set group =>   1
Atom  42C    basis set group =>   1
Atom  43C    basis set group =>   1
Atom  44H    basis set group =>   2
Atom  45H    basis set group =>   2
Atom  46H    basis set group =>   2
Atom  47H    basis set group =>   2
Atom  48H    basis set group =>   2
---------------------------------
AUXILIARY/C BASIS SET INFORMATION
---------------------------------
There are 2 groups of distinct atoms

 Group   1 Type C   : 14s11p10d2f contracted to 14s11p10d2f pattern {11111111111111/11111111111/1111111111/11}
 Group   2 Type H   : 9s2p1d contracted to 9s2p1d pattern {111111111/11/1}

Atom   0C    basis set group =>   1
Atom   1C    basis set group =>   1
Atom   2C    basis set group =>   1
Atom   3C    basis set group =>   1
Atom   4C    basis set group =>   1
Atom   5C    basis set group =>   1
Atom   6C    basis set group =>   1
Atom   7C    basis set group =>   1
Atom   8C    basis set group =>   1
Atom   9H    basis set group =>   2
Atom  10H    basis set group =>   2
Atom  11C    basis set group =>   1
Atom  12H    basis set group =>   2
Atom  13C    basis set group =>   1
Atom  14H    basis set group =>   2
Atom  15H    basis set group =>   2
Atom  16C    basis set group =>   1
Atom  17H    basis set group =>   2
Atom  18H    basis set group =>   2
Atom  19C    basis set group =>   1
Atom  20H    basis set group =>   2
Atom  21H    basis set group =>   2
Atom  22C    basis set group =>   1
Atom  23H    basis set group =>   2
Atom  24H    basis set group =>   2
Atom  25C    basis set group =>   1
Atom  26H    basis set group =>   2
Atom  27H    basis set group =>   2
Atom  28C    basis set group =>   1
Atom  29H    basis set group =>   2
Atom  30H    basis set group =>   2
Atom  31C    basis set group =>   1
Atom  32H    basis set group =>   2
Atom  33H    basis set group =>   2
Atom  34C    basis set group =>   1
Atom  35H    basis set group =>   2
Atom  36H    basis set group =>   2
Atom  37H    basis set group =>   2
Atom  38C    basis set group =>   1
Atom  39C    basis set group =>   1
Atom  40C    basis set group =>   1
Atom  41C    basis set group =>   1
Atom  42C    basis set group =>   1
Atom  43C    basis set group =>   1
Atom  44H    basis set group =>   2
Atom  45H    basis set group =>   2
Atom  46H    basis set group =>   2
Atom  47H    basis set group =>   2
Atom  48H    basis set group =>   2
----------------------------------
AUXILIARY/JK BASIS SET INFORMATION
----------------------------------
There are 2 groups of distinct atoms

 Group   1 Type C   : 14s11p10d2f contracted to 14s11p10d2f pattern {11111111111111/11111111111/1111111111/11}
 Group   2 Type H   : 9s2p1d contracted to 9s2p1d pattern {111111111/11/1}

Atom   0C    basis set group =>   1
Atom   1C    basis set group =>   1
Atom   2C    basis set group =>   1
Atom   3C    basis set group =>   1
Atom   4C    basis set group =>   1
Atom   5C    basis set group =>   1
Atom   6C    basis set group =>   1
Atom   7C    basis set group =>   1
Atom   8C    basis set group =>   1
Atom   9H    basis set group =>   2
Atom  10H    basis set group =>   2
Atom  11C    basis set group =>   1
Atom  12H    basis set group =>   2
Atom  13C    basis set group =>   1
Atom  14H    basis set group =>   2
Atom  15H    basis set group =>   2
Atom  16C    basis set group =>   1
Atom  17H    basis set group =>   2
Atom  18H    basis set group =>   2
Atom  19C    basis set group =>   1
Atom  20H    basis set group =>   2
Atom  21H    basis set group =>   2
Atom  22C    basis set group =>   1
Atom  23H    basis set group =>   2
Atom  24H    basis set group =>   2
Atom  25C    basis set group =>   1
Atom  26H    basis set group =>   2
Atom  27H    basis set group =>   2
Atom  28C    basis set group =>   1
Atom  29H    basis set group =>   2
Atom  30H    basis set group =>   2
Atom  31C    basis set group =>   1
Atom  32H    basis set group =>   2
Atom  33H    basis set group =>   2
Atom  34C    basis set group =>   1
Atom  35H    basis set group =>   2
Atom  36H    basis set group =>   2
Atom  37H    basis set group =>   2
Atom  38C    basis set group =>   1
Atom  39C    basis set group =>   1
Atom  40C    basis set group =>   1
Atom  41C    basis set group =>   1
Atom  42C    basis set group =>   1
Atom  43C    basis set group =>   1
Atom  44H    basis set group =>   2
Atom  45H    basis set group =>   2
Atom  46H    basis set group =>   2
Atom  47H    basis set group =>   2
Atom  48H    basis set group =>   2

Checking for AutoStart:
The File: cc-pVDZ_i.gbw exists
Trying to determine its content:
     ... Fine, the file contains calculation information
     ... Fine, the calculation information was read
     ... Fine, the file contains a basis set
     ... Fine, the basis set was read
     ... Fine, the file contains a geometry
     ... Fine, the geometry was read
     ... Fine, the file contains a set of orbitals
     ... Fine, the orbitals can be read
     => possible old guess file was deleted
     => GBW file was renamed to GES file
     => GES file is set as startup file
     => Guess is set to MORead
     ... now leaving AutoStart



           ************************************************************
           *        Program running with 16 parallel MPI-processes    *
           *              working on a common directory               *
           ************************************************************
------------------------------------------------------------------------------
                           ORCA GTO INTEGRAL CALCULATION
                           -- RI-GTO INTEGRALS CHOSEN --
------------------------------------------------------------------------------
------------------------------------------------------------------------------
                   ___                                                        
                  /   \      - P O W E R E D   B Y -                         
                 /     \                                                     
                 |  |  |   _    _      __       _____    __    __             
                 |  |  |  | |  | |    /  \     |  _  \  |  |  /  |          
                  \  \/   | |  | |   /    \    | | | |  |  | /  /          
                 / \  \   | |__| |  /  /\  \   | |_| |  |  |/  /          
                |  |  |   |  __  | /  /__\  \  |    /   |      \           
                |  |  |   | |  | | |   __   |  |    \   |  |\   \          
                \     /   | |  | | |  |  |  |  | |\  \  |  | \   \       
                 \___/    |_|  |_| |__|  |__|  |_| \__\ |__|  \__/        
                                                                              
                      - O R C A' S   B I G   F R I E N D -                    
                                      &                                       
                       - I N T E G R A L  F E E D E R -                       
                                                                              
 v1 FN, 2020, v2 2021                                                         
------------------------------------------------------------------------------


Reading SHARK input file cc-pVDZ_i.SHARKINP.tmp ... ok
----------------------
SHARK INTEGRAL PACKAGE
----------------------

Number of atoms                             ...     49
Number of basis functions                   ...    605
Number of shells                            ...    363
Maximum angular momentum                    ...      2
Integral batch strategy                     ... SHARK/LIBINT Hybrid
RI-J (if used) integral strategy            ... SPLIT-RIJ (Revised 2003 algorithm where possible)
Printlevel                                  ...      1
Contraction scheme used                     ... PARTIAL GENERAL contraction
Coulomb Range Separation                    ... NOT USED
Exchange Range Separation                   ... NOT USED
Finite Nucleus Model                        ... NOT USED
Auxiliary Coulomb fitting basis             ... AVAILABLE
   # of basis functions in Aux-J            ...   3164
   # of shells in Aux-J                     ...   1188
   Maximum angular momentum in Aux-J        ...      3
Auxiliary J/K fitting basis                 ... AVAILABLE
   # of basis functions in Aux-JK           ...   3164
   # of shells in Aux-JK                    ...   1188
   Maximum angular momentum in Aux-JK       ...      3
Auxiliary Correlation fitting basis         ... AVAILABLE
   # of basis functions in Aux-C            ...   3164
   # of shells in Aux-C                     ...   1188
   Maximum angular momentum in Aux-C        ...      3
Auxiliary 'external' fitting basis          ... NOT available
Integral threshold                          ...     1.000000e-10
Primitive cut-off                           ...     1.000000e-11
Primitive pair pre-selection threshold      ...     1.000000e-11

Calculating pre-screening integrals         ... done (  0.0 sec) Dimension = 363
Calculating pre-screening integrals (ORCA)  ... done (  0.1 sec) Dimension = 219
Organizing shell pair data                  ... done (  0.2 sec)
Shell pair information
Total number of shell pairs                 ...     66066
Shell pairs after pre-screening             ...     25424
Total number of primitive shell pairs       ...    106638
Primitive shell pairs kept                  ...     34279
          la=0 lb=0:  11005 shell pairs
          la=1 lb=0:   8981 shell pairs
          la=1 lb=1:   1604 shell pairs
          la=2 lb=0:   2693 shell pairs
          la=2 lb=1:    978 shell pairs
          la=2 lb=2:    163 shell pairs

Calculating one electron integrals          ... done (  0.0 sec)
Calculating RI/J V-Matrix + Cholesky decomp.... done (  0.6 sec)
Calculating RI/JK V-Matrix + Cholesky decomp... done (  0.6 sec)
Calculating RI/C V-Matrix + Cholesky decomp.... done (  0.6 sec)
Calculating Nuclear repulsion               ... done (  0.0 sec) ENN=   1723.990864257979 Eh

SHARK setup successfully completed in   2.4 seconds

Maximum memory used throughout the entire GTOINT-calculation: 41.6 MB


           ************************************************************
           *        Program running with 16 parallel MPI-processes    *
           *              working on a common directory               *
           ************************************************************
-------------------------------------------------------------------------------
                                 ORCA SCF
-------------------------------------------------------------------------------

------------
SCF SETTINGS
------------
Hamiltonian:
 Density Functional     Method          .... DFT(GTOs)
 Exchange Functional    Exchange        .... B88
   X-Alpha parameter    XAlpha          ....  0.666667
   Becke's b parameter  XBeta           ....  0.004200
 Correlation Functional Correlation     .... LYP
 LDA part of GGA corr.  LDAOpt          .... VWN-5
 Gradients option       PostSCFGGA      .... off
 Hybrid DFT is turned on
   Fraction HF Exchange ScalHFX         ....  0.200000
   Scaling of DF-GGA-X  ScalDFX         ....  0.720000
   Scaling of DF-GGA-C  ScalDFC         ....  0.810000
   Scaling of DF-LDA-C  ScalLDAC        ....  1.000000
   Perturbative correction              ....  0.000000
   Density functional embedding theory  .... OFF
   NL short-range parameter             ....  4.800000
 RI-approximation to the Coulomb term is turned on
   Number of AuxJ basis functions       .... 3164
   RIJ-COSX (HFX calculated with COS-X)).... on


General Settings:
 Integral files         IntName         .... cc-pVDZ_i
 Hartree-Fock type      HFTyp           .... UHF
 Total Charge           Charge          ....    0
 Multiplicity           Mult            ....    2
 Number of Electrons    NEL             ....  169
 Basis Dimension        Dim             ....  461
 Nuclear Repulsion      ENuc            ....   1723.9908642580 Eh

Convergence Acceleration:
 DIIS                   CNVDIIS         .... on
   Start iteration      DIISMaxIt       ....    12
   Startup error        DIISStart       ....  0.200000
   # of expansion vecs  DIISMaxEq       ....     5
   Bias factor          DIISBfac        ....   1.050
   Max. coefficient     DIISMaxC        ....  10.000
 Trust-Rad. Augm. Hess. CNVTRAH         .... auto
   Auto Start mean grad. ratio tolernc. ....  1.125000
   Auto Start start iteration           ....     1
   Auto Start num. interpolation iter.  ....    10
   Max. Number of Micro iterations      ....    16
   Max. Number of Macro iterations      .... Maxiter - #DIIS iter
   Number of Davidson start vectors     ....     2
   Converg. threshold I  (grad. norm)   ....   5.000e-05
   Converg. threshold II (energy diff.) ....   1.000e-06
   Grad. Scal. Fac. for Micro threshold ....   0.100
   Minimum threshold for Micro iter.    ....   0.010
   NR start threshold (gradient norm)   ....   0.001
   Initial trust radius                 ....   0.400
   Minimum AH scaling param. (alpha)    ....   1.000
   Maximum AH scaling param. (alpha)    .... 1000.000
   Orbital update algorithm             .... Taylor
   White noise on init. David. guess    .... on
   Maximum white noise                  ....   0.010
   Quad. conv. algorithm                .... NR
 SOSCF                  CNVSOSCF        .... off
 Level Shifting         CNVShift        .... on
   Level shift para.    LevelShift      ....    0.2500
   Turn off err/grad.   ShiftErr        ....    0.0010
 Zerner damping         CNVZerner       .... off
 Static damping         CNVDamp         .... on
   Fraction old density DampFac         ....    0.7000
   Max. Damping (<1)    DampMax         ....    0.9800
   Min. Damping (>=0)   DampMin         ....    0.0000
   Turn off err/grad.   DampErr         ....    0.1000
 Fernandez-Rico         CNVRico         .... off

SCF Procedure:
 Maximum # iterations   MaxIter         ....   125
 SCF integral mode      SCFMode         .... Direct
   Integral package                     .... SHARK and LIBINT hybrid scheme
 Reset frequency        DirectResetFreq ....    20
 Integral Threshold     Thresh          ....  1.000e-10 Eh
 Primitive CutOff       TCut            ....  1.000e-11 Eh

Convergence Tolerance:
 Convergence Check Mode ConvCheckMode   .... Total+1el-Energy
 Convergence forced     ConvForced      .... 0
 Energy Change          TolE            ....  1.000e-06 Eh
 1-El. energy change                    ....  1.000e-03 Eh
 DIIS Error             TolErr          ....  1.000e-06


Diagonalization of the overlap matrix:
Smallest eigenvalue                        ... 5.124e-05
Time for diagonalization                   ...    0.038 sec
Threshold for overlap eigenvalues          ... 1.000e-08
Number of eigenvalues below threshold      ... 0
Time for construction of square roots      ...    0.042 sec
Total time needed                          ...    0.081 sec

---------------------
INITIAL GUESS: MOREAD
---------------------
Guess MOs are being read from file: cc-pVDZ_i.ges
Input geometry compatible with but different from current geometry
Input basis set matches current basis set (good)
MOs were renormalized
MOs were reorthogonalized (Cholesky)
                      ------------------
                      INITIAL GUESS DONE (   0.2 sec)
                      ------------------
-------------------
DFT GRID GENERATION
-------------------

General Integration Accuracy     IntAcc      ... 4.388
Radial Grid Type                 RadialGrid  ... OptM3 with GC (2021)
Angular Grid (max. ang.)         AngularGrid ... 4 (Lebedev-302)
Angular grid pruning method      GridPruning ... 4 (adaptive)
Weight generation scheme         WeightScheme... Becke
Basis function cutoff            BFCut       ... 1.0000e-10
Integration weight cutoff        WCut        ... 1.0000e-14
Angular grids for H and He will be reduced by one unit
Partially contracted basis set               ... off
Rotationally invariant grid construction     ... off

Total number of grid points                  ...   223175
Total number of batches                      ...     3510
Average number of points per batch           ...       63
Average number of grid points per atom       ...     4555
Time for grid setup =    1.483 sec

--------------------
COSX GRID GENERATION
--------------------

GRIDX 1
-------
General Integration Accuracy     IntAcc      ... 3.816
Radial Grid Type                 RadialGrid  ... OptM3 with GC (2021)
Angular Grid (max. ang.)         AngularGrid ... 1 (Lebedev-50)
Angular grid pruning method      GridPruning ... 4 (adaptive)
Weight generation scheme         WeightScheme... Becke
Basis function cutoff            BFCut       ... 1.0000e-10
Integration weight cutoff        WCut        ... 1.0000e-14
Angular grids for H and He will be reduced by one unit
Partially contracted basis set               ... on
Rotationally invariant grid construction     ... off

Total number of grid points                  ...    28453
Total number of batches                      ...      470
Average number of points per batch           ...       60
Average number of grid points per atom       ...      581
UseSFitting                                  ... on

GRIDX 2
-------
General Integration Accuracy     IntAcc      ... 4.020
Radial Grid Type                 RadialGrid  ... OptM3 with GC (2021)
Angular Grid (max. ang.)         AngularGrid ... 2 (Lebedev-110)
Angular grid pruning method      GridPruning ... 4 (adaptive)
Weight generation scheme         WeightScheme... Becke
Basis function cutoff            BFCut       ... 1.0000e-10
Integration weight cutoff        WCut        ... 1.0000e-14
Angular grids for H and He will be reduced by one unit
Partially contracted basis set               ... on
Rotationally invariant grid construction     ... off

Total number of grid points                  ...    60638
Total number of batches                      ...      973
Average number of points per batch           ...       62
Average number of grid points per atom       ...     1238
UseSFitting                                  ... on

GRIDX 3
-------
General Integration Accuracy     IntAcc      ... 4.338
Radial Grid Type                 RadialGrid  ... OptM3 with GC (2021)
Angular Grid (max. ang.)         AngularGrid ... 3 (Lebedev-194)
Angular grid pruning method      GridPruning ... 4 (adaptive)
Weight generation scheme         WeightScheme... Becke
Basis function cutoff            BFCut       ... 1.0000e-10
Integration weight cutoff        WCut        ... 1.0000e-14
Angular grids for H and He will be reduced by one unit
Partially contracted basis set               ... on
Rotationally invariant grid construction     ... off

Total number of grid points                  ...   132612
Total number of batches                      ...     2098
Average number of points per batch           ...       63
Average number of grid points per atom       ...     2706
UseSFitting                                  ... on

Time for X-Grid setup             =    2.388 sec

 re-compute Schwartz prescreening matrix in partically contracted basis (1) ...done (   0.118 sec)
--------------
SCF ITERATIONS
--------------
ITER       Energy         Delta-E        Max-DP      RMS-DP      [F,P]     Damp
               ***  Starting incremental Fock matrix formation  ***
  0   -928.9011679107   0.000000000000 0.00008755  0.00000171  0.0004314 0.7000
  1   -928.9011697943  -0.000001883638 0.00008094  0.00000148  0.0003056 0.7000
                               ***Turning on DIIS***
  2   -928.9011711874  -0.000001393095 0.00022604  0.00000389  0.0002145 0.0000
               *** Restarting incremental Fock matrix formation ***
                                   *** Resetting DIIS ***
  3   -928.9011746098  -0.000003422379 0.00006634  0.00000066  0.0000377 0.0000
                 **** Energy Check signals convergence ****

               *****************************************************
               *                     SUCCESS                       *
               *           SCF CONVERGED AFTER   4 CYCLES          *
               *****************************************************

Old exchange energy                            =    -26.638351716 Eh
New exchange energy                            =    -26.638464656 Eh
Exchange energy change after final integration =     -0.000112940 Eh
Total energy after final integration           =   -928.901287572 Eh
Final COS-X integration done in                =     7.383 sec

----------------
TOTAL SCF ENERGY
----------------

Total Energy       :         -928.90128757 Eh          -25276.68908 eV

Components:
Nuclear Repulsion  :         1723.99086426 Eh           46912.17639 eV
Electronic Energy  :        -2652.89215183 Eh          -72188.86546 eV
One Electron Energy:        -4676.96279062 Eh         -127266.62764 eV
Two Electron Energy:         2024.07063879 Eh           55077.76218 eV
Max COSX asymmetry :            0.00000058 Eh               0.00002 eV

Virial components:
Potential Energy   :        -1851.36864263 Eh          -50378.30195 eV
Kinetic Energy     :          922.46735506 Eh           25101.61287 eV
Virial Ratio       :            2.00697470


DFT components:
N(Alpha)           :       85.000168564251 electrons
N(Beta)            :       84.000160995474 electrons
N(Total)           :      169.000329559725 electrons
E(X)               :     -105.658885096364 Eh       
E(C)               :       -6.575450293289 Eh       
E(XC)              :     -112.234335389654 Eh       
DFET-embed. en.    :        0.000000000000 Eh       

---------------
SCF CONVERGENCE
---------------

  Last Energy change         ...   -2.1945e-08  Tolerance :   1.0000e-06
  Last MAX-Density change    ...    0.0000e+00  Tolerance :   1.0000e-05
  Last RMS-Density change    ...    0.0000e+00  Tolerance :   1.0000e-06
  Last DIIS Error            ...    5.5929e-05  Tolerance :   1.0000e-06

             **** THE GBW FILE WAS UPDATED (cc-pVDZ_i.gbw) ****
             **** DENSITY cc-pVDZ_i.scfp WAS UPDATED ****
             **** ENERGY FILE WAS UPDATED (cc-pVDZ_i.en.tmp) ****
----------------------
UHF SPIN CONTAMINATION
----------------------

Warning: in a DFT calculation there is little theoretical justification to 
         calculate <S**2> as in Hartree-Fock theory. We will do it anyways
         but you should keep in mind that the values have only limited relevance

Expectation value of <S**2>     :     0.786942
Ideal value S*(S+1) for S=0.5   :     0.750000
Deviation                       :     0.036942

             **** THE GBW FILE WAS UPDATED (cc-pVDZ_i.gbw) ****
             **** DENSITY cc-pVDZ_i.scfp WAS UPDATED ****
----------------
ORBITAL ENERGIES
----------------
                 SPIN UP ORBITALS
  NO   OCC          E(Eh)            E(eV) 
   0   1.0000     -10.216733      -278.0114 
   1   1.0000     -10.213364      -277.9198 
   2   1.0000     -10.211976      -277.8820 
   3   1.0000     -10.202209      -277.6162 
   4   1.0000     -10.198340      -277.5110 
   5   1.0000     -10.197358      -277.4842 
   6   1.0000     -10.197228      -277.4807 
   7   1.0000     -10.196199      -277.4527 
   8   1.0000     -10.195718      -277.4396 
   9   1.0000     -10.195496      -277.4335 
  10   1.0000     -10.194318      -277.4015 
  11   1.0000     -10.192064      -277.3402 
  12   1.0000     -10.190101      -277.2867 
  13   1.0000     -10.189777      -277.2779 
  14   1.0000     -10.189432      -277.2686 
  15   1.0000     -10.187956      -277.2284 
  16   1.0000     -10.187780      -277.2236 
  17   1.0000     -10.186944      -277.2008 
  18   1.0000     -10.185088      -277.1503 
  19   1.0000     -10.183595      -277.1097 
  20   1.0000     -10.182035      -277.0673 
  21   1.0000     -10.181732      -277.0590 
  22   1.0000     -10.176959      -276.9291 
  23   1.0000     -10.175684      -276.8944 
  24   1.0000      -0.873762       -23.7763 
  25   1.0000      -0.863456       -23.4958 
  26   1.0000      -0.819929       -22.3114 
  27   1.0000      -0.797945       -21.7132 
  28   1.0000      -0.796634       -21.6775 
  29   1.0000      -0.778304       -21.1787 
  30   1.0000      -0.767821       -20.8935 
  31   1.0000      -0.751165       -20.4402 
  32   1.0000      -0.744228       -20.2515 
  33   1.0000      -0.729976       -19.8637 
  34   1.0000      -0.713912       -19.4265 
  35   1.0000      -0.697700       -18.9854 
  36   1.0000      -0.656573       -17.8663 
  37   1.0000      -0.643551       -17.5119 
  38   1.0000      -0.620132       -16.8747 
  39   1.0000      -0.611559       -16.6414 
  40   1.0000      -0.609228       -16.5779 
  41   1.0000      -0.592439       -16.1211 
  42   1.0000      -0.579906       -15.7800 
  43   1.0000      -0.561735       -15.2856 
  44   1.0000      -0.541212       -14.7271 
  45   1.0000      -0.529745       -14.4151 
  46   1.0000      -0.507087       -13.7985 
  47   1.0000      -0.489864       -13.3299 
  48   1.0000      -0.480584       -13.0773 
  49   1.0000      -0.476039       -12.9537 
  50   1.0000      -0.470790       -12.8108 
  51   1.0000      -0.462016       -12.5721 
  52   1.0000      -0.457941       -12.4612 
  53   1.0000      -0.437261       -11.8985 
  54   1.0000      -0.431747       -11.7484 
  55   1.0000      -0.429219       -11.6796 
  56   1.0000      -0.426029       -11.5928 
  57   1.0000      -0.424467       -11.5503 
  58   1.0000      -0.422007       -11.4834 
  59   1.0000      -0.411796       -11.2055 
  60   1.0000      -0.398183       -10.8351 
  61   1.0000      -0.397799       -10.8247 
  62   1.0000      -0.383683       -10.4405 
  63   1.0000      -0.378451       -10.2982 
  64   1.0000      -0.377411       -10.2699 
  65   1.0000      -0.365155        -9.9364 
  66   1.0000      -0.361647        -9.8409 
  67   1.0000      -0.356489        -9.7006 
  68   1.0000      -0.354265        -9.6400 
  69   1.0000      -0.350711        -9.5433 
  70   1.0000      -0.340242        -9.2585 
  71   1.0000      -0.332438        -9.0461 
  72   1.0000      -0.332078        -9.0363 
  73   1.0000      -0.330401        -8.9907 
  74   1.0000      -0.327762        -8.9188 
  75   1.0000      -0.324242        -8.8231 
  76   1.0000      -0.321842        -8.7578 
  77   1.0000      -0.297295        -8.0898 
  78   1.0000      -0.275188        -7.4882 
  79   1.0000      -0.273480        -7.4418 
  80   1.0000      -0.268658        -7.3106 
  81   1.0000      -0.258803        -7.0424 
  82   1.0000      -0.255684        -6.9575 
  83   1.0000      -0.214613        -5.8399 
  84   1.0000      -0.173105        -4.7104 
  85   0.0000      -0.060122        -1.6360 
  86   0.0000      -0.010494        -0.2856 
  87   0.0000      -0.008897        -0.2421 
  88   0.0000       0.016581         0.4512 
  89   0.0000       0.041848         1.1388 
  90   0.0000       0.050848         1.3836 
  91   0.0000       0.054296         1.4775 
  92   0.0000       0.063136         1.7180 
  93   0.0000       0.064592         1.7576 
  94   0.0000       0.065643         1.7862 
  95   0.0000       0.078695         2.1414 
  96   0.0000       0.083467         2.2713 
  97   0.0000       0.088618         2.4114 
  98   0.0000       0.095053         2.5865 
  99   0.0000       0.095662         2.6031 
 100   0.0000       0.099116         2.6971 
 101   0.0000       0.102572         2.7911 
 102   0.0000       0.103778         2.8239 
 103   0.0000       0.113620         3.0917 
 104   0.0000       0.120493         3.2788 
 105   0.0000       0.125821         3.4238 
 106   0.0000       0.130168         3.5421 
 107   0.0000       0.138175         3.7599 
 108   0.0000       0.143099         3.8939 
 109   0.0000       0.147088         4.0025 
 110   0.0000       0.151754         4.1294 
 111   0.0000       0.155349         4.2273 
 112   0.0000       0.158298         4.3075 
 113   0.0000       0.160413         4.3650 
 114   0.0000       0.161477         4.3940 
 115   0.0000       0.165133         4.4935 
 116   0.0000       0.172965         4.7066 
 117   0.0000       0.175673         4.7803 
 118   0.0000       0.183216         4.9856 
 119   0.0000       0.204158         5.5554 
 120   0.0000       0.211877         5.7655 
 121   0.0000       0.212441         5.7808 
 122   0.0000       0.217813         5.9270 
 123   0.0000       0.222495         6.0544 
 124   0.0000       0.224255         6.1023 
 125   0.0000       0.243501         6.6260 
 126   0.0000       0.249785         6.7970 
 127   0.0000       0.265679         7.2295 
 128   0.0000       0.267840         7.2883 
 129   0.0000       0.278883         7.5888 
 130   0.0000       0.285972         7.7817 
 131   0.0000       0.292028         7.9465 
 132   0.0000       0.306609         8.3433 
 133   0.0000       0.314115         8.5475 
 134   0.0000       0.318658         8.6711 
 135   0.0000       0.332110         9.0372 
 136   0.0000       0.348600         9.4859 
 137   0.0000       0.361089         9.8257 
 138   0.0000       0.365421         9.9436 
 139   0.0000       0.378882        10.3099 
 140   0.0000       0.391028        10.6404 
 141   0.0000       0.406156        11.0521 
 142   0.0000       0.411721        11.2035 
 143   0.0000       0.413568        11.2538 
 144   0.0000       0.419545        11.4164 
 145   0.0000       0.421979        11.4826 
 146   0.0000       0.430468        11.7136 
 147   0.0000       0.441043        12.0014 
 148   0.0000       0.441208        12.0059 
 149   0.0000       0.449873        12.2417 
 150   0.0000       0.451786        12.2937 
 151   0.0000       0.454174        12.3587 
 152   0.0000       0.462729        12.5915 
 153   0.0000       0.472355        12.8534 
 154   0.0000       0.473248        12.8777 
 155   0.0000       0.475017        12.9259 
 156   0.0000       0.476767        12.9735 
 157   0.0000       0.481020        13.0892 
 158   0.0000       0.491036        13.3618 
 159   0.0000       0.499563        13.5938 
 160   0.0000       0.499669        13.5967 
 161   0.0000       0.503037        13.6883 
 162   0.0000       0.506709        13.7882 
 163   0.0000       0.508694        13.8423 
 164   0.0000       0.514043        13.9878 
 165   0.0000       0.515653        14.0316 
 166   0.0000       0.517235        14.0747 
 167   0.0000       0.521679        14.1956 
 168   0.0000       0.525333        14.2950 
 169   0.0000       0.529669        14.4130 
 170   0.0000       0.534616        14.5476 
 171   0.0000       0.551026        14.9942 
 172   0.0000       0.552737        15.0407 
 173   0.0000       0.558201        15.1894 
 174   0.0000       0.569476        15.4962 
 175   0.0000       0.575630        15.6637 
 176   0.0000       0.585311        15.9271 
 177   0.0000       0.589577        16.0432 
 178   0.0000       0.592086        16.1115 
 179   0.0000       0.599033        16.3005 
 180   0.0000       0.601097        16.3567 
 181   0.0000       0.608877        16.5684 
 182   0.0000       0.609562        16.5870 
 183   0.0000       0.625070        17.0090 
 184   0.0000       0.625914        17.0320 
 185   0.0000       0.632681        17.2161 
 186   0.0000       0.638156        17.3651 
 187   0.0000       0.638379        17.3712 
 188   0.0000       0.643340        17.5062 
 189   0.0000       0.644074        17.5261 
 190   0.0000       0.645763        17.5721 
 191   0.0000       0.651620        17.7315 
 192   0.0000       0.655605        17.8399 
 193   0.0000       0.656024        17.8513 
 194   0.0000       0.661309        17.9951 
 195   0.0000       0.661943        18.0124 
 196   0.0000       0.665725        18.1153 
 197   0.0000       0.666350        18.1323 
 198   0.0000       0.666409        18.1339 
 199   0.0000       0.669533        18.2189 
 200   0.0000       0.678329        18.4583 
 201   0.0000       0.678379        18.4596 
 202   0.0000       0.683462        18.5980 
 203   0.0000       0.686708        18.6863 
 204   0.0000       0.691106        18.8060 
 205   0.0000       0.694094        18.8873 
 206   0.0000       0.695056        18.9134 
 207   0.0000       0.704830        19.1794 
 208   0.0000       0.711350        19.3568 
 209   0.0000       0.714225        19.4350 
 210   0.0000       0.723409        19.6849 
 211   0.0000       0.727688        19.8014 
 212   0.0000       0.733503        19.9596 
 213   0.0000       0.734206        19.9788 
 214   0.0000       0.736929        20.0528 
 215   0.0000       0.750680        20.4270 
 216   0.0000       0.754896        20.5418 
 217   0.0000       0.759422        20.6649 
 218   0.0000       0.769103        20.9284 
 219   0.0000       0.775817        21.1111 
 220   0.0000       0.780587        21.2409 
 221   0.0000       0.795315        21.6416 
 222   0.0000       0.802125        21.8269 
 223   0.0000       0.818821        22.2812 
 224   0.0000       0.829449        22.5705 
 225   0.0000       0.833691        22.6859 
 226   0.0000       0.848455        23.0876 
 227   0.0000       0.853716        23.2308 
 228   0.0000       0.862616        23.4730 
 229   0.0000       0.869664        23.6648 
 230   0.0000       0.875373        23.8201 
 231   0.0000       0.882228        24.0066 
 232   0.0000       0.900594        24.5064 
 233   0.0000       0.908963        24.7341 
 234   0.0000       0.911116        24.7927 
 235   0.0000       0.915783        24.9197 
 236   0.0000       0.935340        25.4519 
 237   0.0000       0.935445        25.4547 
 238   0.0000       0.945953        25.7407 
 239   0.0000       0.954985        25.9865 
 240   0.0000       0.976383        26.5687 
 241   0.0000       0.977232        26.5918 
 242   0.0000       0.979188        26.6451 
 243   0.0000       0.982524        26.7358 
 244   0.0000       0.993358        27.0306 
 245   0.0000       0.995740        27.0955 
 246   0.0000       1.001536        27.2532 
 247   0.0000       1.009058        27.4579 
 248   0.0000       1.029586        28.0165 
 249   0.0000       1.030327        28.0366 
 250   0.0000       1.031302        28.0632 
 251   0.0000       1.038721        28.2650 
 252   0.0000       1.038779        28.2666 
 253   0.0000       1.053100        28.6563 
 254   0.0000       1.058413        28.8009 
 255   0.0000       1.062930        28.9238 
 256   0.0000       1.065804        29.0020 
 257   0.0000       1.079940        29.3866 
 258   0.0000       1.096889        29.8479 
 259   0.0000       1.106432        30.1075 
 260   0.0000       1.116599        30.3842 
 261   0.0000       1.128063        30.6961 
 262   0.0000       1.143362        31.1125 
 263   0.0000       1.149284        31.2736 
 264   0.0000       1.167611        31.7723 
 265   0.0000       1.186191        32.2779 
 266   0.0000       1.199661        32.6444 
 267   0.0000       1.205491        32.8031 
 268   0.0000       1.208634        32.8886 
 269   0.0000       1.213706        33.0266 
 270   0.0000       1.215725        33.0816 
 271   0.0000       1.220892        33.2222 
 272   0.0000       1.223226        33.2857 
 273   0.0000       1.230810        33.4920 
 274   0.0000       1.232553        33.5395 
 275   0.0000       1.255565        34.1657 
 276   0.0000       1.277276        34.7565 
 277   0.0000       1.292910        35.1819 
 278   0.0000       1.293877        35.2082 
 279   0.0000       1.297805        35.3151 
 280   0.0000       1.311512        35.6881 
 281   0.0000       1.320029        35.9198 
 282   0.0000       1.327391        36.1201 
 283   0.0000       1.338475        36.4218 
 284   0.0000       1.344812        36.5942 
 285   0.0000       1.362425        37.0735 
 286   0.0000       1.376858        37.4662 
 287   0.0000       1.381785        37.6003 
 288   0.0000       1.393761        37.9262 
 289   0.0000       1.395788        37.9813 
 290   0.0000       1.401399        38.1340 
 291   0.0000       1.424145        38.7529 
 292   0.0000       1.425507        38.7900 
 293   0.0000       1.425779        38.7974 
 294   0.0000       1.427027        38.8314 
 295   0.0000       1.430698        38.9313 
 296   0.0000       1.443141        39.2699 
 297   0.0000       1.453777        39.5593 
 298   0.0000       1.464581        39.8533 
 299   0.0000       1.473640        40.0998 
 300   0.0000       1.475625        40.1538 
 301   0.0000       1.481569        40.3155 
 302   0.0000       1.484153        40.3858 
 303   0.0000       1.486270        40.4435 
 304   0.0000       1.499560        40.8051 
 305   0.0000       1.504197        40.9313 
 306   0.0000       1.509321        41.0707 
 307   0.0000       1.520700        41.3803 
 308   0.0000       1.533104        41.7179 
 309   0.0000       1.541108        41.9357 
 310   0.0000       1.556593        42.3571 
 311   0.0000       1.569664        42.7127 
 312   0.0000       1.581255        43.0281 
 313   0.0000       1.586786        43.1787 
 314   0.0000       1.596200        43.4348 
 315   0.0000       1.597900        43.4811 
 316   0.0000       1.598769        43.5047 
 317   0.0000       1.608230        43.7622 
 318   0.0000       1.611161        43.8419 
 319   0.0000       1.617241        44.0074 
 320   0.0000       1.624680        44.2098 
 321   0.0000       1.627882        44.2969 
 322   0.0000       1.631084        44.3841 
 323   0.0000       1.635334        44.4997 
 324   0.0000       1.639077        44.6016 
 325   0.0000       1.639517        44.6135 
 326   0.0000       1.646555        44.8050 
 327   0.0000       1.646685        44.8086 
 328   0.0000       1.650441        44.9108 
 329   0.0000       1.651791        44.9475 
 330   0.0000       1.660281        45.1785 
 331   0.0000       1.670276        45.4505 
 332   0.0000       1.671616        45.4870 
 333   0.0000       1.677181        45.6384 
 334   0.0000       1.681863        45.7658 
 335   0.0000       1.686983        45.9051 
 336   0.0000       1.687718        45.9251 
 337   0.0000       1.692858        46.0650 
 338   0.0000       1.698055        46.2064 
 339   0.0000       1.701057        46.2881 
 340   0.0000       1.704520        46.3824 
 341   0.0000       1.705762        46.4161 
 342   0.0000       1.709250        46.5111 
 343   0.0000       1.718157        46.7534 
 344   0.0000       1.721914        46.8557 
 345   0.0000       1.735123        47.2151 
 346   0.0000       1.738513        47.3073 
 347   0.0000       1.741555        47.3901 
 348   0.0000       1.745262        47.4910 
 349   0.0000       1.760826        47.9145 
 350   0.0000       1.770304        48.1724 
 351   0.0000       1.772188        48.2237 
 352   0.0000       1.781669        48.4817 
 353   0.0000       1.784692        48.5639 
 354   0.0000       1.788828        48.6765 
 355   0.0000       1.794526        48.8315 
 356   0.0000       1.797599        48.9152 
 357   0.0000       1.803437        49.0740 
 358   0.0000       1.806509        49.1576 
 359   0.0000       1.818042        49.4714 
 360   0.0000       1.826224        49.6941 
 361   0.0000       1.826786        49.7094 
 362   0.0000       1.835326        49.9418 
 363   0.0000       1.841281        50.1038 
 364   0.0000       1.848491        50.3000 
 365   0.0000       1.848689        50.3054 
 366   0.0000       1.852772        50.4165 
 367   0.0000       1.862921        50.6927 
 368   0.0000       1.874213        50.9999 
 369   0.0000       1.884422        51.2777 
 370   0.0000       1.892228        51.4901 
 371   0.0000       1.901577        51.7445 
 372   0.0000       1.911306        52.0093 
 373   0.0000       1.922542        52.3150 
 374   0.0000       1.924911        52.3795 
 375   0.0000       1.932906        52.5971 
 376   0.0000       1.949837        53.0578 
 377   0.0000       1.957187        53.2578 
 378   0.0000       1.963700        53.4350 
 379   0.0000       1.972639        53.6782 
 380   0.0000       1.978835        53.8468 
 381   0.0000       1.989300        54.1316 
 382   0.0000       1.994172        54.2642 
 383   0.0000       1.994569        54.2750 
 384   0.0000       2.018781        54.9338 
 385   0.0000       2.034912        55.3728 
 386   0.0000       2.040940        55.5368 
 387   0.0000       2.051596        55.8268 
 388   0.0000       2.066253        56.2256 
 389   0.0000       2.075895        56.4880 
 390   0.0000       2.078346        56.5547 
 391   0.0000       2.088312        56.8258 
 392   0.0000       2.108051        57.3630 
 393   0.0000       2.118420        57.6451 
 394   0.0000       2.130117        57.9634 
 395   0.0000       2.140123        58.2357 
 396   0.0000       2.155615        58.6573 
 397   0.0000       2.156061        58.6694 
 398   0.0000       2.172850        59.1263 
 399   0.0000       2.192099        59.6500 
 400   0.0000       2.192315        59.6559 
 401   0.0000       2.198109        59.8136 
 402   0.0000       2.210269        60.1445 
 403   0.0000       2.226832        60.5952 
 404   0.0000       2.230854        60.7046 
 405   0.0000       2.231793        60.7302 
 406   0.0000       2.235526        60.8318 
 407   0.0000       2.248415        61.1825 
 408   0.0000       2.273826        61.8740 
 409   0.0000       2.282056        62.0979 
 410   0.0000       2.301414        62.6247 
 411   0.0000       2.303955        62.6938 
 412   0.0000       2.305086        62.7246 
 413   0.0000       2.321778        63.1788 
 414   0.0000       2.329205        63.3809 
 415   0.0000       2.342277        63.7366 
 416   0.0000       2.359588        64.2077 
 417   0.0000       2.371027        64.5189 
 418   0.0000       2.377956        64.7075 
 419   0.0000       2.408267        65.5323 
 420   0.0000       2.408625        65.5420 
 421   0.0000       2.410966        65.6057 
 422   0.0000       2.414021        65.6888 
 423   0.0000       2.414546        65.7031 
 424   0.0000       2.418540        65.8118 
 425   0.0000       2.419987        65.8512 
 426   0.0000       2.429169        66.1010 
 427   0.0000       2.437548        66.3290 
 428   0.0000       2.449741        66.6608 
 429   0.0000       2.452129        66.7258 
 430   0.0000       2.484180        67.5980 
 431   0.0000       2.506360        68.2015 
 432   0.0000       2.522675        68.6455 
 433   0.0000       2.544871        69.2495 
 434   0.0000       2.548677        69.3530 
 435   0.0000       2.559976        69.6605 
 436   0.0000       2.580795        70.2270 
 437   0.0000       2.601347        70.7862 
 438   0.0000       2.615780        71.1790 
 439   0.0000       2.625496        71.4434 
 440   0.0000       2.637580        71.7722 
 441   0.0000       2.642534        71.9070 
 442   0.0000       2.653502        72.2055 
 443   0.0000       2.681299        72.9619 
 444   0.0000       2.712197        73.8026 
 445   0.0000       2.713628        73.8416 
 446   0.0000       2.719304        73.9960 
 447   0.0000       2.723410        74.1077 
 448   0.0000       2.733672        74.3870 
 449   0.0000       2.781791        75.6964 
 450   0.0000       2.806601        76.3715 
 451   0.0000       2.844405        77.4002 
 452   0.0000       2.863635        77.9235 
 453   0.0000       2.876537        78.2746 
 454   0.0000       2.892739        78.7154 
 455   0.0000       2.997123        81.5559 
 456   0.0000       3.074193        83.6530 
 457   0.0000       3.096035        84.2474 
 458   0.0000       3.202994        87.1579 
 459   0.0000       3.395408        92.3938 
 460   0.0000       3.584041        97.5267 

                 SPIN DOWN ORBITALS
  NO   OCC          E(Eh)            E(eV) 
   0   1.0000     -10.216582      -278.0073 
   1   1.0000     -10.213565      -277.9252 
   2   1.0000     -10.209939      -277.8266 
   3   1.0000     -10.200789      -277.5776 
   4   1.0000     -10.198766      -277.5225 
   5   1.0000     -10.197509      -277.4883 
   6   1.0000     -10.197379      -277.4848 
   7   1.0000     -10.196299      -277.4554 
   8   1.0000     -10.195654      -277.4378 
   9   1.0000     -10.195480      -277.4331 
  10   1.0000     -10.191692      -277.3300 
  11   1.0000     -10.191201      -277.3167 
  12   1.0000     -10.190206      -277.2896 
  13   1.0000     -10.190034      -277.2849 
  14   1.0000     -10.188641      -277.2470 
  15   1.0000     -10.187697      -277.2213 
  16   1.0000     -10.187149      -277.2064 
  17   1.0000     -10.183795      -277.1151 
  18   1.0000     -10.183556      -277.1086 
  19   1.0000     -10.182035      -277.0673 
  20   1.0000     -10.182026      -277.0670 
  21   1.0000     -10.181729      -277.0589 
  22   1.0000     -10.176967      -276.9294 
  23   1.0000     -10.175686      -276.8945 
  24   1.0000      -0.870394       -23.6846 
  25   1.0000      -0.863527       -23.4978 
  26   1.0000      -0.814984       -22.1768 
  27   1.0000      -0.796717       -21.6798 
  28   1.0000      -0.794155       -21.6101 
  29   1.0000      -0.777943       -21.1689 
  30   1.0000      -0.765693       -20.8356 
  31   1.0000      -0.751311       -20.4442 
  32   1.0000      -0.742981       -20.2175 
  33   1.0000      -0.726376       -19.7657 
  34   1.0000      -0.712216       -19.3804 
  35   1.0000      -0.695384       -18.9223 
  36   1.0000      -0.653565       -17.7844 
  37   1.0000      -0.641814       -17.4647 
  38   1.0000      -0.617139       -16.7932 
  39   1.0000      -0.609336       -16.5809 
  40   1.0000      -0.608742       -16.5647 
  41   1.0000      -0.591510       -16.0958 
  42   1.0000      -0.578311       -15.7366 
  43   1.0000      -0.558726       -15.2037 
  44   1.0000      -0.540560       -14.7094 
  45   1.0000      -0.528004       -14.3677 
  46   1.0000      -0.504079       -13.7167 
  47   1.0000      -0.488267       -13.2864 
  48   1.0000      -0.479807       -13.0562 
  49   1.0000      -0.475149       -12.9295 
  50   1.0000      -0.469938       -12.7877 
  51   1.0000      -0.458537       -12.4774 
  52   1.0000      -0.458003       -12.4629 
  53   1.0000      -0.436842       -11.8871 
  54   1.0000      -0.429947       -11.6995 
  55   1.0000      -0.427938       -11.6448 
  56   1.0000      -0.424900       -11.5621 
  57   1.0000      -0.424461       -11.5502 
  58   1.0000      -0.419379       -11.4119 
  59   1.0000      -0.411276       -11.1914 
  60   1.0000      -0.396684       -10.7943 
  61   1.0000      -0.390547       -10.6273 
  62   1.0000      -0.383142       -10.4258 
  63   1.0000      -0.376132       -10.2351 
  64   1.0000      -0.374180       -10.1820 
  65   1.0000      -0.364012        -9.9053 
  66   1.0000      -0.361597        -9.8396 
  67   1.0000      -0.355652        -9.6778 
  68   1.0000      -0.351162        -9.5556 
  69   1.0000      -0.350744        -9.5442 
  70   1.0000      -0.337980        -9.1969 
  71   1.0000      -0.331903        -9.0316 
  72   1.0000      -0.330686        -8.9984 
  73   1.0000      -0.328134        -8.9290 
  74   1.0000      -0.327399        -8.9090 
  75   1.0000      -0.323419        -8.8007 
  76   1.0000      -0.321481        -8.7479 
  77   1.0000      -0.294146        -8.0041 
  78   1.0000      -0.272847        -7.4245 
  79   1.0000      -0.268483        -7.3058 
  80   1.0000      -0.261331        -7.1112 
  81   1.0000      -0.259210        -7.0535 
  82   1.0000      -0.252327        -6.8662 
  83   1.0000      -0.207349        -5.6422 
  84   0.0000      -0.082807        -2.2533 
  85   0.0000      -0.052278        -1.4226 
  86   0.0000      -0.010850        -0.2952 
  87   0.0000      -0.007238        -0.1969 
  88   0.0000       0.034247         0.9319 
  89   0.0000       0.042274         1.1503 
  90   0.0000       0.051201         1.3933 
  91   0.0000       0.054302         1.4776 
  92   0.0000       0.063373         1.7245 
  93   0.0000       0.064908         1.7662 
  94   0.0000       0.070794         1.9264 
  95   0.0000       0.078800         2.1442 
  96   0.0000       0.084322         2.2945 
  97   0.0000       0.089314         2.4304 
  98   0.0000       0.095578         2.6008 
  99   0.0000       0.095770         2.6060 
 100   0.0000       0.099506         2.7077 
 101   0.0000       0.103256         2.8098 
 102   0.0000       0.104871         2.8537 
 103   0.0000       0.113736         3.0949 
 104   0.0000       0.121893         3.3169 
 105   0.0000       0.126212         3.4344 
 106   0.0000       0.130264         3.5447 
 107   0.0000       0.138227         3.7613 
 108   0.0000       0.143232         3.8975 
 109   0.0000       0.149599         4.0708 
 110   0.0000       0.152763         4.1569 
 111   0.0000       0.155562         4.2330 
 112   0.0000       0.159439         4.3386 
 113   0.0000       0.161041         4.3822 
 114   0.0000       0.162016         4.4087 
 115   0.0000       0.166864         4.5406 
 116   0.0000       0.173780         4.7288 
 117   0.0000       0.176207         4.7948 
 118   0.0000       0.188557         5.1309 
 119   0.0000       0.205172         5.5830 
 120   0.0000       0.213289         5.8039 
 121   0.0000       0.215199         5.8559 
 122   0.0000       0.218666         5.9502 
 123   0.0000       0.222691         6.0597 
 124   0.0000       0.225628         6.1396 
 125   0.0000       0.244828         6.6621 
 126   0.0000       0.252275         6.8648 
 127   0.0000       0.268345         7.3020 
 128   0.0000       0.268990         7.3196 
 129   0.0000       0.278869         7.5884 
 130   0.0000       0.286428         7.7941 
 131   0.0000       0.292597         7.9620 
 132   0.0000       0.307854         8.3771 
 133   0.0000       0.314697         8.5633 
 134   0.0000       0.321729         8.7547 
 135   0.0000       0.333037         9.0624 
 136   0.0000       0.349060         9.4984 
 137   0.0000       0.361621         9.8402 
 138   0.0000       0.366989         9.9863 
 139   0.0000       0.379051        10.3145 
 140   0.0000       0.392261        10.6740 
 141   0.0000       0.406354        11.0574 
 142   0.0000       0.412161        11.2155 
 143   0.0000       0.414074        11.2675 
 144   0.0000       0.419930        11.4269 
 145   0.0000       0.422769        11.5041 
 146   0.0000       0.432376        11.7656 
 147   0.0000       0.442773        12.0485 
 148   0.0000       0.450291        12.2531 
 149   0.0000       0.450748        12.2655 
 150   0.0000       0.455577        12.3969 
 151   0.0000       0.457357        12.4453 
 152   0.0000       0.467502        12.7214 
 153   0.0000       0.473445        12.8831 
 154   0.0000       0.475533        12.9399 
 155   0.0000       0.475911        12.9502 
 156   0.0000       0.480251        13.0683 
 157   0.0000       0.484441        13.1823 
 158   0.0000       0.493090        13.4177 
 159   0.0000       0.501014        13.6333 
 160   0.0000       0.501489        13.6462 
 161   0.0000       0.503412        13.6985 
 162   0.0000       0.507275        13.8037 
 163   0.0000       0.508972        13.8498 
 164   0.0000       0.514286        13.9944 
 165   0.0000       0.515762        14.0346 
 166   0.0000       0.521290        14.1850 
 167   0.0000       0.522906        14.2290 
 168   0.0000       0.528599        14.3839 
 169   0.0000       0.531744        14.4695 
 170   0.0000       0.536506        14.5991 
 171   0.0000       0.553283        15.0556 
 172   0.0000       0.559539        15.2258 
 173   0.0000       0.567824        15.4513 
 174   0.0000       0.572430        15.5766 
 175   0.0000       0.576230        15.6800 
 176   0.0000       0.586274        15.9533 
 177   0.0000       0.592505        16.1229 
 178   0.0000       0.593978        16.1630 
 179   0.0000       0.600494        16.3403 
 180   0.0000       0.601952        16.3800 
[...]
  Z          -0.0002327           -0.9999999           -0.0003538

Notes:  (1) The A matrix conforms to the "SAI" spin Hamiltonian convention.
        (2) Tensor is right-handed.

 -----------------------------------------------------------
 Nucleus  46H : A:ISTP=    1 I=  0.5 P=533.5514 MHz/au**3
                Q:ISTP=    2 I=  1.0 Q=  0.0029 barn     
 -----------------------------------------------------------
 Solving for nuclear perturbation:
Forming RHS of the CP-SCF equations         ... 
Calc. nucleus orbit integrals (SHARK)       ... done

------------------------------------------------------------------------------
                           ORCA CP-SCF CALCULATION
------------------------------------------------------------------------------

Input orbitals are from        ... cc-pVDZ_i.gbw
Input Perturbation             ... cc-pVDZ_i.pin.tmp
Wavefunction output            ... cc-pVDZ_i.pout.tmp
Perturbation mode              ... Imaginary perturbation
Solver                         ... POPLE
Max. number of iterations      ... 64
Convergence tolerance          ... 1.000e-03
Integral handling              ... Direct
DFT GridXC                     ... 1
COSX GridX                     ... 1
COSX IntAccX                   ... 3.067
COSX Algorithm                 ... Auto
Number of perturbations        ... 3
Number of operators            ... 2
Orbital ranges used for CP-SCF:
 Operator 0:  Orbitals   0... 84  to  85...460
 Operator 1:  Orbitals   0... 83  to  84...460
Variables per perturbation     ... 63628
DFT calculation                         ... on
XC functional terms                     ... off
Hybrid DFT                              ... on
   Exchange mixing (SCF)                ...  0.200
   Exchange mixing (CP-SCF)             ...  0.200
   GGA exch. scaling(SCF)               ...  0.720
   GGA exch. scaling (CP-SCF)           ...  0.720
   GGA corr. scaling (SCF)              ...  0.810
   GGA corr. scaling (CP-SCF)           ...  0.810

CP-SCF GRID
-----------

General Integration Accuracy     IntAcc      ... 3.467
Radial Grid Type                 RadialGrid  ... OptM3 with GC (2021)
Angular Grid (max. ang.)         AngularGrid ... 1 (Lebedev-50)
Angular grid pruning method      GridPruning ... 4 (adaptive)
Weight generation scheme         WeightScheme... Becke
Basis function cutoff            BFCut       ... 1.0000e-10
Integration weight cutoff        WCut        ... 1.0000e-14
Angular grids for H and He will be reduced by one unit
Partially contracted basis set               ... off
Rotationally invariant grid construction     ... off

Total number of grid points                  ...    31886
Total number of batches                      ...      519
Average number of points per batch           ...       61
Average number of grid points per atom       ...      651

CP-SCF GRIDX
------------

General Integration Accuracy     IntAcc      ... 3.067
Radial Grid Type                 RadialGrid  ... OptM3 with GC (2021)
Angular Grid (max. ang.)         AngularGrid ... 1 (Lebedev-50)
Angular grid pruning method      GridPruning ... 4 (adaptive)
Weight generation scheme         WeightScheme... Becke
Basis function cutoff            BFCut       ... 1.0000e-10
Integration weight cutoff        WCut        ... 1.0000e-14
Angular grids for H and He will be reduced by one unit
Partially contracted basis set               ... on
Rotationally invariant grid construction     ... off

Total number of grid points                  ...    14949
Total number of batches                      ...      264
Average number of points per batch           ...       56
Average number of grid points per atom       ...      305

Memory available               ... 875.8 MB
Memory needed per perturbation ...  13.4 MB
Perturbations treated per batch... 3
Number of batches              ... 1
     CP-SCF ITERATION   0:   4.5382e-02 (   1.9 sec   0/  3 done)
     CP-SCF ITERATION   1:   1.9123e-03 (   2.0 sec   0/  3 done)
     CP-SCF ITERATION   2:   1.3363e-04 (   1.8 sec   3/  3 done)
                    *** THE CP-SCF HAS CONVERGED ***

Forming final perturbed densities           ... done
Transforming perturbed density to AO basis  ... done

 Raw HFC matrix (all values in MHz): 
 -----------------------------------
                 1.3352              -0.3047              -0.0001
                -0.3045               0.1625               0.0000
                -0.0001               0.0000               0.5063

 A(FC)           0.6680               0.6680               0.6680
 A(SD)          -0.5798              -0.1618               0.7416
 A(ORB+DIA)     -0.0001               0.0001              -0.0001    A(PC) =  -0.0000
 A(ORB)         -0.0001              -0.0000              -0.0001    A(PC) =  -0.0001
 A(DIA)         -0.0000               0.0001               0.0001    A(PC) =   0.0000
             ----------           ----------           ----------
 A(Tot)          0.0881               0.5063               1.4096    A(iso)=    0.6680
 Orientation: 
  X           0.2373128           -0.0000843           -0.9714333
  Y           0.9714333           -0.0000258            0.2373128
  Z          -0.0000450           -1.0000000            0.0000757

Notes:  (1) The A matrix conforms to the "SAI" spin Hamiltonian convention.
        (2) Tensor is right-handed.

 -----------------------------------------------------------
 Nucleus  47H : A:ISTP=    1 I=  0.5 P=533.5514 MHz/au**3
                Q:ISTP=    2 I=  1.0 Q=  0.0029 barn     
 -----------------------------------------------------------
 Solving for nuclear perturbation:
Forming RHS of the CP-SCF equations         ... 
Calc. nucleus orbit integrals (SHARK)       ... done

------------------------------------------------------------------------------
                           ORCA CP-SCF CALCULATION
------------------------------------------------------------------------------

Input orbitals are from        ... cc-pVDZ_i.gbw
Input Perturbation             ... cc-pVDZ_i.pin.tmp
Wavefunction output            ... cc-pVDZ_i.pout.tmp
Perturbation mode              ... Imaginary perturbation
Solver                         ... POPLE
Max. number of iterations      ... 64
Convergence tolerance          ... 1.000e-03
Integral handling              ... Direct
DFT GridXC                     ... 1
COSX GridX                     ... 1
COSX IntAccX                   ... 3.067
COSX Algorithm                 ... Auto
Number of perturbations        ... 3
Number of operators            ... 2
Orbital ranges used for CP-SCF:
 Operator 0:  Orbitals   0... 84  to  85...460
 Operator 1:  Orbitals   0... 83  to  84...460
Variables per perturbation     ... 63628
DFT calculation                         ... on
XC functional terms                     ... off
Hybrid DFT                              ... on
   Exchange mixing (SCF)                ...  0.200
   Exchange mixing (CP-SCF)             ...  0.200
   GGA exch. scaling(SCF)               ...  0.720
   GGA exch. scaling (CP-SCF)           ...  0.720
   GGA corr. scaling (SCF)              ...  0.810
   GGA corr. scaling (CP-SCF)           ...  0.810

CP-SCF GRID
-----------

General Integration Accuracy     IntAcc      ... 3.467
Radial Grid Type                 RadialGrid  ... OptM3 with GC (2021)
Angular Grid (max. ang.)         AngularGrid ... 1 (Lebedev-50)
Angular grid pruning method      GridPruning ... 4 (adaptive)
Weight generation scheme         WeightScheme... Becke
Basis function cutoff            BFCut       ... 1.0000e-10
Integration weight cutoff        WCut        ... 1.0000e-14
Angular grids for H and He will be reduced by one unit
Partially contracted basis set               ... off
Rotationally invariant grid construction     ... off

Total number of grid points                  ...    31886
Total number of batches                      ...      519
Average number of points per batch           ...       61
Average number of grid points per atom       ...      651

CP-SCF GRIDX
------------

General Integration Accuracy     IntAcc      ... 3.067
Radial Grid Type                 RadialGrid  ... OptM3 with GC (2021)
Angular Grid (max. ang.)         AngularGrid ... 1 (Lebedev-50)
Angular grid pruning method      GridPruning ... 4 (adaptive)
Weight generation scheme         WeightScheme... Becke
Basis function cutoff            BFCut       ... 1.0000e-10
Integration weight cutoff        WCut        ... 1.0000e-14
Angular grids for H and He will be reduced by one unit
Partially contracted basis set               ... on
Rotationally invariant grid construction     ... off

Total number of grid points                  ...    14949
Total number of batches                      ...      264
Average number of points per batch           ...       56
Average number of grid points per atom       ...      305

Memory available               ... 875.3 MB
Memory needed per perturbation ...  13.4 MB
Perturbations treated per batch... 3
Number of batches              ... 1
     CP-SCF ITERATION   0:   4.5399e-02 (   1.8 sec   0/  3 done)
     CP-SCF ITERATION   1:   1.9103e-03 (   1.9 sec   0/  3 done)
     CP-SCF ITERATION   2:   1.3644e-04 (   1.8 sec   3/  3 done)
                    *** THE CP-SCF HAS CONVERGED ***

Forming final perturbed densities           ... done
Transforming perturbed density to AO basis  ... done

 Raw HFC matrix (all values in MHz): 
 -----------------------------------
                 1.2094               0.3904              -0.0001
                 0.3903               0.2406               0.0001
                -0.0001               0.0001               0.5549

 A(FC)           0.6684               0.6684               0.6684
 A(SD)          -0.5653              -0.1135               0.6789
 A(ORB+DIA)     -0.0001               0.0001              -0.0002    A(PC) =  -0.0001
 A(ORB)         -0.0001               0.0000              -0.0002    A(PC) =  -0.0001
 A(DIA)         -0.0000               0.0001               0.0000    A(PC) =   0.0000
             ----------           ----------           ----------
 A(Tot)          0.1029               0.5549               1.3471    A(iso)=    0.6683
 Orientation: 
  X          -0.3327134            0.0000047            0.9430280
  Y           0.9430280            0.0002183            0.3327134
  Z          -0.0002043            1.0000000           -0.0000770

Notes:  (1) The A matrix conforms to the "SAI" spin Hamiltonian convention.
        (2) Tensor is right-handed.

 -----------------------------------------------------------
 Nucleus  48H : A:ISTP=    1 I=  0.5 P=533.5514 MHz/au**3
                Q:ISTP=    2 I=  1.0 Q=  0.0029 barn     
 -----------------------------------------------------------
 Solving for nuclear perturbation:
Forming RHS of the CP-SCF equations         ... 
Calc. nucleus orbit integrals (SHARK)       ... done

------------------------------------------------------------------------------
                           ORCA CP-SCF CALCULATION
------------------------------------------------------------------------------

Input orbitals are from        ... cc-pVDZ_i.gbw
Input Perturbation             ... cc-pVDZ_i.pin.tmp
Wavefunction output            ... cc-pVDZ_i.pout.tmp
Perturbation mode              ... Imaginary perturbation
Solver                         ... POPLE
Max. number of iterations      ... 64
Convergence tolerance          ... 1.000e-03
Integral handling              ... Direct
DFT GridXC                     ... 1
COSX GridX                     ... 1
COSX IntAccX                   ... 3.067
COSX Algorithm                 ... Auto
Number of perturbations        ... 3
Number of operators            ... 2
Orbital ranges used for CP-SCF:
 Operator 0:  Orbitals   0... 84  to  85...460
 Operator 1:  Orbitals   0... 83  to  84...460
Variables per perturbation     ... 63628
DFT calculation                         ... on
XC functional terms                     ... off
Hybrid DFT                              ... on
   Exchange mixing (SCF)                ...  0.200
   Exchange mixing (CP-SCF)             ...  0.200
   GGA exch. scaling(SCF)               ...  0.720
   GGA exch. scaling (CP-SCF)           ...  0.720
   GGA corr. scaling (SCF)              ...  0.810
   GGA corr. scaling (CP-SCF)           ...  0.810

CP-SCF GRID
-----------

General Integration Accuracy     IntAcc      ... 3.467
Radial Grid Type                 RadialGrid  ... OptM3 with GC (2021)
Angular Grid (max. ang.)         AngularGrid ... 1 (Lebedev-50)
Angular grid pruning method      GridPruning ... 4 (adaptive)
Weight generation scheme         WeightScheme... Becke
Basis function cutoff            BFCut       ... 1.0000e-10
Integration weight cutoff        WCut        ... 1.0000e-14
Angular grids for H and He will be reduced by one unit
Partially contracted basis set               ... off
Rotationally invariant grid construction     ... off

Total number of grid points                  ...    31886
Total number of batches                      ...      519
Average number of points per batch           ...       61
Average number of grid points per atom       ...      651

CP-SCF GRIDX
------------

General Integration Accuracy     IntAcc      ... 3.067
Radial Grid Type                 RadialGrid  ... OptM3 with GC (2021)
Angular Grid (max. ang.)         AngularGrid ... 1 (Lebedev-50)
Angular grid pruning method      GridPruning ... 4 (adaptive)
Weight generation scheme         WeightScheme... Becke
Basis function cutoff            BFCut       ... 1.0000e-10
Integration weight cutoff        WCut        ... 1.0000e-14
Angular grids for H and He will be reduced by one unit
Partially contracted basis set               ... on
Rotationally invariant grid construction     ... off

Total number of grid points                  ...    14949
Total number of batches                      ...      264
Average number of points per batch           ...       56
Average number of grid points per atom       ...      305

Memory available               ... 874.7 MB
Memory needed per perturbation ...  13.4 MB
Perturbations treated per batch... 3
Number of batches              ... 1
     CP-SCF ITERATION   0:   4.1556e-02 (   1.8 sec   0/  3 done)
     CP-SCF ITERATION   1:   1.6791e-03 (   1.8 sec   2/  3 done)
     CP-SCF ITERATION   2:   7.5522e-05 (   1.2 sec   3/  3 done)
                    *** THE CP-SCF HAS CONVERGED ***

Forming final perturbed densities           ... done
Transforming perturbed density to AO basis  ... done

 Raw HFC matrix (all values in MHz): 
 -----------------------------------
                -0.2054              -0.1116              -0.0001
                -0.1116              -0.3490              -0.0000
                -0.0001              -0.0000              -0.2988

 A(FC)          -0.2845              -0.2845              -0.2845
 A(SD)           0.1399              -0.0144              -0.1255
 A(ORB+DIA)      0.0001               0.0000               0.0001    A(PC) =   0.0000
 A(ORB)          0.0000               0.0000               0.0000    A(PC) =   0.0000
 A(DIA)          0.0000               0.0000               0.0000    A(PC) =   0.0000
             ----------           ----------           ----------
 A(Tot)         -0.1445              -0.2988              -0.4099    A(iso)=   -0.2844
 Orientation: 
  X           0.8777836           -0.0000838            0.4790574
  Y          -0.4790573            0.0004163            0.8777835
  Z          -0.0002729           -0.9999999            0.0003253

Notes:  (1) The A matrix conforms to the "SAI" spin Hamiltonian convention.
        (2) Tensor is right-handed.


--------------------------------------------------------------------------------
----------------------------------------------------------------------------
                           ORCA EULER ANGLE PROGRAM
----------------------------------------------------------------------------

Only g-tensor available        -->  using g-tensor as reference tensor

Reference tensor               ...  g

g-tensor ordering              ...  |g_min> --> |gx>
                                    |g_mid> --> |gy>
                                    |g_max> --> |gz>

A- and EFG-tensor ordering     ...  the axes |Ax>, |Qx>, |Ay>, etc. are assigned
                                    such that the Euler rotation is minimal. You
                                    can find the respective eigenvalues as Ax,
                                    EFGx, Ay, etc. in the tables below.
                                    The relation of |Ax>, |Ay>,  etc. to Amin, Amid, etc.
                                    (as printed in the ORCA EPR/NMR CALCULATION Output)
                                    is obtained in the detailed printout.

Euler rotation around          ...  z - y - z
   First rotation              -->  by alpha around z
   Second rotation             -->  by beta around y'
   Third rotation              -->  by gamma around z''
   Positive / Negative angle   -->  clockwise / counterclockwise rotation

Plot EFG-tensors                    (-)
Plot HFC-tensors                    (-)
Detailed Printout                   (-)

-------------------------------------------------------------------------
          Euler rotation of hyperfine tensor to g-tensor
-------------------------------------------------------------------------

-------------------------------------------------------------------
 Atom  |   Alpha    Beta    Gamma   |   Ax       Ay       Az 
       |          [degrees]         |           [MHz]         
-------------------------------------------------------------------
  9H      -89.9      2.8     89.8     -16.18    -7.04   -19.66
 10H      -90.1      5.4     90.1       4.00     4.69     9.49
 12H      -90.0     43.1     90.0     -46.50   -71.53   -17.38
 14H     -165.8     12.1   -176.3      57.44    67.10    58.76
 15H      -14.2     12.0     -3.6      57.30    66.96    58.62
 17H      152.4     29.2   -120.9      -3.20    -3.04     3.21
 18H       27.7     29.0    -59.3      -3.20    -3.04     3.20
 20H      -49.2     47.3     26.2      -0.10     2.26     0.02
 21H     -130.8     47.4    153.9      -0.10     2.26     0.02
 23H      -32.5     17.5     -8.5      20.26    20.82    23.97
 24H     -147.5     17.5   -171.5      20.25    20.82    23.97
 26H      -95.8     29.3     82.5      -0.99     1.00    -0.86
 27H      -84.3     29.3     97.6      -0.99     1.00    -0.86
 29H      109.4     30.7    -72.9      -0.10    -0.15     0.82
 30H       70.7     30.7   -107.1      -0.10    -0.15     0.82
 32H      -85.5     42.1     93.9      -0.13     0.39    -0.11
 33H      -94.5     42.1     86.2      -0.13     0.39    -0.11
 35H       90.2     41.1    -90.0      -7.94    -2.36   -10.89
 36H       89.5     39.3    -90.0      -0.80    -0.82     0.77
 37H       90.0     38.1    -90.0      -0.13    -0.13     0.24
 44H      -90.0     44.6     90.0       0.65     1.09     0.39
 45H      -90.3      3.1     90.3      -0.28    -0.45    -0.12
 46H       90.0     35.0    -90.0       0.51     1.41     0.09
 47H      -90.0     21.8     90.0       0.55     0.10     1.35
 48H       90.0     20.1    -89.9      -0.30    -0.14    -0.41
-------------------------------------------------------------------


Maximum memory used throughout the entire EPRNMR-calculation: 219.0 MB

Timings for individual modules:

Sum of individual times         ...     4893.514 sec (=  81.559 min)
GTO integral calculation        ...        4.687 sec (=   0.078 min)   0.1 %
Spin-Orbit-Coupling Matrices    ...        9.296 sec (=   0.155 min)   0.2 %
SCF iterations                  ...       48.527 sec (=   0.809 min)   1.0 %
EPR/NMR calculation             ...     4831.004 sec (=  80.517 min)  98.7 %
                             ****ORCA TERMINATED NORMALLY****
TOTAL RUN TIME: 0 days 1 hours 21 minutes 37 seconds 779 msec
