
                                 *****************
                                 * O   R   C   A *
                                 *****************

                                            #,                                       
                                            ###                                      
                                            ####                                     
                                            #####                                    
                                            ######                                   
                                           ########,                                 
                                     ,,################,,,,,                         
                               ,,#################################,,                 
                          ,,##########################################,,             
                       ,#########################################, ''#####,          
                    ,#############################################,,   '####,        
                  ,##################################################,,,,####,       
                ,###########''''           ''''###############################       
              ,#####''   ,,,,##########,,,,          '''####'''          '####       
            ,##' ,,,,###########################,,,                        '##       
           ' ,,###''''                  '''############,,,                           
         ,,##''                                '''############,,,,        ,,,,,,###''
      ,#''                                            '''#######################'''  
     '                                                          ''''####''''         
             ,#######,   #######,   ,#######,      ##                                
            ,#'     '#,  ##    ##  ,#'     '#,    #''#        ######   ,####,        
            ##       ##  ##   ,#'  ##            #'  '#       #        #'  '#        
            ##       ##  #######   ##           ,######,      #####,   #    #        
            '#,     ,#'  ##    ##  '#,     ,#' ,#      #,         ##   #,  ,#        
             '#######'   ##     ##  '#######'  #'      '#     #####' # '####'        



                  #######################################################
                  #                        -***-                        #
                  #          Department of theory and spectroscopy      #
                  #    Directorship and core code : Frank Neese         #
                  #        Max Planck Institute fuer Kohlenforschung    #
                  #                Kaiser Wilhelm Platz 1               #
                  #                 D-45470 Muelheim/Ruhr               #
                  #                      Germany                        #
                  #                                                     #
                  #                  All rights reserved                #
                  #                        -***-                        #
                  #######################################################


                         Program Version 5.0.4 -  RELEASE  -


 With contributions from (in alphabetic order):
   Daniel Aravena         : Magnetic Suceptibility
   Michael Atanasov       : Ab Initio Ligand Field Theory (pilot matlab implementation)
   Alexander A. Auer      : GIAO ZORA, VPT2 properties, NMR spectrum
   Ute Becker             : Parallelization
   Giovanni Bistoni       : ED, misc. LED, open-shell LED, HFLD
   Martin Brehm           : Molecular dynamics
   Dmytro Bykov           : SCF Hessian
   Vijay G. Chilkuri      : MRCI spin determinant printing, contributions to CSF-ICE
   Dipayan Datta          : RHF DLPNO-CCSD density
   Achintya Kumar Dutta   : EOM-CC, STEOM-CC
   Dmitry Ganyushin       : Spin-Orbit,Spin-Spin,Magnetic field MRCI
   Miquel Garcia          : C-PCM and meta-GGA Hessian, CC/C-PCM, Gaussian charge scheme
   Yang Guo               : DLPNO-NEVPT2, F12-NEVPT2, CIM, IAO-localization
   Andreas Hansen         : Spin unrestricted coupled pair/coupled cluster methods
   Benjamin Helmich-Paris : MC-RPA, TRAH-SCF, COSX integrals
   Lee Huntington         : MR-EOM, pCC
   Robert Izsak           : Overlap fitted RIJCOSX, COSX-SCS-MP3, EOM
   Marcus Kettner         : VPT2
   Christian Kollmar      : KDIIS, OOCD, Brueckner-CCSD(T), CCSD density, CASPT2, CASPT2-K
   Simone Kossmann        : Meta GGA functionals, TD-DFT gradient, OOMP2, MP2 Hessian
   Martin Krupicka        : Initial AUTO-CI
   Lucas Lang             : DCDCAS
   Marvin Lechner         : AUTO-CI (C++ implementation), FIC-MRCC
   Dagmar Lenk            : GEPOL surface, SMD
   Dimitrios Liakos       : Extrapolation schemes; Compound Job, initial MDCI parallelization
   Dimitrios Manganas     : Further ROCIS development; embedding schemes
   Dimitrios Pantazis     : SARC Basis sets
   Anastasios Papadopoulos: AUTO-CI, single reference methods and gradients
   Taras Petrenko         : DFT Hessian,TD-DFT gradient, ASA, ECA, R-Raman, ABS, FL, XAS/XES, NRVS
   Peter Pinski           : DLPNO-MP2, DLPNO-MP2 Gradient
   Christoph Reimann      : Effective Core Potentials
   Marius Retegan         : Local ZFS, SOC
   Christoph Riplinger    : Optimizer, TS searches, QM/MM, DLPNO-CCSD(T), (RO)-DLPNO pert. Triples
   Tobias Risthaus        : Range-separated hybrids, TD-DFT gradient, RPA, STAB
   Michael Roemelt        : Original ROCIS implementation
   Masaaki Saitow         : Open-shell DLPNO-CCSD energy and density
   Barbara Sandhoefer     : DKH picture change effects
   Avijit Sen             : IP-ROCIS
   Kantharuban Sivalingam : CASSCF convergence, NEVPT2, FIC-MRCI
   Bernardo de Souza      : ESD, SOC TD-DFT
   Georgi Stoychev        : AutoAux, RI-MP2 NMR, DLPNO-MP2 response
   Willem Van den Heuvel  : Paramagnetic NMR
   Boris Wezisla          : Elementary symmetry handling
   Frank Wennmohs         : Technical directorship


 We gratefully acknowledge several colleagues who have allowed us to
 interface, adapt or use parts of their codes:
   Stefan Grimme, W. Hujo, H. Kruse, P. Pracht,  : VdW corrections, initial TS optimization,
                  C. Bannwarth, S. Ehlert          DFT functionals, gCP, sTDA/sTD-DF
   Ed Valeev, F. Pavosevic, A. Kumar             : LibInt (2-el integral package), F12 methods
   Garnet Chan, S. Sharma, J. Yang, R. Olivares  : DMRG
   Ulf Ekstrom                                   : XCFun DFT Library
   Mihaly Kallay                                 : mrcc  (arbitrary order and MRCC methods)
   Jiri Pittner, Ondrej Demel                    : Mk-CCSD
   Frank Weinhold                                : gennbo (NPA and NBO analysis)
   Christopher J. Cramer and Donald G. Truhlar   : smd solvation model
   Lars Goerigk                                  : TD-DFT with DH, B97 family of functionals
   V. Asgeirsson, H. Jonsson                     : NEB implementation
   FAccTs GmbH                                   : IRC, NEB, NEB-TS, DLPNO-Multilevel, CI-OPT
                                                   MM, QMMM, 2- and 3-layer-ONIOM, Crystal-QMMM,
                                                   LR-CPCM, SF, NACMEs, symmetry and pop. for TD-DFT,
                                                   nearIR, NL-DFT gradient (VV10), updates on ESD,
                                                   ML-optimized integration grids
   S Lehtola, MJT Oliveira, MAL Marques          : LibXC Library
   Liviu Ungur et al                             : ANISO software


 Your calculation uses the libint2 library for the computation of 2-el integrals
 For citations please refer to: http://libint.valeyev.net

 Your ORCA version has been built with support for libXC version: 5.1.0
 For citations please refer to: https://tddft.org/programs/libxc/

 This ORCA versions uses:
   CBLAS   interface :  Fast vector & matrix operations
   LAPACKE interface :  Fast linear algebra routines
   SCALAPACK package :  Parallel linear algebra routines
   Shared memory     :  Shared parallel matrices
   BLAS/LAPACK       :  OpenBLAS 0.3.15  USE64BITINT DYNAMIC_ARCH NO_AFFINITY SkylakeX SINGLE_THREADED
        Core in use  :  SkylakeX
   Copyright (c) 2011-2014, The OpenBLAS Project




***************************************
The coordinates will be read from file: opt_EPRII.xyz
***************************************


================================================================================

----- Orbital basis set information -----
Your calculation utilizes the basis: EPR-II
   V. Barone, in Recent Advances in Density Functional Methods, Part 1 (ed. D. P. Chong), World Scientific, Singapore, 1995, p. 287.

----- AuxJ basis set information -----
Your calculation utilizes the AutoAux generation procedure.
  G. L. Stoychev, A. A. Auer, F. Neese, J. Chem. Theory Comput. 13, 554 (2017)

----- AuxC basis set information -----
Your calculation utilizes the AutoAux generation procedure.
  G. L. Stoychev, A. A. Auer, F. Neese, J. Chem. Theory Comput. 13, 554 (2017)

----- AuxJK basis set information -----
Your calculation utilizes the AutoAux generation procedure.
  G. L. Stoychev, A. A. Auer, F. Neese, J. Chem. Theory Comput. 13, 554 (2017)

================================================================================
                                        WARNINGS
                       Please study these warnings very carefully!
================================================================================

WARNING: Old DensityContainer found on disk!
         Will remove this file - 
         If you want to keep old densities, please start your calculation with a different basename. 


WARNING: your system is open-shell and RHF/RKS was chosen
  ===> : WILL SWITCH to UHF/UKS


INFO   : the flag for use of the SHARK integral package has been found!

================================================================================
                                       INPUT FILE
================================================================================
NAME = EPRII_i.inp
|  1> ! B3LYP EPR-II AUTOAUX
|  2> %pal nprocs 16 end
|  3> *XYZFile 0 2 opt_EPRII.xyz
|  4> %EPRNMR
|  5>         GTENSOR   TRUE
|  6>         NUCLEI    = ALL H {SHIFT, AISO, ADIP, AORB}
|  7>         ORI       GIAO
|  8> END
|  9> 
| 10>                          ****END OF INPUT****
================================================================================

                       ****************************
                       * Single Point Calculation *
                       ****************************

---------------------------------
CARTESIAN COORDINATES (ANGSTROEM)
---------------------------------
  C     -4.061290    0.097243   -0.003202
  C     -2.840340    0.052513   -0.004175
  C      2.848212   -0.004613   -0.002808
  C     -1.410878    0.005855   -0.003739
  C     -0.709102   -1.257882   -0.003309
  C      0.715759   -1.196526   -0.003042
  C      1.416609    0.016907   -0.003117
  C      0.709302    1.264187   -0.003433
  C     -0.690083    1.216305   -0.003817
  H      1.285575   -2.119016   -0.002768
  H     -1.258721    2.139144   -0.004153
  C     -1.403807   -2.492986   -0.003062
  H     -2.489925   -2.456482   -0.003312
  C     -0.746616   -3.847576   -0.002681
  H     -0.087180   -3.946178   -0.879822
  H     -0.083959   -3.944191    0.872218
  C     -1.754451   -5.012136    0.000519
  H     -2.403490   -4.922182    0.880879
  H     -2.406906   -4.924132   -0.877516
  C     -1.073601   -6.390947    0.000713
  H     -0.437554   -6.516405    0.884356
  H     -0.440921   -6.518309   -0.885074
  C      1.486840    2.569297   -0.003405
  H      2.155628    2.570543    0.868552
  H      2.155790    2.570502   -0.875241
  C      0.658240    3.863515   -0.003491
  H      0.002713    3.887888   -0.884221
  H      0.002412    3.887792    0.877019
  C      1.540623    5.124977   -0.003274
  H      2.198559    5.106045    0.875831
  H      2.198796    5.106188   -0.882204
  C      0.723584    6.428707   -0.003274
  H      0.079270    6.489196    0.881080
  H      0.079479    6.489332   -0.887770
  C      4.073248   -0.023786   -0.003632
  H     -5.126248    0.140881   -0.001501
  H     -1.812409   -7.198818    0.002987
  H      1.375928    7.308115   -0.003129
  C      5.505221   -0.055993   -0.003216
  C      6.195829   -1.292467   -0.003138
  C      7.595063   -1.320535   -0.002633
  C      8.329430   -0.122421   -0.002224
  C      7.652183    1.108936   -0.002329
  C      6.253125    1.146554   -0.002836
  H      9.415819   -0.148062   -0.001830
  H      8.215069    2.038709   -0.002016
  H      5.625878   -2.216856   -0.003456
  H      5.727831    2.096999   -0.002920
  H      8.113815   -2.275648   -0.002559

----------------------------
CARTESIAN COORDINATES (A.U.)
----------------------------
  NO LB      ZA    FRAG     MASS         X           Y           Z
   0 C     6.0000    0    12.011   -7.674726    0.183764   -0.006051
   1 C     6.0000    0    12.011   -5.367464    0.099236   -0.007889
   2 C     6.0000    0    12.011    5.382341   -0.008717   -0.005306
   3 C     6.0000    0    12.011   -2.666174    0.011065   -0.007067
   4 C     6.0000    0    12.011   -1.340008   -2.377053   -0.006253
   5 C     6.0000    0    12.011    1.352589   -2.261106   -0.005748
   6 C     6.0000    0    12.011    2.677003    0.031950   -0.005889
   7 C     6.0000    0    12.011    1.340386    2.388967   -0.006488
   8 C     6.0000    0    12.011   -1.304068    2.298483   -0.007214
   9 H     1.0000    0     1.008    2.429384   -4.004360   -0.005230
  10 H     1.0000    0     1.008   -2.378638    4.042396   -0.007847
  11 C     6.0000    0    12.011   -2.652810   -4.711061   -0.005785
  12 H     1.0000    0     1.008   -4.705276   -4.642078   -0.006259
  13 C     6.0000    0    12.011   -1.410900   -7.270865   -0.005066
  14 H     1.0000    0     1.008   -0.164746   -7.457195   -1.662622
  15 H     1.0000    0     1.008   -0.158660   -7.453441    1.648254
  16 C     6.0000    0    12.011   -3.315431   -9.471565    0.000981
  17 H     1.0000    0     1.008   -4.541938   -9.301576    1.664619
  18 H     1.0000    0     1.008   -4.548393   -9.305262   -1.658264
  19 C     6.0000    0    12.011   -2.028813  -12.077139    0.001348
  20 H     1.0000    0     1.008   -0.826856  -12.314221    1.671190
  21 H     1.0000    0     1.008   -0.833221  -12.317819   -1.672547
  22 C     6.0000    0    12.011    2.809720    4.855267   -0.006435
  23 H     1.0000    0     1.008    4.073547    4.857621    1.641326
  24 H     1.0000    0     1.008    4.073852    4.857544   -1.653966
  25 C     6.0000    0    12.011    1.243893    7.300985   -0.006597
  26 H     1.0000    0     1.008    0.005126    7.347043   -1.670936
  27 H     1.0000    0     1.008    0.004558    7.346861    1.657325
  28 C     6.0000    0    12.011    2.911355    9.684804   -0.006186
  29 H     1.0000    0     1.008    4.154674    9.649027    1.655082
  30 H     1.0000    0     1.008    4.155122    9.649297   -1.667124
  31 C     6.0000    0    12.011    1.367375   12.148495   -0.006186
  32 H     1.0000    0     1.008    0.149798   12.262803    1.665001
  33 H     1.0000    0     1.008    0.150193   12.263060   -1.677643
  34 C     6.0000    0    12.011    7.697323   -0.044949   -0.006864
  35 H     1.0000    0     1.008   -9.687205    0.266227   -0.002837
  36 H     1.0000    0     1.008   -3.424956  -13.603795    0.005645
  37 H     1.0000    0     1.008    2.600127   13.810337   -0.005914
  38 C     6.0000    0    12.011   10.403360   -0.105811   -0.006078
  39 C     6.0000    0    12.011   11.708419   -2.442409   -0.005931
  40 C     6.0000    0    12.011   14.352589   -2.495449   -0.004976
  41 C     6.0000    0    12.011   15.740342   -0.231342   -0.004203
  42 C     6.0000    0    12.011   14.460531    2.095584   -0.004401
  43 C     6.0000    0    12.011   11.816693    2.166673   -0.005360
  44 H     1.0000    0     1.008   17.793319   -0.279796   -0.003459
  45 H     1.0000    0     1.008   15.524231    3.852602   -0.003809
  46 H     1.0000    0     1.008   10.631369   -4.189250   -0.006530
  47 H     1.0000    0     1.008   10.824031    3.962754   -0.005517
  48 H     1.0000    0     1.008   15.332889   -4.300351   -0.004836

--------------------------------
INTERNAL COORDINATES (ANGSTROEM)
--------------------------------
 C      0   0   0     0.000000000000     0.00000000     0.00000000
 C      1   0   0     1.221769719278     0.00000000     0.00000000
 C      2   1   0     5.688838672775   178.47607916     0.00000000
 C      2   1   3     1.430222706315   179.76282107    13.18756611
 C      4   2   1     1.445518206795   120.91370651   164.56965539
 C      5   4   2     1.426181274100   116.57851313   179.99336658
 C      6   5   4     1.401288970643   122.47541303     0.00000000
 C      7   6   5     1.433872728034   120.43358108     0.00000000
 C      8   7   6     1.400203617093   117.59701501     0.00000000
 H      6   5   4     1.084286916221   119.23763061   180.00313790
 H      9   8   7     1.083965094169   119.68099014   180.00537104
 C      5   4   2     1.417073562518   121.59947536     0.00000000
 H     12   5   4     1.086731242511   117.43132691     0.00000000
 C     12   5   4     1.505593604946   124.76296616   179.99681660
 H     14  12   5     1.101796174355   109.97220927   302.10067207
 H     14  12   5     1.101770217908   109.97608868    57.65558429
 C     14  12   5     1.540110635209   113.24566817   179.87877661
 H     17  14  12     1.097440652379   109.06869268   302.03511222
 H     17  14  12     1.097446088196   109.07171428    57.94999068
 C     17  14  12     1.537749711247   112.84647150   179.99304884
 H     20  17  14     1.095956709530   111.08185115    59.90211523
 H     20  17  14     1.095957755539   111.08143776   300.09988362
 C      8   7   6     1.519169622808   119.65828797   179.99545060
 H     23   8   7     1.098903916193   108.20869961   303.36790227
 H     23   8   7     1.098905441227   108.20950253    56.65184084
 C     23   8   7     1.536743251482   116.58632730   180.01107116
 H     26  23   8     1.098178332838   109.91293515   301.46645511
 H     26  23   8     1.098178534603   109.91197887    58.51946739
 C     26  23   8     1.539443830349   112.39883772   179.99272196
 H     29  26  23     1.098209272259   109.23113662   302.03904789
 H     29  26  23     1.098209077804   109.23140993    57.96713937
 C     29  26  23     1.538591241760   112.95238965   180.00335665
 H     32  29  26     1.095847221250   111.03861431    59.85075461
 H     32  29  26     1.095847170145   111.03886555   300.15073189
 C      3   2   1     1.225186077365   179.67447179   187.01477127
 H      1   2   4     1.065853232227   179.74749250     4.97098522
 H     20  17  14     1.094759384490   111.27681554   180.00122518
 H     32  29  26     1.094948715431   111.35690372   180.00068415
 C     35   3   7     1.432335574041   179.60435617   296.82727200
 C     39  35   3     1.416265542089   120.47308079     8.02397664
 C     40  39  35     1.399515788884   120.33380134   180.00465794
 C     41  40  39     1.405265871199   120.35647952     0.00000000
 C     42  41  40     1.405311854530   119.68355100     0.00000000
 C     43  42  41     1.399564615157   120.35103282     0.00000000
 H     42  41  40     1.086691263092   120.15359954   179.99985355
 H     43  42  41     1.086885149069   119.99842107   180.00009537
 H     40  39  35     1.085973149570   119.15859813     0.00000000
 H     44  43  42     1.085946595820   120.46885099   180.00008841
 H     41  40  39     1.086896743516   119.65695466   179.99881485

---------------------------
INTERNAL COORDINATES (A.U.)
---------------------------
 C      0   0   0     0.000000000000     0.00000000     0.00000000
 C      1   0   0     2.308810168153     0.00000000     0.00000000
 C      2   1   0    10.750347111605   178.47607916     0.00000000
 C      2   1   3     2.702729225450   179.76282107    13.18756611
 C      4   2   1     2.731633532440   120.91370651   164.56965539
 C      5   4   2     2.695092025377   116.57851313   179.99336658
 C      6   5   4     2.648052388999   122.47541303     0.00000000
 C      7   6   5     2.709626766884   120.43358108     0.00000000
 C      8   7   6     2.646001368032   117.59701501     0.00000000
 H      6   5   4     2.049005322252   119.23763061   180.00313790
 H      9   8   7     2.048397166710   119.68099014   180.00537104
 C      5   4   2     2.677880944779   121.59947536     0.00000000
 H     12   5   4     2.053624429521   117.43132691     0.00000000
 C     12   5   4     2.845159582332   124.76296616   179.99681660
 H     14  12   5     2.082093024932   109.97220927   302.10067207
 H     14  12   5     2.082043974356   109.97608868    57.65558429
 C     14  12   5     2.910387316485   113.24566817   179.87877661
 H     17  14  12     2.073862281229   109.06869268   302.03511222
 H     17  14  12     2.073872553433   109.07171428    57.94999068
 C     17  14  12     2.905925816773   112.84647150   179.99304884
 H     20  17  14     2.071058035646   111.08185115    59.90211523
 H     20  17  14     2.071060012315   111.08143776   300.09988362
 C      8   7   6     2.870814538080   119.65828797   179.99545060
 H     23   8   7     2.076627449099   108.20869961   303.36790227
 H     23   8   7     2.076630330996   108.20950253    56.65184084
 C     23   8   7     2.904023883453   116.58632730   180.01107116
 H     26  23   8     2.075256295270   109.91293515   301.46645511
 H     26  23   8     2.075256676550   109.91197887    58.51946739
 C     26  23   8     2.909127237914   112.39883772   179.99272196
 H     29  26  23     2.075314762302   109.23113662   302.03904789
 H     29  26  23     2.075314394836   109.23140993    57.96713937
 C     29  26  23     2.907516078976   112.95238965   180.00335665
 H     32  29  26     2.070851132781   111.03861431    59.85075461
 H     32  29  26     2.070851036207   111.03886555   300.15073189
 C      3   2   1     2.315266149313   179.67447179   187.01477127
 H      1   2   4     2.014170707863   179.74749250     4.97098522
 H     20  17  14     2.068795419226   111.27681554   180.00122518
 H     32  29  26     2.069153202854   111.35690372   180.00068415
 C     35   3   7     2.706721966810   179.60435617   296.82727200
 C     39  35   3     2.676354007458   120.47308079     8.02397664
 C     40  39  35     2.644701561090   120.33380134   180.00465794
 C     41  40  39     2.655567641912   120.35647952     0.00000000
 C     42  41  40     2.655654537816   119.68355100     0.00000000
 C     43  42  41     2.644793829375   120.35103282     0.00000000
 H     42  41  40     2.053548879368   120.15359954   179.99985355
 H     43  42  41     2.053915270767   119.99842107   180.00009537
 H     40  39  35     2.052191841479   119.15859813     0.00000000
 H     44  43  42     2.052141662163   120.46885099   180.00008841
 H     41  40  39     2.053937181097   119.65695466   179.99881485

---------------------
BASIS SET INFORMATION
---------------------
There are 2 groups of distinct atoms

 Group   1 Type C   : 10s5p1d contracted to 6s2p1d pattern {511111/41/1}
 Group   2 Type H   : 6s1p contracted to 4s1p pattern {3111/1}

Atom   0C    basis set group =>   1
Atom   1C    basis set group =>   1
Atom   2C    basis set group =>   1
Atom   3C    basis set group =>   1
Atom   4C    basis set group =>   1
Atom   5C    basis set group =>   1
Atom   6C    basis set group =>   1
Atom   7C    basis set group =>   1
Atom   8C    basis set group =>   1
Atom   9H    basis set group =>   2
Atom  10H    basis set group =>   2
Atom  11C    basis set group =>   1
Atom  12H    basis set group =>   2
Atom  13C    basis set group =>   1
Atom  14H    basis set group =>   2
Atom  15H    basis set group =>   2
Atom  16C    basis set group =>   1
Atom  17H    basis set group =>   2
Atom  18H    basis set group =>   2
Atom  19C    basis set group =>   1
Atom  20H    basis set group =>   2
Atom  21H    basis set group =>   2
Atom  22C    basis set group =>   1
Atom  23H    basis set group =>   2
Atom  24H    basis set group =>   2
Atom  25C    basis set group =>   1
Atom  26H    basis set group =>   2
Atom  27H    basis set group =>   2
Atom  28C    basis set group =>   1
Atom  29H    basis set group =>   2
Atom  30H    basis set group =>   2
Atom  31C    basis set group =>   1
Atom  32H    basis set group =>   2
Atom  33H    basis set group =>   2
Atom  34C    basis set group =>   1
Atom  35H    basis set group =>   2
Atom  36H    basis set group =>   2
Atom  37H    basis set group =>   2
Atom  38C    basis set group =>   1
Atom  39C    basis set group =>   1
Atom  40C    basis set group =>   1
Atom  41C    basis set group =>   1
Atom  42C    basis set group =>   1
Atom  43C    basis set group =>   1
Atom  44H    basis set group =>   2
Atom  45H    basis set group =>   2
Atom  46H    basis set group =>   2
Atom  47H    basis set group =>   2
Atom  48H    basis set group =>   2
---------------------------------
AUXILIARY/J BASIS SET INFORMATION
---------------------------------
There are 2 groups of distinct atoms

 Group   1 Type C   : 17s13p12d2f contracted to 17s13p12d2f pattern {11111111111111111/1111111111111/111111111111/11}
 Group   2 Type H   : 15s6p1d contracted to 15s6p1d pattern {111111111111111/111111/1}

Atom   0C    basis set group =>   1
Atom   1C    basis set group =>   1
Atom   2C    basis set group =>   1
Atom   3C    basis set group =>   1
Atom   4C    basis set group =>   1
Atom   5C    basis set group =>   1
Atom   6C    basis set group =>   1
Atom   7C    basis set group =>   1
Atom   8C    basis set group =>   1
Atom   9H    basis set group =>   2
Atom  10H    basis set group =>   2
Atom  11C    basis set group =>   1
Atom  12H    basis set group =>   2
Atom  13C    basis set group =>   1
Atom  14H    basis set group =>   2
Atom  15H    basis set group =>   2
Atom  16C    basis set group =>   1
Atom  17H    basis set group =>   2
Atom  18H    basis set group =>   2
Atom  19C    basis set group =>   1
Atom  20H    basis set group =>   2
Atom  21H    basis set group =>   2
Atom  22C    basis set group =>   1
Atom  23H    basis set group =>   2
Atom  24H    basis set group =>   2
Atom  25C    basis set group =>   1
Atom  26H    basis set group =>   2
Atom  27H    basis set group =>   2
Atom  28C    basis set group =>   1
Atom  29H    basis set group =>   2
Atom  30H    basis set group =>   2
Atom  31C    basis set group =>   1
Atom  32H    basis set group =>   2
Atom  33H    basis set group =>   2
Atom  34C    basis set group =>   1
Atom  35H    basis set group =>   2
Atom  36H    basis set group =>   2
Atom  37H    basis set group =>   2
Atom  38C    basis set group =>   1
Atom  39C    basis set group =>   1
Atom  40C    basis set group =>   1
Atom  41C    basis set group =>   1
Atom  42C    basis set group =>   1
Atom  43C    basis set group =>   1
Atom  44H    basis set group =>   2
Atom  45H    basis set group =>   2
Atom  46H    basis set group =>   2
Atom  47H    basis set group =>   2
Atom  48H    basis set group =>   2
---------------------------------
AUXILIARY/C BASIS SET INFORMATION
---------------------------------
There are 2 groups of distinct atoms

 Group   1 Type C   : 17s13p12d2f contracted to 17s13p12d2f pattern {11111111111111111/1111111111111/111111111111/11}
 Group   2 Type H   : 15s6p1d contracted to 15s6p1d pattern {111111111111111/111111/1}

Atom   0C    basis set group =>   1
Atom   1C    basis set group =>   1
Atom   2C    basis set group =>   1
Atom   3C    basis set group =>   1
Atom   4C    basis set group =>   1
Atom   5C    basis set group =>   1
Atom   6C    basis set group =>   1
Atom   7C    basis set group =>   1
Atom   8C    basis set group =>   1
Atom   9H    basis set group =>   2
Atom  10H    basis set group =>   2
Atom  11C    basis set group =>   1
Atom  12H    basis set group =>   2
Atom  13C    basis set group =>   1
Atom  14H    basis set group =>   2
Atom  15H    basis set group =>   2
Atom  16C    basis set group =>   1
Atom  17H    basis set group =>   2
Atom  18H    basis set group =>   2
Atom  19C    basis set group =>   1
Atom  20H    basis set group =>   2
Atom  21H    basis set group =>   2
Atom  22C    basis set group =>   1
Atom  23H    basis set group =>   2
Atom  24H    basis set group =>   2
Atom  25C    basis set group =>   1
Atom  26H    basis set group =>   2
Atom  27H    basis set group =>   2
Atom  28C    basis set group =>   1
Atom  29H    basis set group =>   2
Atom  30H    basis set group =>   2
Atom  31C    basis set group =>   1
Atom  32H    basis set group =>   2
Atom  33H    basis set group =>   2
Atom  34C    basis set group =>   1
Atom  35H    basis set group =>   2
Atom  36H    basis set group =>   2
Atom  37H    basis set group =>   2
Atom  38C    basis set group =>   1
Atom  39C    basis set group =>   1
Atom  40C    basis set group =>   1
Atom  41C    basis set group =>   1
Atom  42C    basis set group =>   1
Atom  43C    basis set group =>   1
Atom  44H    basis set group =>   2
Atom  45H    basis set group =>   2
Atom  46H    basis set group =>   2
Atom  47H    basis set group =>   2
Atom  48H    basis set group =>   2
----------------------------------
AUXILIARY/JK BASIS SET INFORMATION
----------------------------------
There are 2 groups of distinct atoms

 Group   1 Type C   : 17s13p12d2f contracted to 17s13p12d2f pattern {11111111111111111/1111111111111/111111111111/11}
 Group   2 Type H   : 15s6p1d contracted to 15s6p1d pattern {111111111111111/111111/1}

Atom   0C    basis set group =>   1
Atom   1C    basis set group =>   1
Atom   2C    basis set group =>   1
Atom   3C    basis set group =>   1
Atom   4C    basis set group =>   1
Atom   5C    basis set group =>   1
Atom   6C    basis set group =>   1
Atom   7C    basis set group =>   1
Atom   8C    basis set group =>   1
Atom   9H    basis set group =>   2
Atom  10H    basis set group =>   2
Atom  11C    basis set group =>   1
Atom  12H    basis set group =>   2
Atom  13C    basis set group =>   1
Atom  14H    basis set group =>   2
Atom  15H    basis set group =>   2
Atom  16C    basis set group =>   1
Atom  17H    basis set group =>   2
Atom  18H    basis set group =>   2
Atom  19C    basis set group =>   1
Atom  20H    basis set group =>   2
Atom  21H    basis set group =>   2
Atom  22C    basis set group =>   1
Atom  23H    basis set group =>   2
Atom  24H    basis set group =>   2
Atom  25C    basis set group =>   1
Atom  26H    basis set group =>   2
Atom  27H    basis set group =>   2
Atom  28C    basis set group =>   1
Atom  29H    basis set group =>   2
Atom  30H    basis set group =>   2
Atom  31C    basis set group =>   1
Atom  32H    basis set group =>   2
Atom  33H    basis set group =>   2
Atom  34C    basis set group =>   1
Atom  35H    basis set group =>   2
Atom  36H    basis set group =>   2
Atom  37H    basis set group =>   2
Atom  38C    basis set group =>   1
Atom  39C    basis set group =>   1
Atom  40C    basis set group =>   1
Atom  41C    basis set group =>   1
Atom  42C    basis set group =>   1
Atom  43C    basis set group =>   1
Atom  44H    basis set group =>   2
Atom  45H    basis set group =>   2
Atom  46H    basis set group =>   2
Atom  47H    basis set group =>   2
Atom  48H    basis set group =>   2

Checking for AutoStart:
The File: EPRII_i.gbw exists
Trying to determine its content:
     ... Fine, the file contains calculation information
     ... Fine, the calculation information was read
     ... Fine, the file contains a basis set
     ... Fine, the basis set was read
     ... Fine, the file contains a geometry
     ... Fine, the geometry was read
     ... Fine, the file contains a set of orbitals
     ... Fine, the orbitals can be read
     => possible old guess file was deleted
     => GBW file was renamed to GES file
     => GES file is set as startup file
     => Guess is set to MORead
     ... now leaving AutoStart



           ************************************************************
           *        Program running with 16 parallel MPI-processes    *
           *              working on a common directory               *
           ************************************************************
------------------------------------------------------------------------------
                           ORCA GTO INTEGRAL CALCULATION
                           -- RI-GTO INTEGRALS CHOSEN --
------------------------------------------------------------------------------
------------------------------------------------------------------------------
                   ___                                                        
                  /   \      - P O W E R E D   B Y -                         
                 /     \                                                     
                 |  |  |   _    _      __       _____    __    __             
                 |  |  |  | |  | |    /  \     |  _  \  |  |  /  |          
                  \  \/   | |  | |   /    \    | | | |  |  | /  /          
                 / \  \   | |__| |  /  /\  \   | |_| |  |  |/  /          
                |  |  |   |  __  | /  /__\  \  |    /   |      \           
                |  |  |   | |  | | |   __   |  |    \   |  |\   \          
                \     /   | |  | | |  |  |  |  | |\  \  |  | \   \       
                 \___/    |_|  |_| |__|  |__|  |_| \__\ |__|  \__/        
                                                                              
                      - O R C A' S   B I G   F R I E N D -                    
                                      &                                       
                       - I N T E G R A L  F E E D E R -                       
                                                                              
 v1 FN, 2020, v2 2021                                                         
------------------------------------------------------------------------------


Reading SHARK input file EPRII_i.SHARKINP.tmp ... ok
----------------------
SHARK INTEGRAL PACKAGE
----------------------

Number of atoms                             ...     49
Number of basis functions                   ...    583
Number of shells                            ...    341
Maximum angular momentum                    ...      2
Integral batch strategy                     ... SHARK/LIBINT Hybrid
RI-J (if used) integral strategy            ... SPLIT-RIJ (Revised 2003 algorithm where possible)
Printlevel                                  ...      1
Contraction scheme used                     ... SEGMENTED contraction
Coulomb Range Separation                    ... NOT USED
Exchange Range Separation                   ... NOT USED
Finite Nucleus Model                        ... NOT USED
Auxiliary Coulomb fitting basis             ... AVAILABLE
   # of basis functions in Aux-J            ...   4070
   # of shells in Aux-J                     ...   1606
   Maximum angular momentum in Aux-J        ...      3
Auxiliary J/K fitting basis                 ... AVAILABLE
   # of basis functions in Aux-JK           ...   4070
   # of shells in Aux-JK                    ...   1606
   Maximum angular momentum in Aux-JK       ...      3
Auxiliary Correlation fitting basis         ... AVAILABLE
   # of basis functions in Aux-C            ...   4070
   # of shells in Aux-C                     ...   1606
   Maximum angular momentum in Aux-C        ...      3
Auxiliary 'external' fitting basis          ... NOT available
Integral threshold                          ...     1.000000e-10
Primitive cut-off                           ...     1.000000e-11
Primitive pair pre-selection threshold      ...     1.000000e-11

Calculating pre-screening integrals         ... done (  0.0 sec) Dimension = 341
Organizing shell pair data                  ... done (  0.2 sec)
Shell pair information
Total number of shell pairs                 ...     58311
Shell pairs after pre-screening             ...     29270
Total number of primitive shell pairs       ...    156979
Primitive shell pairs kept                  ...     55129
          la=0 lb=0:  13414 shell pairs
          la=1 lb=0:  10056 shell pairs
          la=1 lb=1:   1809 shell pairs
          la=2 lb=0:   2774 shell pairs
          la=2 lb=1:   1054 shell pairs
          la=2 lb=2:    163 shell pairs

Calculating one electron integrals          ... done (  0.0 sec)
Calculating RI/J V-Matrix + Cholesky decomp.... done (  1.0 sec)
Calculating RI/JK V-Matrix + Cholesky decomp... done (  0.9 sec)
Calculating RI/C V-Matrix + Cholesky decomp.... done (  1.0 sec)
Calculating Nuclear repulsion               ... done (  0.0 sec) ENN=   1720.795113198917 Eh

SHARK setup successfully completed in   3.5 seconds

Maximum memory used throughout the entire GTOINT-calculation: 59.3 MB


           ************************************************************
           *        Program running with 16 parallel MPI-processes    *
           *              working on a common directory               *
           ************************************************************
-------------------------------------------------------------------------------
                                 ORCA SCF
-------------------------------------------------------------------------------

------------
SCF SETTINGS
------------
Hamiltonian:
 Density Functional     Method          .... DFT(GTOs)
 Exchange Functional    Exchange        .... B88
   X-Alpha parameter    XAlpha          ....  0.666667
   Becke's b parameter  XBeta           ....  0.004200
 Correlation Functional Correlation     .... LYP
 LDA part of GGA corr.  LDAOpt          .... VWN-5
 Gradients option       PostSCFGGA      .... off
 Hybrid DFT is turned on
   Fraction HF Exchange ScalHFX         ....  0.200000
   Scaling of DF-GGA-X  ScalDFX         ....  0.720000
   Scaling of DF-GGA-C  ScalDFC         ....  0.810000
   Scaling of DF-LDA-C  ScalLDAC        ....  1.000000
   Perturbative correction              ....  0.000000
   Density functional embedding theory  .... OFF
   NL short-range parameter             ....  4.800000
 RI-approximation to the Coulomb term is turned on
   Number of AuxJ basis functions       .... 4070
   RIJ-COSX (HFX calculated with COS-X)).... on


General Settings:
 Integral files         IntName         .... EPRII_i
 Hartree-Fock type      HFTyp           .... UHF
 Total Charge           Charge          ....    0
 Multiplicity           Mult            ....    2
 Number of Electrons    NEL             ....  169
 Basis Dimension        Dim             ....  583
 Nuclear Repulsion      ENuc            ....   1720.7951131989 Eh

Convergence Acceleration:
 DIIS                   CNVDIIS         .... on
   Start iteration      DIISMaxIt       ....    12
   Startup error        DIISStart       ....  0.200000
   # of expansion vecs  DIISMaxEq       ....     5
   Bias factor          DIISBfac        ....   1.050
   Max. coefficient     DIISMaxC        ....  10.000
 Trust-Rad. Augm. Hess. CNVTRAH         .... auto
   Auto Start mean grad. ratio tolernc. ....  1.125000
   Auto Start start iteration           ....     1
   Auto Start num. interpolation iter.  ....    10
   Max. Number of Micro iterations      ....    16
   Max. Number of Macro iterations      .... Maxiter - #DIIS iter
   Number of Davidson start vectors     ....     2
   Converg. threshold I  (grad. norm)   ....   5.000e-05
   Converg. threshold II (energy diff.) ....   1.000e-06
   Grad. Scal. Fac. for Micro threshold ....   0.100
   Minimum threshold for Micro iter.    ....   0.010
   NR start threshold (gradient norm)   ....   0.001
   Initial trust radius                 ....   0.400
   Minimum AH scaling param. (alpha)    ....   1.000
   Maximum AH scaling param. (alpha)    .... 1000.000
   Orbital update algorithm             .... Taylor
   White noise on init. David. guess    .... on
   Maximum white noise                  ....   0.010
   Quad. conv. algorithm                .... NR
 SOSCF                  CNVSOSCF        .... off
 Level Shifting         CNVShift        .... on
   Level shift para.    LevelShift      ....    0.2500
   Turn off err/grad.   ShiftErr        ....    0.0010
 Zerner damping         CNVZerner       .... off
 Static damping         CNVDamp         .... on
   Fraction old density DampFac         ....    0.7000
   Max. Damping (<1)    DampMax         ....    0.9800
   Min. Damping (>=0)   DampMin         ....    0.0000
   Turn off err/grad.   DampErr         ....    0.1000
 Fernandez-Rico         CNVRico         .... off

SCF Procedure:
 Maximum # iterations   MaxIter         ....   125
 SCF integral mode      SCFMode         .... Direct
   Integral package                     .... SHARK and LIBINT hybrid scheme
 Reset frequency        DirectResetFreq ....    20
 Integral Threshold     Thresh          ....  1.000e-10 Eh
 Primitive CutOff       TCut            ....  1.000e-11 Eh

Convergence Tolerance:
 Convergence Check Mode ConvCheckMode   .... Total+1el-Energy
 Convergence forced     ConvForced      .... 0
 Energy Change          TolE            ....  1.000e-06 Eh
 1-El. energy change                    ....  1.000e-03 Eh
 DIIS Error             TolErr          ....  1.000e-06


Diagonalization of the overlap matrix:
Smallest eigenvalue                        ... 7.520e-05
Time for diagonalization                   ...    0.064 sec
Threshold for overlap eigenvalues          ... 1.000e-08
Number of eigenvalues below threshold      ... 0
Time for construction of square roots      ...    0.064 sec
Total time needed                          ...    0.129 sec

---------------------
INITIAL GUESS: MOREAD
---------------------
Guess MOs are being read from file: EPRII_i.ges
Input geometry compatible with but different from current geometry
Input basis set matches current basis set (good)
MOs were renormalized
MOs were reorthogonalized (Cholesky)
                      ------------------
                      INITIAL GUESS DONE (   0.3 sec)
                      ------------------
-------------------
DFT GRID GENERATION
-------------------

General Integration Accuracy     IntAcc      ... 4.388
Radial Grid Type                 RadialGrid  ... OptM3 with GC (2021)
Angular Grid (max. ang.)         AngularGrid ... 4 (Lebedev-302)
Angular grid pruning method      GridPruning ... 4 (adaptive)
Weight generation scheme         WeightScheme... Becke
Basis function cutoff            BFCut       ... 1.0000e-10
Integration weight cutoff        WCut        ... 1.0000e-14
Angular grids for H and He will be reduced by one unit
Partially contracted basis set               ... off
Rotationally invariant grid construction     ... off

Total number of grid points                  ...   223192
Total number of batches                      ...     3513
Average number of points per batch           ...       63
Average number of grid points per atom       ...     4555
Time for grid setup =    1.500 sec

--------------------
COSX GRID GENERATION
--------------------

GRIDX 1
-------
General Integration Accuracy     IntAcc      ... 3.816
Radial Grid Type                 RadialGrid  ... OptM3 with GC (2021)
Angular Grid (max. ang.)         AngularGrid ... 1 (Lebedev-50)
Angular grid pruning method      GridPruning ... 4 (adaptive)
Weight generation scheme         WeightScheme... Becke
Basis function cutoff            BFCut       ... 1.0000e-10
Integration weight cutoff        WCut        ... 1.0000e-14
Angular grids for H and He will be reduced by one unit
Partially contracted basis set               ... on
Rotationally invariant grid construction     ... off

Total number of grid points                  ...    28454
Total number of batches                      ...      471
Average number of points per batch           ...       60
Average number of grid points per atom       ...      581
UseSFitting                                  ... on

GRIDX 2
-------
General Integration Accuracy     IntAcc      ... 4.020
Radial Grid Type                 RadialGrid  ... OptM3 with GC (2021)
Angular Grid (max. ang.)         AngularGrid ... 2 (Lebedev-110)
Angular grid pruning method      GridPruning ... 4 (adaptive)
Weight generation scheme         WeightScheme... Becke
Basis function cutoff            BFCut       ... 1.0000e-10
Integration weight cutoff        WCut        ... 1.0000e-14
Angular grids for H and He will be reduced by one unit
Partially contracted basis set               ... on
Rotationally invariant grid construction     ... off

Total number of grid points                  ...    60644
Total number of batches                      ...      973
Average number of points per batch           ...       62
Average number of grid points per atom       ...     1238
UseSFitting                                  ... on

GRIDX 3
-------
General Integration Accuracy     IntAcc      ... 4.338
Radial Grid Type                 RadialGrid  ... OptM3 with GC (2021)
Angular Grid (max. ang.)         AngularGrid ... 3 (Lebedev-194)
Angular grid pruning method      GridPruning ... 4 (adaptive)
Weight generation scheme         WeightScheme... Becke
Basis function cutoff            BFCut       ... 1.0000e-10
Integration weight cutoff        WCut        ... 1.0000e-14
Angular grids for H and He will be reduced by one unit
Partially contracted basis set               ... on
Rotationally invariant grid construction     ... off

Total number of grid points                  ...   132637
Total number of batches                      ...     2097
Average number of points per batch           ...       63
Average number of grid points per atom       ...     2707
UseSFitting                                  ... on

Time for X-Grid setup             =    2.556 sec

--------------
SCF ITERATIONS
--------------
ITER       Energy         Delta-E        Max-DP      RMS-DP      [F,P]     Damp
               ***  Starting incremental Fock matrix formation  ***
  0   -928.9722869682   0.000000000000 0.00596905  0.00004678  0.0035496 0.7000
  1   -928.9724624647  -0.000175496495 0.00534889  0.00004055  0.0028002 0.7000
                               ***Turning on DIIS***
  2   -928.9725881442  -0.000125679496 0.01343444  0.00009945  0.0020990 0.0000
  3   -928.9728826283  -0.000294484033 0.00067361  0.00001025  0.0003352 0.0000
               *** Restarting incremental Fock matrix formation ***
                                   *** Resetting DIIS ***
  4   -928.9728778686   0.000004759612 0.00091550  0.00001165  0.0003865 0.0000
  5   -928.9728733269   0.000004541786 0.00046240  0.00000629  0.0004564 0.0000
  6   -928.9728843251  -0.000010998198 0.00020598  0.00000136  0.0001453 0.0000
  7   -928.9728844280  -0.000000102938 0.00013595  0.00000101  0.0001622 0.0000
                 **** Energy Check signals convergence ****

               *****************************************************
               *                     SUCCESS                       *
               *           SCF CONVERGED AFTER   8 CYCLES          *
               *****************************************************

Old exchange energy                            =    -26.606878516 Eh
New exchange energy                            =    -26.606894698 Eh
Exchange energy change after final integration =     -0.000016182 Eh
Total energy after final integration           =   -928.972900894 Eh
Final COS-X integration done in                =     9.645 sec

----------------
TOTAL SCF ENERGY
----------------

Total Energy       :         -928.97290089 Eh          -25278.63777 eV

Components:
Nuclear Repulsion  :         1720.79511320 Eh           46825.21558 eV
Electronic Energy  :        -2649.76801409 Eh          -72103.85335 eV
One Electron Energy:        -4670.44340093 Eh         -127089.22603 eV
Two Electron Energy:         2020.67538683 Eh           54985.37268 eV
Max COSX asymmetry :            0.00000321 Eh               0.00009 eV

Virial components:
Potential Energy   :        -1850.51658340 Eh          -50355.11624 eV
Kinetic Energy     :          921.54368251 Eh           25076.47846 eV
Virial Ratio       :            2.00806171


DFT components:
N(Alpha)           :       85.000154859832 electrons
N(Beta)            :       84.000145114569 electrons
N(Total)           :      169.000299974401 electrons
E(X)               :     -105.554394568308 Eh       
E(C)               :       -6.576108713035 Eh       
E(XC)              :     -112.130503281343 Eh       
DFET-embed. en.    :        0.000000000000 Eh       

---------------
SCF CONVERGENCE
---------------

  Last Energy change         ...   -2.8397e-07  Tolerance :   1.0000e-06
  Last MAX-Density change    ...    0.0000e+00  Tolerance :   1.0000e-05
  Last RMS-Density change    ...    0.0000e+00  Tolerance :   1.0000e-06
  Last DIIS Error            ...    4.6181e-05  Tolerance :   1.0000e-06

             **** THE GBW FILE WAS UPDATED (EPRII_i.gbw) ****
             **** DENSITY EPRII_i.scfp WAS UPDATED ****
             **** ENERGY FILE WAS UPDATED (EPRII_i.en.tmp) ****
----------------------
UHF SPIN CONTAMINATION
----------------------

Warning: in a DFT calculation there is little theoretical justification to 
         calculate <S**2> as in Hartree-Fock theory. We will do it anyways
         but you should keep in mind that the values have only limited relevance

Expectation value of <S**2>     :     0.787752
Ideal value S*(S+1) for S=0.5   :     0.750000
Deviation                       :     0.037752

             **** THE GBW FILE WAS UPDATED (EPRII_i.gbw) ****
             **** DENSITY EPRII_i.scfp WAS UPDATED ****
----------------
ORBITAL ENERGIES
----------------
                 SPIN UP ORBITALS
  NO   OCC          E(Eh)            E(eV) 
   0   1.0000     -10.229116      -278.3484 
   1   1.0000     -10.224362      -278.2190 
   2   1.0000     -10.222700      -278.1738 
   3   1.0000     -10.211960      -277.8816 
   4   1.0000     -10.209360      -277.8108 
   5   1.0000     -10.206196      -277.7247 
   6   1.0000     -10.206066      -277.7212 
   7   1.0000     -10.205866      -277.7157 
   8   1.0000     -10.205178      -277.6970 
   9   1.0000     -10.204989      -277.6919 
  10   1.0000     -10.204480      -277.6780 
  11   1.0000     -10.203194      -277.6430 
  12   1.0000     -10.201505      -277.5971 
  13   1.0000     -10.201100      -277.5860 
  14   1.0000     -10.197825      -277.4969 
  15   1.0000     -10.197484      -277.4876 
  16   1.0000     -10.196189      -277.4524 
  17   1.0000     -10.188503      -277.2433 
  18   1.0000     -10.187131      -277.2059 
  19   1.0000     -10.183375      -277.1037 
  20   1.0000     -10.181442      -277.0511 
  21   1.0000     -10.181206      -277.0447 
  22   1.0000     -10.172743      -276.8144 
  23   1.0000     -10.171031      -276.7678 
  24   1.0000      -0.871903       -23.7257 
  25   1.0000      -0.861361       -23.4388 
  26   1.0000      -0.817839       -22.2545 
  27   1.0000      -0.796837       -21.6830 
  28   1.0000      -0.793860       -21.6020 
  29   1.0000      -0.777505       -21.1570 
  30   1.0000      -0.765895       -20.8411 
  31   1.0000      -0.750987       -20.4354 
  32   1.0000      -0.744098       -20.2479 
  33   1.0000      -0.728610       -19.8265 
  34   1.0000      -0.714220       -19.4349 
  35   1.0000      -0.696539       -18.9538 
  36   1.0000      -0.655992       -17.8504 
  37   1.0000      -0.643610       -17.5135 
  38   1.0000      -0.620521       -16.8852 
  39   1.0000      -0.611964       -16.6524 
  40   1.0000      -0.610379       -16.6092 
  41   1.0000      -0.593166       -16.1409 
  42   1.0000      -0.580892       -15.8069 
  43   1.0000      -0.562927       -15.3180 
  44   1.0000      -0.542635       -14.7659 
  45   1.0000      -0.531805       -14.4711 
  46   1.0000      -0.507180       -13.8011 
  47   1.0000      -0.491331       -13.3698 
  48   1.0000      -0.481790       -13.1102 
  49   1.0000      -0.476126       -12.9560 
  50   1.0000      -0.471363       -12.8265 
  51   1.0000      -0.463149       -12.6029 
  52   1.0000      -0.456111       -12.4114 
  53   1.0000      -0.438850       -11.9417 
  54   1.0000      -0.432024       -11.7560 
  55   1.0000      -0.428549       -11.6614 
  56   1.0000      -0.426495       -11.6055 
  57   1.0000      -0.425124       -11.5682 
  58   1.0000      -0.422859       -11.5066 
  59   1.0000      -0.411724       -11.2036 
  60   1.0000      -0.399147       -10.8613 
  61   1.0000      -0.396731       -10.7956 
  62   1.0000      -0.383334       -10.4310 
  63   1.0000      -0.378501       -10.2995 
  64   1.0000      -0.376831       -10.2541 
  65   1.0000      -0.364625        -9.9220 
  66   1.0000      -0.363349        -9.8872 
  67   1.0000      -0.356349        -9.6968 
  68   1.0000      -0.355978        -9.6867 
  69   1.0000      -0.353150        -9.6097 
  70   1.0000      -0.338156        -9.2017 
  71   1.0000      -0.333121        -9.0647 
  72   1.0000      -0.332034        -9.0351 
  73   1.0000      -0.331994        -9.0340 
  74   1.0000      -0.327158        -8.9024 
  75   1.0000      -0.323353        -8.7989 
  76   1.0000      -0.322110        -8.7650 
  77   1.0000      -0.297306        -8.0901 
  78   1.0000      -0.275431        -7.4949 
  79   1.0000      -0.274751        -7.4764 
  80   1.0000      -0.269278        -7.3274 
  81   1.0000      -0.258845        -7.0435 
  82   1.0000      -0.256143        -6.9700 
  83   1.0000      -0.215391        -5.8611 
  84   1.0000      -0.174047        -4.7361 
  85   0.0000      -0.062615        -1.7038 
  86   0.0000      -0.015811        -0.4302 
  87   0.0000      -0.013288        -0.3616 
  88   0.0000       0.013408         0.3649 
  89   0.0000       0.014445         0.3931 
  90   0.0000       0.021333         0.5805 
  91   0.0000       0.022117         0.6018 
  92   0.0000       0.029915         0.8140 
  93   0.0000       0.033932         0.9233 
  94   0.0000       0.035714         0.9718 
  95   0.0000       0.039421         1.0727 
  96   0.0000       0.044724         1.2170 
  97   0.0000       0.048059         1.3078 
  98   0.0000       0.050629         1.3777 
  99   0.0000       0.055376         1.5069 
 100   0.0000       0.059806         1.6274 
 101   0.0000       0.060919         1.6577 
 102   0.0000       0.067689         1.8419 
 103   0.0000       0.076896         2.0925 
 104   0.0000       0.081443         2.2162 
 105   0.0000       0.083778         2.2797 
 106   0.0000       0.091298         2.4844 
 107   0.0000       0.106494         2.8978 
 108   0.0000       0.110267         3.0005 
 109   0.0000       0.111857         3.0438 
 110   0.0000       0.117772         3.2047 
 111   0.0000       0.127615         3.4726 
 112   0.0000       0.138229         3.7614 
 113   0.0000       0.152609         4.1527 
 114   0.0000       0.153995         4.1904 
 115   0.0000       0.157826         4.2947 
 116   0.0000       0.160901         4.3783 
 117   0.0000       0.174406         4.7458 
 118   0.0000       0.176275         4.7967 
 119   0.0000       0.183126         4.9831 
 120   0.0000       0.186494         5.0748 
 121   0.0000       0.191660         5.2153 
 122   0.0000       0.195063         5.3079 
 123   0.0000       0.199970         5.4414 
 124   0.0000       0.201825         5.4919 
 125   0.0000       0.202172         5.5014 
 126   0.0000       0.202907         5.5214 
 127   0.0000       0.206025         5.6062 
 128   0.0000       0.217487         5.9181 
 129   0.0000       0.218833         5.9548 
 130   0.0000       0.218891         5.9563 
 131   0.0000       0.221739         6.0338 
 132   0.0000       0.224986         6.1222 
 133   0.0000       0.236082         6.4241 
 134   0.0000       0.238460         6.4888 
 135   0.0000       0.246421         6.7055 
 136   0.0000       0.247924         6.7464 
 137   0.0000       0.251267         6.8373 
 138   0.0000       0.253571         6.9000 
 139   0.0000       0.253654         6.9023 
 140   0.0000       0.259873         7.0715 
 141   0.0000       0.264248         7.1906 
 142   0.0000       0.270556         7.3622 
 143   0.0000       0.275334         7.4922 
 144   0.0000       0.276851         7.5335 
 145   0.0000       0.277032         7.5384 
 146   0.0000       0.284257         7.7350 
 147   0.0000       0.284629         7.7451 
 148   0.0000       0.288250         7.8437 
 149   0.0000       0.291513         7.9325 
 150   0.0000       0.293187         7.9780 
 151   0.0000       0.297390         8.0924 
 152   0.0000       0.298357         8.1187 
 153   0.0000       0.303103         8.2479 
 154   0.0000       0.307946         8.3796 
 155   0.0000       0.308882         8.4051 
 156   0.0000       0.311089         8.4652 
 157   0.0000       0.312037         8.4910 
 158   0.0000       0.315458         8.5841 
 159   0.0000       0.317728         8.6458 
 160   0.0000       0.319641         8.6979 
 161   0.0000       0.322452         8.7744 
 162   0.0000       0.328825         8.9478 
 163   0.0000       0.334486         9.1018 
 164   0.0000       0.337745         9.1905 
 165   0.0000       0.345128         9.3914 
 166   0.0000       0.346422         9.4266 
 167   0.0000       0.348078         9.4717 
 168   0.0000       0.349271         9.5041 
 169   0.0000       0.356895         9.7116 
 170   0.0000       0.359227         9.7751 
 171   0.0000       0.369824        10.0634 
 172   0.0000       0.372002        10.1227 
 173   0.0000       0.376949        10.2573 
 174   0.0000       0.377242        10.2653 
 175   0.0000       0.383825        10.4444 
 176   0.0000       0.387998        10.5580 
 177   0.0000       0.397681        10.8214 
 178   0.0000       0.400509        10.8984 
 179   0.0000       0.404639        11.0108 
 180   0.0000       0.406695        11.0667 
 181   0.0000       0.413595        11.2545 
 182   0.0000       0.416872        11.3437 
 183   0.0000       0.419874        11.4253 
 184   0.0000       0.426984        11.6188 
 185   0.0000       0.427148        11.6233 
 186   0.0000       0.429784        11.6950 
 187   0.0000       0.438387        11.9291 
 188   0.0000       0.444940        12.1074 
 189   0.0000       0.447191        12.1687 
 190   0.0000       0.448764        12.2115 
 191   0.0000       0.454886        12.3781 
 192   0.0000       0.458514        12.4768 
 193   0.0000       0.466691        12.6993 
 194   0.0000       0.469738        12.7822 
 195   0.0000       0.472496        12.8573 
 196   0.0000       0.475118        12.9286 
 197   0.0000       0.480257        13.0685 
 198   0.0000       0.482950        13.1417 
 199   0.0000       0.488224        13.2852 
 200   0.0000       0.500930        13.6310 
 201   0.0000       0.502704        13.6793 
 202   0.0000       0.510472        13.8906 
 203   0.0000       0.516301        14.0493 
 204   0.0000       0.521824        14.1996 
 205   0.0000       0.523406        14.2426 
 206   0.0000       0.531511        14.4632 
 207   0.0000       0.533851        14.5268 
 208   0.0000       0.536351        14.5949 
 209   0.0000       0.545837        14.8530 
 210   0.0000       0.549200        14.9445 
 211   0.0000       0.554982        15.1018 
 212   0.0000       0.556639        15.1469 
 213   0.0000       0.569793        15.5049 
 214   0.0000       0.584998        15.9186 
 215   0.0000       0.586036        15.9468 
 216   0.0000       0.594062        16.1652 
 217   0.0000       0.594605        16.1800 
 218   0.0000       0.603330        16.4174 
 219   0.0000       0.605597        16.4791 
 220   0.0000       0.610137        16.6027 
 221   0.0000       0.627267        17.0688 
 222   0.0000       0.632364        17.2075 
 223   0.0000       0.646488        17.5918 
 224   0.0000       0.646699        17.5976 
 225   0.0000       0.663501        18.0548 
 226   0.0000       0.668649        18.1949 
 227   0.0000       0.671352        18.2684 
 228   0.0000       0.675786        18.3891 
 229   0.0000       0.681399        18.5418 
 230   0.0000       0.705564        19.1994 
 231   0.0000       0.722766        19.6675 
 232   0.0000       0.725303        19.7365 
 233   0.0000       0.762212        20.7408 
 234   0.0000       0.774399        21.0725 
 235   0.0000       0.777264        21.1504 
 236   0.0000       0.793822        21.6010 
 237   0.0000       0.795644        21.6506 
 238   0.0000       0.813667        22.1410 
 239   0.0000       0.832090        22.6423 
 240   0.0000       0.839259        22.8374 
 241   0.0000       0.841262        22.8919 
 242   0.0000       0.848145        23.0792 
 243   0.0000       0.850763        23.1504 
 244   0.0000       0.853578        23.2270 
 245   0.0000       0.860308        23.4102 
 246   0.0000       0.864482        23.5238 
 247   0.0000       0.868236        23.6259 
 248   0.0000       0.869305        23.6550 
 249   0.0000       0.870038        23.6749 
 250   0.0000       0.886072        24.1112 
 251   0.0000       0.895068        24.3560 
 252   0.0000       0.895739        24.3743 
 253   0.0000       0.901182        24.5224 
 254   0.0000       0.912971        24.8432 
 255   0.0000       0.914698        24.8902 
 256   0.0000       0.917216        24.9587 
 257   0.0000       0.928210        25.2579 
 258   0.0000       0.929698        25.2984 
 259   0.0000       0.930977        25.3332 
 260   0.0000       0.936587        25.4858 
 261   0.0000       0.937516        25.5111 
 262   0.0000       0.941372        25.6160 
 263   0.0000       0.948672        25.8147 
 264   0.0000       0.958609        26.0851 
 265   0.0000       0.959048        26.0970 
 266   0.0000       0.962845        26.2003 
 267   0.0000       0.971039        26.4233 
 268   0.0000       0.975888        26.5553 
 269   0.0000       0.978865        26.6363 
 270   0.0000       0.979809        26.6620 
 271   0.0000       0.992716        27.0132 
 272   0.0000       0.994992        27.0751 
 273   0.0000       0.996050        27.1039 
 274   0.0000       1.001519        27.2527 
 275   0.0000       1.003027        27.2938 
 276   0.0000       1.004503        27.3339 
 277   0.0000       1.012973        27.5644 
 278   0.0000       1.027735        27.9661 
 279   0.0000       1.028902        27.9978 
 280   0.0000       1.029186        28.0056 
 281   0.0000       1.034155        28.1408 
 282   0.0000       1.037171        28.2229 
 283   0.0000       1.041906        28.3517 
 284   0.0000       1.051612        28.6158 
 285   0.0000       1.056045        28.7364 
 286   0.0000       1.063492        28.9391 
 287   0.0000       1.065658        28.9980 
 288   0.0000       1.066967        29.0336 
 289   0.0000       1.093400        29.7529 
 290   0.0000       1.102067        29.9888 
 291   0.0000       1.112161        30.2634 
 292   0.0000       1.113844        30.3092 
 293   0.0000       1.115252        30.3475 
 294   0.0000       1.124741        30.6058 
 295   0.0000       1.129589        30.7377 
 296   0.0000       1.139119        30.9970 
 297   0.0000       1.150137        31.2968 
 298   0.0000       1.155321        31.4379 
 299   0.0000       1.172151        31.8959 
 300   0.0000       1.178274        32.0625 
 301   0.0000       1.179673        32.1005 
 302   0.0000       1.188196        32.3325 
 303   0.0000       1.189424        32.3659 
 304   0.0000       1.200061        32.6553 
 305   0.0000       1.203574        32.7509 
 306   0.0000       1.217736        33.1363 
 307   0.0000       1.220880        33.2218 
 308   0.0000       1.241395        33.7801 
 309   0.0000       1.241672        33.7876 
 310   0.0000       1.252247        34.0754 
 311   0.0000       1.256039        34.1786 
 312   0.0000       1.263066        34.3698 
 313   0.0000       1.273799        34.6618 
 314   0.0000       1.287088        35.0235 
 315   0.0000       1.298029        35.3212 
 316   0.0000       1.306967        35.5644 
 317   0.0000       1.310907        35.6716 
 318   0.0000       1.320181        35.9240 
 319   0.0000       1.320912        35.9438 
 320   0.0000       1.331687        36.2371 
 321   0.0000       1.339437        36.4479 
 322   0.0000       1.351928        36.7878 
 323   0.0000       1.352507        36.8036 
 324   0.0000       1.366196        37.1761 
 325   0.0000       1.380146        37.5557 
 326   0.0000       1.385598        37.7040 
 327   0.0000       1.398263        38.0487 
 328   0.0000       1.400897        38.1203 
 329   0.0000       1.406101        38.2620 
 330   0.0000       1.423694        38.7407 
 331   0.0000       1.430622        38.9292 
 332   0.0000       1.432288        38.9745 
 333   0.0000       1.432513        38.9807 
 334   0.0000       1.439757        39.1778 
 335   0.0000       1.446396        39.3584 
 336   0.0000       1.447495        39.3883 
 337   0.0000       1.453479        39.5512 
 338   0.0000       1.460012        39.7290 
 339   0.0000       1.466014        39.8923 
 340   0.0000       1.477648        40.2089 
 341   0.0000       1.486834        40.4588 
 342   0.0000       1.497085        40.7378 
 343   0.0000       1.503029        40.8995 
 344   0.0000       1.508807        41.0567 
 345   0.0000       1.512045        41.1448 
 346   0.0000       1.517614        41.2964 
 347   0.0000       1.519502        41.3478 
 348   0.0000       1.540830        41.9281 
 349   0.0000       1.559502        42.4362 
 350   0.0000       1.561992        42.5040 
 351   0.0000       1.562779        42.5254 
 352   0.0000       1.563834        42.5541 
 353   0.0000       1.564671        42.5769 
 354   0.0000       1.577678        42.9308 
 355   0.0000       1.587141        43.1883 
 356   0.0000       1.588353        43.2213 
 357   0.0000       1.590988        43.2930 
 358   0.0000       1.600736        43.5582 
 359   0.0000       1.601518        43.5795 
 360   0.0000       1.604543        43.6618 
 361   0.0000       1.615375        43.9566 
 362   0.0000       1.619215        44.0611 
 363   0.0000       1.627043        44.2741 
 364   0.0000       1.636833        44.5405 
 365   0.0000       1.641812        44.6760 
 366   0.0000       1.642271        44.6885 
 367   0.0000       1.655682        45.0534 
 368   0.0000       1.657463        45.1019 
 369   0.0000       1.659624        45.1607 
 370   0.0000       1.679127        45.6914 
 371   0.0000       1.685009        45.8514 
 372   0.0000       1.685631        45.8683 
 373   0.0000       1.690342        45.9966 
 374   0.0000       1.696329        46.1594 
 375   0.0000       1.699696        46.2511 
 376   0.0000       1.704889        46.3924 
 377   0.0000       1.709905        46.5289 
 378   0.0000       1.714244        46.6469 
 379   0.0000       1.723521        46.8994 
 380   0.0000       1.737306        47.2745 
 381   0.0000       1.738464        47.3060 
 382   0.0000       1.748819        47.5878 
 383   0.0000       1.755737        47.7760 
 384   0.0000       1.766965        48.0815 
 385   0.0000       1.767655        48.1003 
 386   0.0000       1.775845        48.3232 
 387   0.0000       1.777520        48.3688 
 388   0.0000       1.789856        48.7045 
 389   0.0000       1.791134        48.7392 
 390   0.0000       1.800377        48.9907 
 391   0.0000       1.802881        49.0589 
 392   0.0000       1.809639        49.2428 
 393   0.0000       1.814925        49.3866 
 394   0.0000       1.827761        49.7359 
 395   0.0000       1.832264        49.8584 
 396   0.0000       1.836974        49.9866 
 397   0.0000       1.852964        50.4217 
 398   0.0000       1.854581        50.4657 
 399   0.0000       1.868706        50.8501 
 400   0.0000       1.869628        50.8752 
 401   0.0000       1.904996        51.8376 
 402   0.0000       1.924449        52.3669 
 403   0.0000       1.931398        52.5560 
 404   0.0000       1.935459        52.6665 
 405   0.0000       1.942510        52.8584 
 406   0.0000       1.951950        53.1153 
 407   0.0000       1.960164        53.3388 
 408   0.0000       1.973319        53.6967 
 409   0.0000       1.976128        53.7732 
 410   0.0000       2.015394        54.8417 
 411   0.0000       2.024407        55.0869 
 412   0.0000       2.037252        55.4365 
 413   0.0000       2.041997        55.5656 
 414   0.0000       2.044419        55.6315 
 415   0.0000       2.055635        55.9367 
 416   0.0000       2.077043        56.5192 
 417   0.0000       2.086090        56.7654 
 418   0.0000       2.105803        57.3018 
 419   0.0000       2.109438        57.4007 
 420   0.0000       2.116383        57.5897 
 421   0.0000       2.134100        58.0718 
 422   0.0000       2.143141        58.3178 
 423   0.0000       2.148949        58.4759 
 424   0.0000       2.151074        58.5337 
 425   0.0000       2.185834        59.4796 
 426   0.0000       2.199141        59.8417 
 427   0.0000       2.201876        59.9161 
 428   0.0000       2.214675        60.2644 
 429   0.0000       2.217729        60.3475 
 430   0.0000       2.226965        60.5988 
 431   0.0000       2.248829        61.1937 
 432   0.0000       2.258490        61.4566 
 433   0.0000       2.267071        61.6902 
 434   0.0000       2.275499        61.9195 
 435   0.0000       2.283845        62.1466 
 436   0.0000       2.314477        62.9801 
 437   0.0000       2.320597        63.1467 
 438   0.0000       2.325622        63.2834 
 439   0.0000       2.332093        63.4595 
 440   0.0000       2.335861        63.5620 
 441   0.0000       2.359783        64.2129 
 442   0.0000       2.381651        64.8080 
 443   0.0000       2.395710        65.1906 
 444   0.0000       2.403057        65.3905 
 445   0.0000       2.406411        65.4818 
 446   0.0000       2.417086        65.7723 
 447   0.0000       2.422213        65.9118 
 448   0.0000       2.434664        66.2506 
 449   0.0000       2.449693        66.6595 
 450   0.0000       2.459078        66.9149 
 451   0.0000       2.466207        67.1089 
 452   0.0000       2.467190        67.1357 
 453   0.0000       2.477296        67.4107 
 454   0.0000       2.487019        67.6752 
 455   0.0000       2.493502        67.8516 
 456   0.0000       2.506294        68.1997 
 457   0.0000       2.517626        68.5081 
 458   0.0000       2.522169        68.6317 
 459   0.0000       2.528162        68.7948 
 460   0.0000       2.533865        68.9500 
 461   0.0000       2.544952        69.2517 
 462   0.0000       2.552332        69.4525 
 463   0.0000       2.564630        69.7871 
 464   0.0000       2.571204        69.9660 
 465   0.0000       2.575348        70.0788 
 466   0.0000       2.582296        70.2678 
 467   0.0000       2.586305        70.3769 
 468   0.0000       2.601430        70.7885 
 469   0.0000       2.613546        71.1182 
 470   0.0000       2.619373        71.2768 
 471   0.0000       2.631299        71.6013 
 472   0.0000       2.654310        72.2275 
 473   0.0000       2.707967        73.6875 
 474   0.0000       2.747152        74.7538 
 475   0.0000       2.770414        75.3868 
 476   0.0000       2.791141        75.9508 
 477   0.0000       2.793528        76.0158 
 478   0.0000       2.855249        77.6953 
 479   0.0000       2.934454        79.8505 
 480   0.0000       2.952266        80.3352 
 481   0.0000       2.968387        80.7739 
 482   0.0000       3.062019        83.3218 
 483   0.0000       3.286876        89.4404 
 484   0.0000       3.421576        93.1058 
 485   0.0000       4.984150       135.6256 
 486   0.0000       4.991248       135.8188 
 487   0.0000       5.002762       136.1321 
 488   0.0000       5.015014       136.4655 
 489   0.0000       5.015362       136.4749 
 490   0.0000       5.024043       136.7112 
 491   0.0000       5.028982       136.8456 
 492   0.0000       5.030299       136.8814 
 493   0.0000       5.039044       137.1194 
 494   0.0000       5.051351       137.4542 
 495   0.0000       5.089462       138.4913 
 496   0.0000       5.096918       138.6942 
 497   0.0000       5.168059       140.6300 
 498   0.0000       5.200530       141.5136 
 499   0.0000       5.216017       141.9350 
 500   0.0000       5.229032       142.2892 
 501   0.0000       5.250114       142.8629 
 502   0.0000       5.252987       142.9410 
 503   0.0000       5.262311       143.1948 
 504   0.0000       5.287782       143.8879 
 505   0.0000       5.297534       144.1532 
 506   0.0000       5.303733       144.3219 
 507   0.0000       5.316518       144.6698 
 508   0.0000       5.321893       144.8161 
 509   0.0000       5.356106       145.7471 
 510   0.0000       5.368293       146.0787 
 511   0.0000       5.374052       146.2354 
 512   0.0000       5.383928       146.5041 
 513   0.0000       5.405713       147.0969 
 514   0.0000       5.443153       148.1157 
 515   0.0000       5.458356       148.5294 
 516   0.0000       5.482699       149.1918 
 517   0.0000       5.558849       151.2640 
 518   0.0000       5.565715       151.4508 
 519   0.0000       5.590666       152.1298 
 520   0.0000       5.631567       153.2427 
 521   0.0000       5.644897       153.6055 
 522   0.0000       5.650723       153.7640 
 523   0.0000       5.676379       154.4621 
 524   0.0000       5.737515       156.1257 
 525   0.0000       5.744361       156.3120 
 526   0.0000       5.780073       157.2838 
 527   0.0000       5.829123       158.6185 
 528   0.0000       5.849882       159.1834 
 529   0.0000       5.875560       159.8821 
 530   0.0000       5.924400       161.2111 
 531   0.0000       6.102070       166.0458 
 532   0.0000       6.276412       170.7898 
 533   0.0000       6.358980       173.0366 
 534   0.0000      29.611220       805.7623 
 535   0.0000      29.729808       808.9892 
 536   0.0000      29.809927       811.1694 
 537   0.0000      29.835224       811.8577 
 538   0.0000      29.853319       812.3501 
 539   0.0000      29.857873       812.4740 
 540   0.0000      29.955296       815.1250 
 541   0.0000      29.980653       815.8150 
 542   0.0000      29.998055       816.2886 
 543   0.0000      30.036700       817.3402 
 544   0.0000      30.074226       818.3613 
 545   0.0000      30.095899       818.9510 
 546   0.0000      30.102611       819.1337 
 547   0.0000      30.123373       819.6986 
 548   0.0000      30.132703       819.9525 
 549   0.0000      30.172631       821.0390 
 550   0.0000      30.218649       822.2913 
 551   0.0000      30.249183       823.1221 
 552   0.0000      30.255139       823.2842 
 553   0.0000      30.274715       823.8169 
 554   0.0000      30.297223       824.4294 
 555   0.0000      30.402331       827.2895 
 556   0.0000      30.503256       830.0358 
 557   0.0000      30.579231       832.1032 
 558   0.0000      36.608594       996.1705 
 559   0.0000      36.618023       996.4271 
 560   0.0000      36.631998       996.8073 
 561   0.0000      36.639095       997.0005 
 562   0.0000      36.642927       997.1047 
 563   0.0000      36.650109       997.3002 
 564   0.0000      36.654447       997.4182 
 565   0.0000      36.664233       997.6845 
 566   0.0000      36.675151       997.9816 
 567   0.0000      36.705198       998.7992 
 568   0.0000      36.719232       999.1811 
 569   0.0000      36.789535      1001.0941 
 570   0.0000      36.820413      1001.9344 
 571   0.0000      36.827564      1002.1290 
 572   0.0000      36.838574      1002.4286 
 573   0.0000      36.860358      1003.0213 
 574   0.0000      36.873176      1003.3701 
 575   0.0000      36.879452      1003.5409 
 576   0.0000      36.888443      1003.7856 
 577   0.0000      36.921752      1004.6920 
 578   0.0000      36.938226      1005.1402 
 579   0.0000      36.941735      1005.2357 
 580   0.0000      36.973896      1006.1109 
 581   0.0000      37.021449      1007.4048 
 582   0.0000      37.043527      1008.0056 

                 SPIN DOWN ORBITALS
  NO   OCC          E(Eh)            E(eV) 
   0   1.0000     -10.228957      -278.3441 
   1   1.0000     -10.224304      -278.2175 
   2   1.0000     -10.220930      -278.1256 
   3   1.0000     -10.211808      -277.8774 
   4   1.0000     -10.208507      -277.7876 
   5   1.0000     -10.206333      -277.7284 
   6   1.0000     -10.206201      -277.7248 
   7   1.0000     -10.206012      -277.7197 
   8   1.0000     -10.205308      -277.7005 
   9   1.0000     -10.205122      -277.6955 
  10   1.0000     -10.204958      -277.6910 
  11   1.0000     -10.203482      -277.6509 
  12   1.0000     -10.200984      -277.5829 
  13   1.0000     -10.199080      -277.5311 
  14   1.0000     -10.198384      -277.5121 
  15   1.0000     -10.194867      -277.4164 
  16   1.0000     -10.189160      -277.2611 
  17   1.0000     -10.187863      -277.2258 
  18   1.0000     -10.187328      -277.2113 
  19   1.0000     -10.183339      -277.1027 
  20   1.0000     -10.181442      -277.0511 
  21   1.0000     -10.181204      -277.0446 
  22   1.0000     -10.172752      -276.8147 
  23   1.0000     -10.171033      -276.7679 
  24   1.0000      -0.868546       -23.6343 
  25   1.0000      -0.861435       -23.4408 
  26   1.0000      -0.812992       -22.1227 
  27   1.0000      -0.795302       -21.6413 
  28   1.0000      -0.791543       -21.5390 
  29   1.0000      -0.777141       -21.1471 
  30   1.0000      -0.763850       -20.7854 
  31   1.0000      -0.751136       -20.4394 
  32   1.0000      -0.743046       -20.2193 
  33   1.0000      -0.724928       -19.7263 
  34   1.0000      -0.712519       -19.3886 
  35   1.0000      -0.694272       -18.8921 
  36   1.0000      -0.652912       -17.7667 
  37   1.0000      -0.641902       -17.4670 
  38   1.0000      -0.617589       -16.8055 
  39   1.0000      -0.610482       -16.6121 
  40   1.0000      -0.609101       -16.5745 
  41   1.0000      -0.592267       -16.1164 
  42   1.0000      -0.579267       -15.7627 
  43   1.0000      -0.559855       -15.2344 
  44   1.0000      -0.541928       -14.7466 
  45   1.0000      -0.530169       -14.4266 
  46   1.0000      -0.504234       -13.7209 
  47   1.0000      -0.489736       -13.3264 
  48   1.0000      -0.481285       -13.0964 
  49   1.0000      -0.474763       -12.9189 
  50   1.0000      -0.470517       -12.8034 
  51   1.0000      -0.459763       -12.5108 
  52   1.0000      -0.456178       -12.4132 
  53   1.0000      -0.438621       -11.9355 
  54   1.0000      -0.430955       -11.7269 
  55   1.0000      -0.426530       -11.6065 
  56   1.0000      -0.426216       -11.5979 
  57   1.0000      -0.423943       -11.5361 
  58   1.0000      -0.420392       -11.4394 
  59   1.0000      -0.411293       -11.1919 
  60   1.0000      -0.395558       -10.7637 
  61   1.0000      -0.391718       -10.6592 
  62   1.0000      -0.382321       -10.4035 
  63   1.0000      -0.376146       -10.2354 
  64   1.0000      -0.374096       -10.1797 
  65   1.0000      -0.363446        -9.8899 
  66   1.0000      -0.363401        -9.8887 
  67   1.0000      -0.355489        -9.6734 
  68   1.0000      -0.353167        -9.6102 
  69   1.0000      -0.352903        -9.6030 
  70   1.0000      -0.335787        -9.1372 
  71   1.0000      -0.331584        -9.0228 
  72   1.0000      -0.331490        -9.0203 
  73   1.0000      -0.329970        -8.9789 
  74   1.0000      -0.326753        -8.8914 
  75   1.0000      -0.322898        -8.7865 
  76   1.0000      -0.321410        -8.7460 
  77   1.0000      -0.294200        -8.0056 
  78   1.0000      -0.274132        -7.4595 
  79   1.0000      -0.269102        -7.3227 
  80   1.0000      -0.261494        -7.1156 
  81   1.0000      -0.259260        -7.0548 
[...]
  Y           0.6365052           -0.0002475            0.7712724
  Z          -0.0000786           -1.0000000           -0.0002560

Notes:  (1) The A matrix conforms to the "SAI" spin Hamiltonian convention.
        (2) Tensor is right-handed.

 -----------------------------------------------------------
 Nucleus  46H : A:ISTP=    1 I=  0.5 P=533.5514 MHz/au**3
                Q:ISTP=    2 I=  1.0 Q=  0.0029 barn     
 -----------------------------------------------------------
 Solving for nuclear perturbation:
Forming RHS of the CP-SCF equations         ... 
Calc. nucleus orbit integrals (SHARK)       ... done

------------------------------------------------------------------------------
                           ORCA CP-SCF CALCULATION
------------------------------------------------------------------------------

Input orbitals are from        ... EPRII_i.gbw
Input Perturbation             ... EPRII_i.pin.tmp
Wavefunction output            ... EPRII_i.pout.tmp
Perturbation mode              ... Imaginary perturbation
Solver                         ... POPLE
Max. number of iterations      ... 64
Convergence tolerance          ... 1.000e-03
Integral handling              ... Direct
DFT GridXC                     ... 1
COSX GridX                     ... 1
COSX IntAccX                   ... 3.067
COSX Algorithm                 ... Auto
Number of perturbations        ... 3
Number of operators            ... 2
Orbital ranges used for CP-SCF:
 Operator 0:  Orbitals   0... 84  to  85...582
 Operator 1:  Orbitals   0... 83  to  84...582
Variables per perturbation     ... 84246
DFT calculation                         ... on
XC functional terms                     ... off
Hybrid DFT                              ... on
   Exchange mixing (SCF)                ...  0.200
   Exchange mixing (CP-SCF)             ...  0.200
   GGA exch. scaling(SCF)               ...  0.720
   GGA exch. scaling (CP-SCF)           ...  0.720
   GGA corr. scaling (SCF)              ...  0.810
   GGA corr. scaling (CP-SCF)           ...  0.810

CP-SCF GRID
-----------

General Integration Accuracy     IntAcc      ... 3.467
Radial Grid Type                 RadialGrid  ... OptM3 with GC (2021)
Angular Grid (max. ang.)         AngularGrid ... 1 (Lebedev-50)
Angular grid pruning method      GridPruning ... 4 (adaptive)
Weight generation scheme         WeightScheme... Becke
Basis function cutoff            BFCut       ... 1.0000e-10
Integration weight cutoff        WCut        ... 1.0000e-14
Angular grids for H and He will be reduced by one unit
Partially contracted basis set               ... off
Rotationally invariant grid construction     ... off

Total number of grid points                  ...    31890
Total number of batches                      ...      520
Average number of points per batch           ...       61
Average number of grid points per atom       ...      651

CP-SCF GRIDX
------------

General Integration Accuracy     IntAcc      ... 3.067
Radial Grid Type                 RadialGrid  ... OptM3 with GC (2021)
Angular Grid (max. ang.)         AngularGrid ... 1 (Lebedev-50)
Angular grid pruning method      GridPruning ... 4 (adaptive)
Weight generation scheme         WeightScheme... Becke
Basis function cutoff            BFCut       ... 1.0000e-10
Integration weight cutoff        WCut        ... 1.0000e-14
Angular grids for H and He will be reduced by one unit
Partially contracted basis set               ... on
Rotationally invariant grid construction     ... off

Total number of grid points                  ...    14947
Total number of batches                      ...      263
Average number of points per batch           ...       56
Average number of grid points per atom       ...      305

Memory available               ... 850.3 MB
Memory needed per perturbation ...  20.0 MB
Perturbations treated per batch... 3
Number of batches              ... 1
     CP-SCF ITERATION   0:   4.5859e-02 (   2.2 sec   0/  3 done)
     CP-SCF ITERATION   1:   1.9525e-03 (   2.2 sec   0/  3 done)
     CP-SCF ITERATION   2:   1.3685e-04 (   2.4 sec   3/  3 done)
                    *** THE CP-SCF HAS CONVERGED ***

Forming final perturbed densities           ... done
Transforming perturbed density to AO basis  ... done

 Raw HFC matrix (all values in MHz): 
 -----------------------------------
                 1.4361              -0.3227              -0.0001
                -0.3225               0.2519              -0.0000
                -0.0001              -0.0000               0.6081

 A(FC)           0.7654               0.7654               0.7654
 A(SD)          -0.5956              -0.1574               0.7530
 A(ORB+DIA)     -0.0001               0.0001              -0.0001    A(PC) =  -0.0001
 A(ORB)         -0.0001              -0.0000              -0.0002    A(PC) =  -0.0001
 A(DIA)         -0.0000               0.0001               0.0001    A(PC) =   0.0000
             ----------           ----------           ----------
 A(Tot)          0.1697               0.6081               1.5183    A(iso)=    0.7654
 Orientation: 
  X          -0.2469485           -0.0000409            0.9690286
  Y          -0.9690286            0.0001594           -0.2469485
  Z          -0.0001443           -1.0000000           -0.0000790

Notes:  (1) The A matrix conforms to the "SAI" spin Hamiltonian convention.
        (2) Tensor is right-handed.

 -----------------------------------------------------------
 Nucleus  47H : A:ISTP=    1 I=  0.5 P=533.5514 MHz/au**3
                Q:ISTP=    2 I=  1.0 Q=  0.0029 barn     
 -----------------------------------------------------------
 Solving for nuclear perturbation:
Forming RHS of the CP-SCF equations         ... 
Calc. nucleus orbit integrals (SHARK)       ... done

------------------------------------------------------------------------------
                           ORCA CP-SCF CALCULATION
------------------------------------------------------------------------------

Input orbitals are from        ... EPRII_i.gbw
Input Perturbation             ... EPRII_i.pin.tmp
Wavefunction output            ... EPRII_i.pout.tmp
Perturbation mode              ... Imaginary perturbation
Solver                         ... POPLE
Max. number of iterations      ... 64
Convergence tolerance          ... 1.000e-03
Integral handling              ... Direct
DFT GridXC                     ... 1
COSX GridX                     ... 1
COSX IntAccX                   ... 3.067
COSX Algorithm                 ... Auto
Number of perturbations        ... 3
Number of operators            ... 2
Orbital ranges used for CP-SCF:
 Operator 0:  Orbitals   0... 84  to  85...582
 Operator 1:  Orbitals   0... 83  to  84...582
Variables per perturbation     ... 84246
DFT calculation                         ... on
XC functional terms                     ... off
Hybrid DFT                              ... on
   Exchange mixing (SCF)                ...  0.200
   Exchange mixing (CP-SCF)             ...  0.200
   GGA exch. scaling(SCF)               ...  0.720
   GGA exch. scaling (CP-SCF)           ...  0.720
   GGA corr. scaling (SCF)              ...  0.810
   GGA corr. scaling (CP-SCF)           ...  0.810

CP-SCF GRID
-----------

General Integration Accuracy     IntAcc      ... 3.467
Radial Grid Type                 RadialGrid  ... OptM3 with GC (2021)
Angular Grid (max. ang.)         AngularGrid ... 1 (Lebedev-50)
Angular grid pruning method      GridPruning ... 4 (adaptive)
Weight generation scheme         WeightScheme... Becke
Basis function cutoff            BFCut       ... 1.0000e-10
Integration weight cutoff        WCut        ... 1.0000e-14
Angular grids for H and He will be reduced by one unit
Partially contracted basis set               ... off
Rotationally invariant grid construction     ... off

Total number of grid points                  ...    31890
Total number of batches                      ...      520
Average number of points per batch           ...       61
Average number of grid points per atom       ...      651

CP-SCF GRIDX
------------

General Integration Accuracy     IntAcc      ... 3.067
Radial Grid Type                 RadialGrid  ... OptM3 with GC (2021)
Angular Grid (max. ang.)         AngularGrid ... 1 (Lebedev-50)
Angular grid pruning method      GridPruning ... 4 (adaptive)
Weight generation scheme         WeightScheme... Becke
Basis function cutoff            BFCut       ... 1.0000e-10
Integration weight cutoff        WCut        ... 1.0000e-14
Angular grids for H and He will be reduced by one unit
Partially contracted basis set               ... on
Rotationally invariant grid construction     ... off

Total number of grid points                  ...    14947
Total number of batches                      ...      263
Average number of points per batch           ...       56
Average number of grid points per atom       ...      305

Memory available               ... 849.6 MB
Memory needed per perturbation ...  20.0 MB
Perturbations treated per batch... 3
Number of batches              ... 1
     CP-SCF ITERATION   0:   4.5817e-02 (   2.2 sec   0/  3 done)
     CP-SCF ITERATION   1:   1.9489e-03 (   2.2 sec   0/  3 done)
     CP-SCF ITERATION   2:   1.3989e-04 (   2.2 sec   3/  3 done)
                    *** THE CP-SCF HAS CONVERGED ***

Forming final perturbed densities           ... done
Transforming perturbed density to AO basis  ... done

 Raw HFC matrix (all values in MHz): 
 -----------------------------------
                 1.3129               0.4047               0.0000
                 0.4045               0.3274               0.0001
                 0.0000               0.0001               0.6557

 A(FC)           0.7654               0.7654               0.7654
 A(SD)          -0.5827              -0.1098               0.6925
 A(ORB+DIA)     -0.0001               0.0001              -0.0002    A(PC) =  -0.0001
 A(ORB)         -0.0001              -0.0000              -0.0002    A(PC) =  -0.0001
 A(DIA)         -0.0000               0.0001               0.0000    A(PC) =   0.0000
             ----------           ----------           ----------
 A(Tot)          0.1826               0.6557               1.4577    A(iso)=    0.7654
 Orientation: 
  X           0.3370485            0.0000861            0.9414873
  Y          -0.9414873           -0.0000500            0.3370485
  Z           0.0000761           -1.0000000            0.0000642

Notes:  (1) The A matrix conforms to the "SAI" spin Hamiltonian convention.
        (2) Tensor is right-handed.

 -----------------------------------------------------------
 Nucleus  48H : A:ISTP=    1 I=  0.5 P=533.5514 MHz/au**3
                Q:ISTP=    2 I=  1.0 Q=  0.0029 barn     
 -----------------------------------------------------------
 Solving for nuclear perturbation:
Forming RHS of the CP-SCF equations         ... 
Calc. nucleus orbit integrals (SHARK)       ... done

------------------------------------------------------------------------------
                           ORCA CP-SCF CALCULATION
------------------------------------------------------------------------------

Input orbitals are from        ... EPRII_i.gbw
Input Perturbation             ... EPRII_i.pin.tmp
Wavefunction output            ... EPRII_i.pout.tmp
Perturbation mode              ... Imaginary perturbation
Solver                         ... POPLE
Max. number of iterations      ... 64
Convergence tolerance          ... 1.000e-03
Integral handling              ... Direct
DFT GridXC                     ... 1
COSX GridX                     ... 1
COSX IntAccX                   ... 3.067
COSX Algorithm                 ... Auto
Number of perturbations        ... 3
Number of operators            ... 2
Orbital ranges used for CP-SCF:
 Operator 0:  Orbitals   0... 84  to  85...582
 Operator 1:  Orbitals   0... 83  to  84...582
Variables per perturbation     ... 84246
DFT calculation                         ... on
XC functional terms                     ... off
Hybrid DFT                              ... on
   Exchange mixing (SCF)                ...  0.200
   Exchange mixing (CP-SCF)             ...  0.200
   GGA exch. scaling(SCF)               ...  0.720
   GGA exch. scaling (CP-SCF)           ...  0.720
   GGA corr. scaling (SCF)              ...  0.810
   GGA corr. scaling (CP-SCF)           ...  0.810

CP-SCF GRID
-----------

General Integration Accuracy     IntAcc      ... 3.467
Radial Grid Type                 RadialGrid  ... OptM3 with GC (2021)
Angular Grid (max. ang.)         AngularGrid ... 1 (Lebedev-50)
Angular grid pruning method      GridPruning ... 4 (adaptive)
Weight generation scheme         WeightScheme... Becke
Basis function cutoff            BFCut       ... 1.0000e-10
Integration weight cutoff        WCut        ... 1.0000e-14
Angular grids for H and He will be reduced by one unit
Partially contracted basis set               ... off
Rotationally invariant grid construction     ... off

Total number of grid points                  ...    31890
Total number of batches                      ...      520
Average number of points per batch           ...       61
Average number of grid points per atom       ...      651

CP-SCF GRIDX
------------

General Integration Accuracy     IntAcc      ... 3.067
Radial Grid Type                 RadialGrid  ... OptM3 with GC (2021)
Angular Grid (max. ang.)         AngularGrid ... 1 (Lebedev-50)
Angular grid pruning method      GridPruning ... 4 (adaptive)
Weight generation scheme         WeightScheme... Becke
Basis function cutoff            BFCut       ... 1.0000e-10
Integration weight cutoff        WCut        ... 1.0000e-14
Angular grids for H and He will be reduced by one unit
Partially contracted basis set               ... on
Rotationally invariant grid construction     ... off

Total number of grid points                  ...    14947
Total number of batches                      ...      263
Average number of points per batch           ...       56
Average number of grid points per atom       ...      305

Memory available               ... 848.9 MB
Memory needed per perturbation ...  20.0 MB
Perturbations treated per batch... 3
Number of batches              ... 1
     CP-SCF ITERATION   0:   4.2028e-02 (   2.3 sec   0/  3 done)
     CP-SCF ITERATION   1:   1.7185e-03 (   2.2 sec   1/  3 done)
     CP-SCF ITERATION   2:   7.8846e-05 (   2.0 sec   3/  3 done)
                    *** THE CP-SCF HAS CONVERGED ***

Forming final perturbed densities           ... done
Transforming perturbed density to AO basis  ... done

 Raw HFC matrix (all values in MHz): 
 -----------------------------------
                -0.2659              -0.1219              -0.0001
                -0.1219              -0.3935              -0.0000
                -0.0001              -0.0000              -0.3472

 A(FC)          -0.3356              -0.3356              -0.3356
 A(SD)           0.1434              -0.0117              -0.1318
 A(ORB+DIA)      0.0001               0.0000               0.0001    A(PC) =   0.0001
 A(ORB)          0.0000               0.0000               0.0001    A(PC) =   0.0000
 A(DIA)          0.0000               0.0000               0.0000    A(PC) =   0.0000
             ----------           ----------           ----------
 A(Tot)         -0.1921              -0.3472              -0.4673    A(iso)=   -0.3355
 Orientation: 
  X           0.8554030            0.0000162            0.5179631
  Y          -0.5179630            0.0006913            0.8554028
  Z          -0.0003442           -0.9999998            0.0005998

Notes:  (1) The A matrix conforms to the "SAI" spin Hamiltonian convention.
        (2) Tensor is right-handed.


--------------------------------------------------------------------------------
----------------------------------------------------------------------------
                           ORCA EULER ANGLE PROGRAM
----------------------------------------------------------------------------

Only g-tensor available        -->  using g-tensor as reference tensor

Reference tensor               ...  g

g-tensor ordering              ...  |g_min> --> |gx>
                                    |g_mid> --> |gy>
                                    |g_max> --> |gz>

A- and EFG-tensor ordering     ...  the axes |Ax>, |Qx>, |Ay>, etc. are assigned
                                    such that the Euler rotation is minimal. You
                                    can find the respective eigenvalues as Ax,
                                    EFGx, Ay, etc. in the tables below.
                                    The relation of |Ax>, |Ay>,  etc. to Amin, Amid, etc.
                                    (as printed in the ORCA EPR/NMR CALCULATION Output)
                                    is obtained in the detailed printout.

Euler rotation around          ...  z - y - z
   First rotation              -->  by alpha around z
   Second rotation             -->  by beta around y'
   Third rotation              -->  by gamma around z''
   Positive / Negative angle   -->  clockwise / counterclockwise rotation

Plot EFG-tensors                    (-)
Plot HFC-tensors                    (-)
Detailed Printout                   (-)

-------------------------------------------------------------------------
          Euler rotation of hyperfine tensor to g-tensor
-------------------------------------------------------------------------

-------------------------------------------------------------------
 Atom  |   Alpha    Beta    Gamma   |   Ax       Ay       Az 
       |          [degrees]         |           [MHz]         
-------------------------------------------------------------------
  9H      -89.7      5.2     89.7     -17.40    -8.04   -21.05
 10H      -90.0      7.9     90.0       4.58     5.21    10.19
 12H       90.0     44.9    -90.0     -49.29   -20.22   -75.05
 14H     -160.9     13.9    179.2      67.13    76.95    68.64
 15H      -19.3     13.5      1.0      66.81    76.63    68.32
 17H      158.1     27.4   -122.2      -3.29    -3.13     3.09
 18H       21.8     27.3    -58.1      -3.29    -3.13     3.08
 20H      -48.6     51.1     23.1      -0.06     2.29     0.04
 21H     -131.6     51.4    157.1      -0.06     2.29     0.04
 23H      -37.7     17.4     -1.4      23.80    24.41    27.59
 24H     -142.3     17.4   -178.5      23.81    24.42    27.59
 26H      -98.1     31.4     85.1      -1.04     0.95    -0.92
 27H      -82.0     31.4     95.0      -1.05     0.95    -0.92
 29H      102.7     28.9    -71.9      -0.10    -0.14     0.83
 30H       77.3     28.9   -108.0      -0.10    -0.14     0.83
 32H      -84.8     44.1     93.0      -0.13     0.39    -0.11
 33H      -95.2     44.1     87.0      -0.13     0.39    -0.11
 35H       90.1     39.8    -90.0      -9.03    -3.55   -12.03
 36H       89.0     37.7    -90.1      -0.84    -0.86     0.72
 37H       89.9     36.1    -90.0      -0.13    -0.13     0.24
 44H       90.0     43.5    -90.0       0.74     0.46     1.20
 45H      -90.1      3.7     90.1      -0.33    -0.51    -0.16
 46H       90.0     32.4    -90.0       0.61     1.52     0.17
 47H      -90.0     23.6     90.0       0.66     0.18     1.46
 48H       89.9     15.5    -89.8      -0.35    -0.19    -0.47
-------------------------------------------------------------------


Maximum memory used throughout the entire EPRNMR-calculation: 283.2 MB

Timings for individual modules:

Sum of individual times         ...     5382.206 sec (=  89.703 min)
GTO integral calculation        ...        5.789 sec (=   0.096 min)   0.1 %
Spin-Orbit-Coupling Matrices    ...       14.550 sec (=   0.242 min)   0.3 %
SCF iterations                  ...       81.119 sec (=   1.352 min)   1.5 %
EPR/NMR calculation             ...     5280.748 sec (=  88.012 min)  98.1 %
                             ****ORCA TERMINATED NORMALLY****
TOTAL RUN TIME: 0 days 1 hours 29 minutes 46 seconds 684 msec
