
                                 *****************
                                 * O   R   C   A *
                                 *****************

                                            #,                                       
                                            ###                                      
                                            ####                                     
                                            #####                                    
                                            ######                                   
                                           ########,                                 
                                     ,,################,,,,,                         
                               ,,#################################,,                 
                          ,,##########################################,,             
                       ,#########################################, ''#####,          
                    ,#############################################,,   '####,        
                  ,##################################################,,,,####,       
                ,###########''''           ''''###############################       
              ,#####''   ,,,,##########,,,,          '''####'''          '####       
            ,##' ,,,,###########################,,,                        '##       
           ' ,,###''''                  '''############,,,                           
         ,,##''                                '''############,,,,        ,,,,,,###''
      ,#''                                            '''#######################'''  
     '                                                          ''''####''''         
             ,#######,   #######,   ,#######,      ##                                
            ,#'     '#,  ##    ##  ,#'     '#,    #''#        ######   ,####,        
            ##       ##  ##   ,#'  ##            #'  '#       #        #'  '#        
            ##       ##  #######   ##           ,######,      #####,   #    #        
            '#,     ,#'  ##    ##  '#,     ,#' ,#      #,         ##   #,  ,#        
             '#######'   ##     ##  '#######'  #'      '#     #####' # '####'        



                  #######################################################
                  #                        -***-                        #
                  #          Department of theory and spectroscopy      #
                  #    Directorship and core code : Frank Neese         #
                  #        Max Planck Institute fuer Kohlenforschung    #
                  #                Kaiser Wilhelm Platz 1               #
                  #                 D-45470 Muelheim/Ruhr               #
                  #                      Germany                        #
                  #                                                     #
                  #                  All rights reserved                #
                  #                        -***-                        #
                  #######################################################


                         Program Version 5.0.4 -  RELEASE  -


 With contributions from (in alphabetic order):
   Daniel Aravena         : Magnetic Suceptibility
   Michael Atanasov       : Ab Initio Ligand Field Theory (pilot matlab implementation)
   Alexander A. Auer      : GIAO ZORA, VPT2 properties, NMR spectrum
   Ute Becker             : Parallelization
   Giovanni Bistoni       : ED, misc. LED, open-shell LED, HFLD
   Martin Brehm           : Molecular dynamics
   Dmytro Bykov           : SCF Hessian
   Vijay G. Chilkuri      : MRCI spin determinant printing, contributions to CSF-ICE
   Dipayan Datta          : RHF DLPNO-CCSD density
   Achintya Kumar Dutta   : EOM-CC, STEOM-CC
   Dmitry Ganyushin       : Spin-Orbit,Spin-Spin,Magnetic field MRCI
   Miquel Garcia          : C-PCM and meta-GGA Hessian, CC/C-PCM, Gaussian charge scheme
   Yang Guo               : DLPNO-NEVPT2, F12-NEVPT2, CIM, IAO-localization
   Andreas Hansen         : Spin unrestricted coupled pair/coupled cluster methods
   Benjamin Helmich-Paris : MC-RPA, TRAH-SCF, COSX integrals
   Lee Huntington         : MR-EOM, pCC
   Robert Izsak           : Overlap fitted RIJCOSX, COSX-SCS-MP3, EOM
   Marcus Kettner         : VPT2
   Christian Kollmar      : KDIIS, OOCD, Brueckner-CCSD(T), CCSD density, CASPT2, CASPT2-K
   Simone Kossmann        : Meta GGA functionals, TD-DFT gradient, OOMP2, MP2 Hessian
   Martin Krupicka        : Initial AUTO-CI
   Lucas Lang             : DCDCAS
   Marvin Lechner         : AUTO-CI (C++ implementation), FIC-MRCC
   Dagmar Lenk            : GEPOL surface, SMD
   Dimitrios Liakos       : Extrapolation schemes; Compound Job, initial MDCI parallelization
   Dimitrios Manganas     : Further ROCIS development; embedding schemes
   Dimitrios Pantazis     : SARC Basis sets
   Anastasios Papadopoulos: AUTO-CI, single reference methods and gradients
   Taras Petrenko         : DFT Hessian,TD-DFT gradient, ASA, ECA, R-Raman, ABS, FL, XAS/XES, NRVS
   Peter Pinski           : DLPNO-MP2, DLPNO-MP2 Gradient
   Christoph Reimann      : Effective Core Potentials
   Marius Retegan         : Local ZFS, SOC
   Christoph Riplinger    : Optimizer, TS searches, QM/MM, DLPNO-CCSD(T), (RO)-DLPNO pert. Triples
   Tobias Risthaus        : Range-separated hybrids, TD-DFT gradient, RPA, STAB
   Michael Roemelt        : Original ROCIS implementation
   Masaaki Saitow         : Open-shell DLPNO-CCSD energy and density
   Barbara Sandhoefer     : DKH picture change effects
   Avijit Sen             : IP-ROCIS
   Kantharuban Sivalingam : CASSCF convergence, NEVPT2, FIC-MRCI
   Bernardo de Souza      : ESD, SOC TD-DFT
   Georgi Stoychev        : AutoAux, RI-MP2 NMR, DLPNO-MP2 response
   Willem Van den Heuvel  : Paramagnetic NMR
   Boris Wezisla          : Elementary symmetry handling
   Frank Wennmohs         : Technical directorship


 We gratefully acknowledge several colleagues who have allowed us to
 interface, adapt or use parts of their codes:
   Stefan Grimme, W. Hujo, H. Kruse, P. Pracht,  : VdW corrections, initial TS optimization,
                  C. Bannwarth, S. Ehlert          DFT functionals, gCP, sTDA/sTD-DF
   Ed Valeev, F. Pavosevic, A. Kumar             : LibInt (2-el integral package), F12 methods
   Garnet Chan, S. Sharma, J. Yang, R. Olivares  : DMRG
   Ulf Ekstrom                                   : XCFun DFT Library
   Mihaly Kallay                                 : mrcc  (arbitrary order and MRCC methods)
   Jiri Pittner, Ondrej Demel                    : Mk-CCSD
   Frank Weinhold                                : gennbo (NPA and NBO analysis)
   Christopher J. Cramer and Donald G. Truhlar   : smd solvation model
   Lars Goerigk                                  : TD-DFT with DH, B97 family of functionals
   V. Asgeirsson, H. Jonsson                     : NEB implementation
   FAccTs GmbH                                   : IRC, NEB, NEB-TS, DLPNO-Multilevel, CI-OPT
                                                   MM, QMMM, 2- and 3-layer-ONIOM, Crystal-QMMM,
                                                   LR-CPCM, SF, NACMEs, symmetry and pop. for TD-DFT,
                                                   nearIR, NL-DFT gradient (VV10), updates on ESD,
                                                   ML-optimized integration grids
   S Lehtola, MJT Oliveira, MAL Marques          : LibXC Library
   Liviu Ungur et al                             : ANISO software


 Your calculation uses the libint2 library for the computation of 2-el integrals
 For citations please refer to: http://libint.valeyev.net

 Your ORCA version has been built with support for libXC version: 5.1.0
 For citations please refer to: https://tddft.org/programs/libxc/

 This ORCA versions uses:
   CBLAS   interface :  Fast vector & matrix operations
   LAPACKE interface :  Fast linear algebra routines
   SCALAPACK package :  Parallel linear algebra routines
   Shared memory     :  Shared parallel matrices
   BLAS/LAPACK       :  OpenBLAS 0.3.15  USE64BITINT DYNAMIC_ARCH NO_AFFINITY SkylakeX SINGLE_THREADED
        Core in use  :  SkylakeX
   Copyright (c) 2011-2014, The OpenBLAS Project




***************************************
The coordinates will be read from file: opt.xyz
***************************************


================================================================================

----- Orbital basis set information -----
Your calculation utilizes the basis: EPR-II
   V. Barone, in Recent Advances in Density Functional Methods, Part 1 (ed. D. P. Chong), World Scientific, Singapore, 1995, p. 287.

----- AuxJ basis set information -----
Your calculation utilizes the AutoAux generation procedure.
  G. L. Stoychev, A. A. Auer, F. Neese, J. Chem. Theory Comput. 13, 554 (2017)

----- AuxC basis set information -----
Your calculation utilizes the AutoAux generation procedure.
  G. L. Stoychev, A. A. Auer, F. Neese, J. Chem. Theory Comput. 13, 554 (2017)

----- AuxJK basis set information -----
Your calculation utilizes the AutoAux generation procedure.
  G. L. Stoychev, A. A. Auer, F. Neese, J. Chem. Theory Comput. 13, 554 (2017)

================================================================================
                                        WARNINGS
                       Please study these warnings very carefully!
================================================================================

WARNING: Old DensityContainer found on disk!
         Will remove this file - 
         If you want to keep old densities, please start your calculation with a different basename. 


WARNING: your system is open-shell and RHF/RKS was chosen
  ===> : WILL SWITCH to UHF/UKS


INFO   : the flag for use of the SHARK integral package has been found!

================================================================================
                                       INPUT FILE
================================================================================
NAME = EPRII.inp
|  1> ! B3LYP EPR-II AUTOAUX
|  2> %pal nprocs 16 end
|  3> *XYZFile 0 2 opt.xyz
|  4> %EPRNMR
|  5>         GTENSOR   TRUE
|  6>         NUCLEI    = ALL H {SHIFT, AISO, ADIP, AORB}
|  7> END
|  8> 
|  9>                          ****END OF INPUT****
================================================================================

                       ****************************
                       * Single Point Calculation *
                       ****************************

---------------------------------
CARTESIAN COORDINATES (ANGSTROEM)
---------------------------------
  C     -4.052268    0.115614   -0.001692
  C     -2.836565    0.052160   -0.003421
  C      2.842829   -0.004216   -0.002352
  C     -1.410014    0.002656   -0.003149
  C     -0.708139   -1.258090   -0.002726
  C      0.713185   -1.192512   -0.002392
  C      1.414143    0.016922   -0.002570
  C      0.706182    1.260759   -0.003012
  C     -0.689438    1.209567   -0.003370
  H      1.288191   -2.118709   -0.002058
  H     -1.263059    2.136269   -0.003793
  C     -1.396801   -2.492011   -0.002645
  H     -2.489358   -2.454708   -0.003064
  C     -0.741126   -3.840380   -0.002172
  H     -0.069922   -3.936290   -0.880793
  H     -0.068807   -3.935156    0.875698
  C     -1.739120   -5.005603   -0.000787
  H     -2.397379   -4.914277    0.882428
  H     -2.398569   -4.915385   -0.883231
  C     -1.061646   -6.377131   -0.000385
  H     -0.420496   -6.507557    0.888639
  H     -0.421640   -6.508641   -0.890074
  C      1.479774    2.562726   -0.003141
  H      2.157489    2.561725    0.871211
  H      2.158029    2.561237   -0.877070
  C      0.660782    3.856198   -0.003729
  H     -0.002282    3.880554   -0.888104
  H     -0.002671    3.881100    0.880341
  C      1.541048    5.111788   -0.003930
  H      2.207161    5.089300    0.878622
  H      2.207254    5.088941   -0.886402
  C      0.734674    6.412803   -0.004240
  H      0.084530    6.481508    0.885049
  H      0.084510    6.481072   -0.893549
  C      4.064589   -0.029084   -0.003390
  H     -5.122850    0.176841    0.002017
  H     -1.802776   -7.192512    0.000594
  H      1.393262    7.296517   -0.004468
  C      5.492574   -0.059283   -0.003026
  C      6.185759   -1.289431   -0.002819
  C      7.580089   -1.313817   -0.002390
  C      8.308273   -0.118677   -0.002188
  C      7.631219    1.106277   -0.002419
  C      6.237203    1.140549   -0.002850
  H      9.400533   -0.141833   -0.001853
  H      8.194107    2.042827   -0.002269
  H      5.615401   -2.220203   -0.002988
  H      5.707015    2.094785   -0.003040
  H      8.103468   -2.273007   -0.002217

----------------------------
CARTESIAN COORDINATES (A.U.)
----------------------------
  NO LB      ZA    FRAG     MASS         X           Y           Z
   0 C     6.0000    0    12.011   -7.657677    0.218479   -0.003198
   1 C     6.0000    0    12.011   -5.360331    0.098568   -0.006465
   2 C     6.0000    0    12.011    5.372169   -0.007967   -0.004444
   3 C     6.0000    0    12.011   -2.664541    0.005019   -0.005951
   4 C     6.0000    0    12.011   -1.338189   -2.377445   -0.005152
   5 C     6.0000    0    12.011    1.347725   -2.253522   -0.004520
   6 C     6.0000    0    12.011    2.672344    0.031979   -0.004857
   7 C     6.0000    0    12.011    1.334492    2.382489   -0.005692
   8 C     6.0000    0    12.011   -1.302849    2.285750   -0.006369
   9 H     1.0000    0     1.008    2.434329   -4.003780   -0.003889
  10 H     1.0000    0     1.008   -2.386836    4.036963   -0.007168
  11 C     6.0000    0    12.011   -2.639571   -4.709218   -0.004998
  12 H     1.0000    0     1.008   -4.704205   -4.638725   -0.005790
  13 C     6.0000    0    12.011   -1.400526   -7.257266   -0.004105
  14 H     1.0000    0     1.008   -0.132134   -7.438510   -1.664458
  15 H     1.0000    0     1.008   -0.130026   -7.436367    1.654830
  16 C     6.0000    0    12.011   -3.286461   -9.459219   -0.001488
  17 H     1.0000    0     1.008   -4.530390   -9.286638    1.667547
  18 H     1.0000    0     1.008   -4.532639   -9.288732   -1.669064
  19 C     6.0000    0    12.011   -2.006221  -12.051031   -0.000728
  20 H     1.0000    0     1.008   -0.794621  -12.297500    1.679284
  21 H     1.0000    0     1.008   -0.796784  -12.299549   -1.681996
  22 C     6.0000    0    12.011    2.796368    4.842850   -0.005935
  23 H     1.0000    0     1.008    4.077063    4.840958    1.646350
  24 H     1.0000    0     1.008    4.078084    4.840037   -1.657422
  25 C     6.0000    0    12.011    1.248696    7.287158   -0.007047
  26 H     1.0000    0     1.008   -0.004313    7.333185   -1.678274
  27 H     1.0000    0     1.008   -0.005048    7.334215    1.663603
  28 C     6.0000    0    12.011    2.912159    9.659880   -0.007426
  29 H     1.0000    0     1.008    4.170930    9.617383    1.660355
  30 H     1.0000    0     1.008    4.171105    9.616705   -1.675058
  31 C     6.0000    0    12.011    1.388332   12.118442   -0.008013
  32 H     1.0000    0     1.008    0.159738   12.248276    1.672501
  33 H     1.0000    0     1.008    0.159700   12.247452   -1.688563
  34 C     6.0000    0    12.011    7.680960   -0.054961   -0.006406
  35 H     1.0000    0     1.008   -9.680783    0.334181    0.003811
  36 H     1.0000    0     1.008   -3.406754  -13.591879    0.001122
  37 H     1.0000    0     1.008    2.632883   13.788418   -0.008442
  38 C     6.0000    0    12.011   10.379460   -0.112029   -0.005718
  39 C     6.0000    0    12.011   11.689391   -2.436671   -0.005326
  40 C     6.0000    0    12.011   14.324292   -2.482754   -0.004516
  41 C     6.0000    0    12.011   15.700361   -0.224267   -0.004135
  42 C     6.0000    0    12.011   14.420914    2.090561   -0.004572
  43 C     6.0000    0    12.011   11.786606    2.155326   -0.005386
  44 H     1.0000    0     1.008   17.764432   -0.268026   -0.003502
  45 H     1.0000    0     1.008   15.484619    3.860384   -0.004288
  46 H     1.0000    0     1.008   10.611570   -4.195575   -0.005647
  47 H     1.0000    0     1.008   10.784695    3.958571   -0.005746
  48 H     1.0000    0     1.008   15.313335   -4.295361   -0.004190

--------------------------------
INTERNAL COORDINATES (ANGSTROEM)
--------------------------------
 C      0   0   0     0.000000000000     0.00000000     0.00000000
 C      1   0   0     1.217359260364     0.00000000     0.00000000
 C      2   1   0     5.679674327504   177.57909499     0.00000000
 C      2   1   3     1.427409552105   178.99534651     3.08808618
 C      4   2   1     1.442951425572   121.09278371   174.71811389
 C      5   4   2     1.422836285811   116.46367031   180.00407821
 C      6   5   4     1.397882258686   122.73715019     0.00000000
 C      7   6   5     1.431201738527   120.25703922     0.00000000
 C      8   7   6     1.396559095721   117.54676217     0.00000000
 H      6   5   4     1.090170958943   119.19138482   179.99948449
 H      9   8   7     1.089870544167   119.65647988   180.00493673
 C      5   4   2     1.413087871575   121.72841724     0.00000000
 H     12   5   4     1.093193664881   117.21076493     0.00000000
 C     12   5   4     1.499335667753   124.90135308   180.00200593
 H     14  12   5     1.109814590441   109.99569207   302.57756505
 H     14  12   5     1.109798677346   109.99718402    57.30659809
 C     14  12   5     1.534190058153   113.48814276   179.94286128
 H     17  14  12     1.105312120549   108.98789398   302.35921625
 H     17  14  12     1.105313671011   108.98908084    57.63428164
 C     17  14  12     1.529725173464   113.13319790   179.99705768
 H     20  17  14     1.103833908636   111.30840897    59.86326630
 H     20  17  14     1.103833841714   111.30827615   300.13931194
 C      8   7   6     1.514450838400   119.63497019   179.99741455
 H     23   8   7     1.106250292653   108.18504701   303.71758795
 H     23   8   7     1.106247903877   108.18538127    56.27063565
 C     23   8   7     1.530953628554   116.94152217   179.99536478
 H     26  23   8     1.105606971055   109.86150781   301.75578256
 H     26  23   8     1.105607966662   109.86090980    58.25344213
 C     26  23   8     1.533419801342   112.62564205   180.00467961
 H     29  26  23     1.105942745177   109.20811490   302.33823521
 H     29  26  23     1.105942536750   109.20759569    57.68502110
 C     29  26  23     1.530647016941   113.17574209   180.01128968
 H     32  29  26     1.103740707934   111.28832870    59.85524771
 H     32  29  26     1.103740858252   111.28837505   300.15428281
 C      3   2   1     1.222013211744   179.39972339   183.50339480
 H      1   2   4     1.072337309213   179.69168392   343.00096738
 H     20  17  14     1.101871872811   111.44384015   180.00101100
 H     32  29  26     1.102128421739   111.51385020   180.00492423
 C     35   3   7     1.428304078639   179.92207852   295.47244443
 C     39  35   3     1.412008938125   120.61267562    54.30194255
 C     40  39  35     1.394543110631   120.40313695   180.00350810
 C     41  40  39     1.399504386554   120.35146742     0.00000000
 C     42  41  40     1.399612460365   119.71634157     0.00000000
 C     43  42  41     1.394437327793   120.33855062     0.00000000
 H     42  41  40     1.092504659132   120.13892208   180.00005377
 H     43  42  41     1.092688694510   120.06294536   180.00032209
 H     40  39  35     1.091624690355   119.09971744     0.00000000
 H     44  43  42     1.091634750457   120.46557739   180.00056615
 H     41  40  39     1.092689909688   119.62092764   179.99904039

---------------------------
INTERNAL COORDINATES (A.U.)
---------------------------
 C      0   0   0     0.000000000000     0.00000000     0.00000000
 C      1   0   0     2.300475608681     0.00000000     0.00000000
 C      2   1   0    10.733029008846   177.57909499     0.00000000
 C      2   1   3     2.697413134421   178.99534651     3.08808618
 C      4   2   1     2.726783018883   121.09278371   174.71811389
 C      5   4   2     2.688770913588   116.46367031   180.00407821
 C      6   5   4     2.641614636385   122.73715019     0.00000000
 C      7   6   5     2.704579328209   120.25703922     0.00000000
 C      8   7   6     2.639114220749   117.54676217     0.00000000
 H      6   5   4     2.060124551556   119.19138482   179.99948449
 H      9   8   7     2.059556849904   119.65647988   180.00493673
 C      5   4   2     2.670349080442   121.72841724     0.00000000
 H     12   5   4     2.065836637963   117.21076493     0.00000000
 C     12   5   4     2.833333794873   124.90135308   180.00200593
 H     14  12   5     2.097245635363   109.99569207   302.57756505
 H     14  12   5     2.097215563971   109.99718402    57.30659809
 C     14  12   5     2.899199047294   113.48814276   179.94286128
 H     17  14  12     2.088737200342   108.98789398   302.35921625
 H     17  14  12     2.088740130290   108.98908084    57.63428164
 C     17  14  12     2.890761638011   113.13319790   179.99705768
 H     20  17  14     2.085943784658   111.30840897    59.86326630
 H     20  17  14     2.085943658193   111.30827615   300.13931194
 C      8   7   6     2.861897327863   119.63497019   179.99741455
 H     23   8   7     2.090510088684   108.18504701   303.71758795
 H     23   8   7     2.090505574553   108.18538127    56.27063565
 C     23   8   7     2.893083081700   116.94152217   179.99536478
 H     26  23   8     2.089294387049   109.86150781   301.75578256
 H     26  23   8     2.089296268473   109.86090980    58.25344213
 C     26  23   8     2.897743472868   112.62564205   180.00467961
 H     29  26  23     2.089928908181   109.20811490   302.33823521
 H     29  26  23     2.089928514311   109.20759569    57.68502110
 C     29  26  23     2.892503669722   113.17574209   180.01128968
 H     32  29  26     2.085767660856   111.28832870    59.85524771
 H     32  29  26     2.085767944915   111.28837505   300.15428281
 C      3   2   1     2.309270302229   179.39972339   183.50339480
 H      1   2   4     2.026423837598   179.69168392   343.00096738
 H     20  17  14     2.082236074284   111.44384015   180.00101100
 H     32  29  26     2.082720881497   111.51385020   180.00492423
 C     35   3   7     2.699103544590   179.92207852   295.47244443
 C     39  35   3     2.668310191706   120.61267562    54.30194255
 C     40  39  35     2.635304561040   120.40313695   180.00350810
 C     41  40  39     2.644680013809   120.35146742     0.00000000
 C     42  41  40     2.644884243713   119.71634157     0.00000000
 C     43  42  41     2.635104660446   120.33855062     0.00000000
 H     42  41  40     2.064534605792   120.13892208   180.00005377
 H     43  42  41     2.064882382255   120.06294536   180.00032209
 H     40  39  35     2.062871705797   119.09971744     0.00000000
 H     44  43  42     2.062890716636   120.46557739   180.00056615
 H     41  40  39     2.064884678610   119.62092764   179.99904039

---------------------
BASIS SET INFORMATION
---------------------
There are 2 groups of distinct atoms

 Group   1 Type C   : 10s5p1d contracted to 6s2p1d pattern {511111/41/1}
 Group   2 Type H   : 6s1p contracted to 4s1p pattern {3111/1}

Atom   0C    basis set group =>   1
Atom   1C    basis set group =>   1
Atom   2C    basis set group =>   1
Atom   3C    basis set group =>   1
Atom   4C    basis set group =>   1
Atom   5C    basis set group =>   1
Atom   6C    basis set group =>   1
Atom   7C    basis set group =>   1
Atom   8C    basis set group =>   1
Atom   9H    basis set group =>   2
Atom  10H    basis set group =>   2
Atom  11C    basis set group =>   1
Atom  12H    basis set group =>   2
Atom  13C    basis set group =>   1
Atom  14H    basis set group =>   2
Atom  15H    basis set group =>   2
Atom  16C    basis set group =>   1
Atom  17H    basis set group =>   2
Atom  18H    basis set group =>   2
Atom  19C    basis set group =>   1
Atom  20H    basis set group =>   2
Atom  21H    basis set group =>   2
Atom  22C    basis set group =>   1
Atom  23H    basis set group =>   2
Atom  24H    basis set group =>   2
Atom  25C    basis set group =>   1
Atom  26H    basis set group =>   2
Atom  27H    basis set group =>   2
Atom  28C    basis set group =>   1
Atom  29H    basis set group =>   2
Atom  30H    basis set group =>   2
Atom  31C    basis set group =>   1
Atom  32H    basis set group =>   2
Atom  33H    basis set group =>   2
Atom  34C    basis set group =>   1
Atom  35H    basis set group =>   2
Atom  36H    basis set group =>   2
Atom  37H    basis set group =>   2
Atom  38C    basis set group =>   1
Atom  39C    basis set group =>   1
Atom  40C    basis set group =>   1
Atom  41C    basis set group =>   1
Atom  42C    basis set group =>   1
Atom  43C    basis set group =>   1
Atom  44H    basis set group =>   2
Atom  45H    basis set group =>   2
Atom  46H    basis set group =>   2
Atom  47H    basis set group =>   2
Atom  48H    basis set group =>   2
---------------------------------
AUXILIARY/J BASIS SET INFORMATION
---------------------------------
There are 2 groups of distinct atoms

 Group   1 Type C   : 17s13p12d2f contracted to 17s13p12d2f pattern {11111111111111111/1111111111111/111111111111/11}
 Group   2 Type H   : 15s6p1d contracted to 15s6p1d pattern {111111111111111/111111/1}

Atom   0C    basis set group =>   1
Atom   1C    basis set group =>   1
Atom   2C    basis set group =>   1
Atom   3C    basis set group =>   1
Atom   4C    basis set group =>   1
Atom   5C    basis set group =>   1
Atom   6C    basis set group =>   1
Atom   7C    basis set group =>   1
Atom   8C    basis set group =>   1
Atom   9H    basis set group =>   2
Atom  10H    basis set group =>   2
Atom  11C    basis set group =>   1
Atom  12H    basis set group =>   2
Atom  13C    basis set group =>   1
Atom  14H    basis set group =>   2
Atom  15H    basis set group =>   2
Atom  16C    basis set group =>   1
Atom  17H    basis set group =>   2
Atom  18H    basis set group =>   2
Atom  19C    basis set group =>   1
Atom  20H    basis set group =>   2
Atom  21H    basis set group =>   2
Atom  22C    basis set group =>   1
Atom  23H    basis set group =>   2
Atom  24H    basis set group =>   2
Atom  25C    basis set group =>   1
Atom  26H    basis set group =>   2
Atom  27H    basis set group =>   2
Atom  28C    basis set group =>   1
Atom  29H    basis set group =>   2
Atom  30H    basis set group =>   2
Atom  31C    basis set group =>   1
Atom  32H    basis set group =>   2
Atom  33H    basis set group =>   2
Atom  34C    basis set group =>   1
Atom  35H    basis set group =>   2
Atom  36H    basis set group =>   2
Atom  37H    basis set group =>   2
Atom  38C    basis set group =>   1
Atom  39C    basis set group =>   1
Atom  40C    basis set group =>   1
Atom  41C    basis set group =>   1
Atom  42C    basis set group =>   1
Atom  43C    basis set group =>   1
Atom  44H    basis set group =>   2
Atom  45H    basis set group =>   2
Atom  46H    basis set group =>   2
Atom  47H    basis set group =>   2
Atom  48H    basis set group =>   2
---------------------------------
AUXILIARY/C BASIS SET INFORMATION
---------------------------------
There are 2 groups of distinct atoms

 Group   1 Type C   : 17s13p12d2f contracted to 17s13p12d2f pattern {11111111111111111/1111111111111/111111111111/11}
 Group   2 Type H   : 15s6p1d contracted to 15s6p1d pattern {111111111111111/111111/1}

Atom   0C    basis set group =>   1
Atom   1C    basis set group =>   1
Atom   2C    basis set group =>   1
Atom   3C    basis set group =>   1
Atom   4C    basis set group =>   1
Atom   5C    basis set group =>   1
Atom   6C    basis set group =>   1
Atom   7C    basis set group =>   1
Atom   8C    basis set group =>   1
Atom   9H    basis set group =>   2
Atom  10H    basis set group =>   2
Atom  11C    basis set group =>   1
Atom  12H    basis set group =>   2
Atom  13C    basis set group =>   1
Atom  14H    basis set group =>   2
Atom  15H    basis set group =>   2
Atom  16C    basis set group =>   1
Atom  17H    basis set group =>   2
Atom  18H    basis set group =>   2
Atom  19C    basis set group =>   1
Atom  20H    basis set group =>   2
Atom  21H    basis set group =>   2
Atom  22C    basis set group =>   1
Atom  23H    basis set group =>   2
Atom  24H    basis set group =>   2
Atom  25C    basis set group =>   1
Atom  26H    basis set group =>   2
Atom  27H    basis set group =>   2
Atom  28C    basis set group =>   1
Atom  29H    basis set group =>   2
Atom  30H    basis set group =>   2
Atom  31C    basis set group =>   1
Atom  32H    basis set group =>   2
Atom  33H    basis set group =>   2
Atom  34C    basis set group =>   1
Atom  35H    basis set group =>   2
Atom  36H    basis set group =>   2
Atom  37H    basis set group =>   2
Atom  38C    basis set group =>   1
Atom  39C    basis set group =>   1
Atom  40C    basis set group =>   1
Atom  41C    basis set group =>   1
Atom  42C    basis set group =>   1
Atom  43C    basis set group =>   1
Atom  44H    basis set group =>   2
Atom  45H    basis set group =>   2
Atom  46H    basis set group =>   2
Atom  47H    basis set group =>   2
Atom  48H    basis set group =>   2
----------------------------------
AUXILIARY/JK BASIS SET INFORMATION
----------------------------------
There are 2 groups of distinct atoms

 Group   1 Type C   : 17s13p12d2f contracted to 17s13p12d2f pattern {11111111111111111/1111111111111/111111111111/11}
 Group   2 Type H   : 15s6p1d contracted to 15s6p1d pattern {111111111111111/111111/1}

Atom   0C    basis set group =>   1
Atom   1C    basis set group =>   1
Atom   2C    basis set group =>   1
Atom   3C    basis set group =>   1
Atom   4C    basis set group =>   1
Atom   5C    basis set group =>   1
Atom   6C    basis set group =>   1
Atom   7C    basis set group =>   1
Atom   8C    basis set group =>   1
Atom   9H    basis set group =>   2
Atom  10H    basis set group =>   2
Atom  11C    basis set group =>   1
Atom  12H    basis set group =>   2
Atom  13C    basis set group =>   1
Atom  14H    basis set group =>   2
Atom  15H    basis set group =>   2
Atom  16C    basis set group =>   1
Atom  17H    basis set group =>   2
Atom  18H    basis set group =>   2
Atom  19C    basis set group =>   1
Atom  20H    basis set group =>   2
Atom  21H    basis set group =>   2
Atom  22C    basis set group =>   1
Atom  23H    basis set group =>   2
Atom  24H    basis set group =>   2
Atom  25C    basis set group =>   1
Atom  26H    basis set group =>   2
Atom  27H    basis set group =>   2
Atom  28C    basis set group =>   1
Atom  29H    basis set group =>   2
Atom  30H    basis set group =>   2
Atom  31C    basis set group =>   1
Atom  32H    basis set group =>   2
Atom  33H    basis set group =>   2
Atom  34C    basis set group =>   1
Atom  35H    basis set group =>   2
Atom  36H    basis set group =>   2
Atom  37H    basis set group =>   2
Atom  38C    basis set group =>   1
Atom  39C    basis set group =>   1
Atom  40C    basis set group =>   1
Atom  41C    basis set group =>   1
Atom  42C    basis set group =>   1
Atom  43C    basis set group =>   1
Atom  44H    basis set group =>   2
Atom  45H    basis set group =>   2
Atom  46H    basis set group =>   2
Atom  47H    basis set group =>   2
Atom  48H    basis set group =>   2

Checking for AutoStart:
The File: EPRII.gbw exists
Trying to determine its content:
     ... Fine, the file contains calculation information
     ... Fine, the calculation information was read
     ... Fine, the file contains a basis set
     ... Fine, the basis set was read
     ... Fine, the file contains a geometry
     ... Fine, the geometry was read
     ... Fine, the file contains a set of orbitals
     ... Fine, the orbitals can be read
     => possible old guess file was deleted
     => GBW file was renamed to GES file
     => GES file is set as startup file
     => Guess is set to MORead
     ... now leaving AutoStart



           ************************************************************
           *        Program running with 16 parallel MPI-processes    *
           *              working on a common directory               *
           ************************************************************
------------------------------------------------------------------------------
                           ORCA GTO INTEGRAL CALCULATION
                           -- RI-GTO INTEGRALS CHOSEN --
------------------------------------------------------------------------------
------------------------------------------------------------------------------
                   ___                                                        
                  /   \      - P O W E R E D   B Y -                         
                 /     \                                                     
                 |  |  |   _    _      __       _____    __    __             
                 |  |  |  | |  | |    /  \     |  _  \  |  |  /  |          
                  \  \/   | |  | |   /    \    | | | |  |  | /  /          
                 / \  \   | |__| |  /  /\  \   | |_| |  |  |/  /          
                |  |  |   |  __  | /  /__\  \  |    /   |      \           
                |  |  |   | |  | | |   __   |  |    \   |  |\   \          
                \     /   | |  | | |  |  |  |  | |\  \  |  | \   \       
                 \___/    |_|  |_| |__|  |__|  |_| \__\ |__|  \__/        
                                                                              
                      - O R C A' S   B I G   F R I E N D -                    
                                      &                                       
                       - I N T E G R A L  F E E D E R -                       
                                                                              
 v1 FN, 2020, v2 2021                                                         
------------------------------------------------------------------------------


Reading SHARK input file EPRII.SHARKINP.tmp ... ok
----------------------
SHARK INTEGRAL PACKAGE
----------------------

Number of atoms                             ...     49
Number of basis functions                   ...    583
Number of shells                            ...    341
Maximum angular momentum                    ...      2
Integral batch strategy                     ... SHARK/LIBINT Hybrid
RI-J (if used) integral strategy            ... SPLIT-RIJ (Revised 2003 algorithm where possible)
Printlevel                                  ...      1
Contraction scheme used                     ... SEGMENTED contraction
Coulomb Range Separation                    ... NOT USED
Exchange Range Separation                   ... NOT USED
Finite Nucleus Model                        ... NOT USED
Auxiliary Coulomb fitting basis             ... AVAILABLE
   # of basis functions in Aux-J            ...   4070
   # of shells in Aux-J                     ...   1606
   Maximum angular momentum in Aux-J        ...      3
Auxiliary J/K fitting basis                 ... AVAILABLE
   # of basis functions in Aux-JK           ...   4070
   # of shells in Aux-JK                    ...   1606
   Maximum angular momentum in Aux-JK       ...      3
Auxiliary Correlation fitting basis         ... AVAILABLE
   # of basis functions in Aux-C            ...   4070
   # of shells in Aux-C                     ...   1606
   Maximum angular momentum in Aux-C        ...      3
Auxiliary 'external' fitting basis          ... NOT available
Integral threshold                          ...     1.000000e-10
Primitive cut-off                           ...     1.000000e-11
Primitive pair pre-selection threshold      ...     1.000000e-11

Calculating pre-screening integrals         ... done (  0.0 sec) Dimension = 341
Organizing shell pair data                  ... done (  0.2 sec)
Shell pair information
Total number of shell pairs                 ...     58311
Shell pairs after pre-screening             ...     29321
Total number of primitive shell pairs       ...    156979
Primitive shell pairs kept                  ...     55227
          la=0 lb=0:  13439 shell pairs
          la=1 lb=0:  10071 shell pairs
          la=1 lb=1:   1816 shell pairs
          la=2 lb=0:   2778 shell pairs
          la=2 lb=1:   1054 shell pairs
          la=2 lb=2:    163 shell pairs

Calculating one electron integrals          ... done (  0.0 sec)
Calculating RI/J V-Matrix + Cholesky decomp.... done (  1.0 sec)
Calculating RI/JK V-Matrix + Cholesky decomp... done (  1.0 sec)
Calculating RI/C V-Matrix + Cholesky decomp.... done (  1.0 sec)
Calculating Nuclear repulsion               ... done (  0.0 sec) ENN=   1724.022777785751 Eh

SHARK setup successfully completed in   3.7 seconds

Maximum memory used throughout the entire GTOINT-calculation: 59.3 MB


           ************************************************************
           *        Program running with 16 parallel MPI-processes    *
           *              working on a common directory               *
           ************************************************************
-------------------------------------------------------------------------------
                                 ORCA SCF
-------------------------------------------------------------------------------

------------
SCF SETTINGS
------------
Hamiltonian:
 Density Functional     Method          .... DFT(GTOs)
 Exchange Functional    Exchange        .... B88
   X-Alpha parameter    XAlpha          ....  0.666667
   Becke's b parameter  XBeta           ....  0.004200
 Correlation Functional Correlation     .... LYP
 LDA part of GGA corr.  LDAOpt          .... VWN-5
 Gradients option       PostSCFGGA      .... off
 Hybrid DFT is turned on
   Fraction HF Exchange ScalHFX         ....  0.200000
   Scaling of DF-GGA-X  ScalDFX         ....  0.720000
   Scaling of DF-GGA-C  ScalDFC         ....  0.810000
   Scaling of DF-LDA-C  ScalLDAC        ....  1.000000
   Perturbative correction              ....  0.000000
   Density functional embedding theory  .... OFF
   NL short-range parameter             ....  4.800000
 RI-approximation to the Coulomb term is turned on
   Number of AuxJ basis functions       .... 4070
   RIJ-COSX (HFX calculated with COS-X)).... on


General Settings:
 Integral files         IntName         .... EPRII
 Hartree-Fock type      HFTyp           .... UHF
 Total Charge           Charge          ....    0
 Multiplicity           Mult            ....    2
 Number of Electrons    NEL             ....  169
 Basis Dimension        Dim             ....  583
 Nuclear Repulsion      ENuc            ....   1724.0227777858 Eh

Convergence Acceleration:
 DIIS                   CNVDIIS         .... on
   Start iteration      DIISMaxIt       ....    12
   Startup error        DIISStart       ....  0.200000
   # of expansion vecs  DIISMaxEq       ....     5
   Bias factor          DIISBfac        ....   1.050
   Max. coefficient     DIISMaxC        ....  10.000
 Trust-Rad. Augm. Hess. CNVTRAH         .... auto
   Auto Start mean grad. ratio tolernc. ....  1.125000
   Auto Start start iteration           ....     1
   Auto Start num. interpolation iter.  ....    10
   Max. Number of Micro iterations      ....    16
   Max. Number of Macro iterations      .... Maxiter - #DIIS iter
   Number of Davidson start vectors     ....     2
   Converg. threshold I  (grad. norm)   ....   5.000e-05
   Converg. threshold II (energy diff.) ....   1.000e-06
   Grad. Scal. Fac. for Micro threshold ....   0.100
   Minimum threshold for Micro iter.    ....   0.010
   NR start threshold (gradient norm)   ....   0.001
   Initial trust radius                 ....   0.400
   Minimum AH scaling param. (alpha)    ....   1.000
   Maximum AH scaling param. (alpha)    .... 1000.000
   Orbital update algorithm             .... Taylor
   White noise on init. David. guess    .... on
   Maximum white noise                  ....   0.010
   Quad. conv. algorithm                .... NR
 SOSCF                  CNVSOSCF        .... off
 Level Shifting         CNVShift        .... on
   Level shift para.    LevelShift      ....    0.2500
   Turn off err/grad.   ShiftErr        ....    0.0010
 Zerner damping         CNVZerner       .... off
 Static damping         CNVDamp         .... on
   Fraction old density DampFac         ....    0.7000
   Max. Damping (<1)    DampMax         ....    0.9800
   Min. Damping (>=0)   DampMin         ....    0.0000
   Turn off err/grad.   DampErr         ....    0.1000
 Fernandez-Rico         CNVRico         .... off

SCF Procedure:
 Maximum # iterations   MaxIter         ....   125
 SCF integral mode      SCFMode         .... Direct
   Integral package                     .... SHARK and LIBINT hybrid scheme
 Reset frequency        DirectResetFreq ....    20
 Integral Threshold     Thresh          ....  1.000e-10 Eh
 Primitive CutOff       TCut            ....  1.000e-11 Eh

Convergence Tolerance:
 Convergence Check Mode ConvCheckMode   .... Total+1el-Energy
 Convergence forced     ConvForced      .... 0
 Energy Change          TolE            ....  1.000e-06 Eh
 1-El. energy change                    ....  1.000e-03 Eh
 DIIS Error             TolErr          ....  1.000e-06


Diagonalization of the overlap matrix:
Smallest eigenvalue                        ... 7.283e-05
Time for diagonalization                   ...    0.077 sec
Threshold for overlap eigenvalues          ... 1.000e-08
Number of eigenvalues below threshold      ... 0
Time for construction of square roots      ...    0.066 sec
Total time needed                          ...    0.145 sec

---------------------
INITIAL GUESS: MOREAD
---------------------
Guess MOs are being read from file: EPRII.ges
Input Geometry matches current geometry (good)
Input basis set matches current basis set (good)
MOs were renormalized
MOs were reorthogonalized (Cholesky)
                      ------------------
                      INITIAL GUESS DONE (   0.3 sec)
                      ------------------
-------------------
DFT GRID GENERATION
-------------------

General Integration Accuracy     IntAcc      ... 4.388
Radial Grid Type                 RadialGrid  ... OptM3 with GC (2021)
Angular Grid (max. ang.)         AngularGrid ... 4 (Lebedev-302)
Angular grid pruning method      GridPruning ... 4 (adaptive)
Weight generation scheme         WeightScheme... Becke
Basis function cutoff            BFCut       ... 1.0000e-10
Integration weight cutoff        WCut        ... 1.0000e-14
Angular grids for H and He will be reduced by one unit
Partially contracted basis set               ... off
Rotationally invariant grid construction     ... off

Total number of grid points                  ...   223167
Total number of batches                      ...     3511
Average number of points per batch           ...       63
Average number of grid points per atom       ...     4554
Time for grid setup =    1.565 sec

--------------------
COSX GRID GENERATION
--------------------

GRIDX 1
-------
General Integration Accuracy     IntAcc      ... 3.816
Radial Grid Type                 RadialGrid  ... OptM3 with GC (2021)
Angular Grid (max. ang.)         AngularGrid ... 1 (Lebedev-50)
Angular grid pruning method      GridPruning ... 4 (adaptive)
Weight generation scheme         WeightScheme... Becke
Basis function cutoff            BFCut       ... 1.0000e-10
Integration weight cutoff        WCut        ... 1.0000e-14
Angular grids for H and He will be reduced by one unit
Partially contracted basis set               ... on
Rotationally invariant grid construction     ... off

Total number of grid points                  ...    28454
Total number of batches                      ...      471
Average number of points per batch           ...       60
Average number of grid points per atom       ...      581
UseSFitting                                  ... on

GRIDX 2
-------
General Integration Accuracy     IntAcc      ... 4.020
Radial Grid Type                 RadialGrid  ... OptM3 with GC (2021)
Angular Grid (max. ang.)         AngularGrid ... 2 (Lebedev-110)
Angular grid pruning method      GridPruning ... 4 (adaptive)
Weight generation scheme         WeightScheme... Becke
Basis function cutoff            BFCut       ... 1.0000e-10
Integration weight cutoff        WCut        ... 1.0000e-14
Angular grids for H and He will be reduced by one unit
Partially contracted basis set               ... on
Rotationally invariant grid construction     ... off

Total number of grid points                  ...    60638
Total number of batches                      ...      972
Average number of points per batch           ...       62
Average number of grid points per atom       ...     1238
UseSFitting                                  ... on

GRIDX 3
-------
General Integration Accuracy     IntAcc      ... 4.338
Radial Grid Type                 RadialGrid  ... OptM3 with GC (2021)
Angular Grid (max. ang.)         AngularGrid ... 3 (Lebedev-194)
Angular grid pruning method      GridPruning ... 4 (adaptive)
Weight generation scheme         WeightScheme... Becke
Basis function cutoff            BFCut       ... 1.0000e-10
Integration weight cutoff        WCut        ... 1.0000e-14
Angular grids for H and He will be reduced by one unit
Partially contracted basis set               ... on
Rotationally invariant grid construction     ... off

Total number of grid points                  ...   132616
Total number of batches                      ...     2098
Average number of points per batch           ...       63
Average number of grid points per atom       ...     2706
UseSFitting                                  ... on

Time for X-Grid setup             =    2.553 sec

--------------
SCF ITERATIONS
--------------
ITER       Energy         Delta-E        Max-DP      RMS-DP      [F,P]     Damp
               ***  Starting incremental Fock matrix formation  ***
  0   -928.9717183895   0.000000000000 0.00012988  0.00000087  0.0001038 0.7000
                 **** Energy Check signals convergence ****

               *****************************************************
               *                     SUCCESS                       *
               *           SCF CONVERGED AFTER   1 CYCLES          *
               *****************************************************

Old exchange energy                            =    -26.605885402 Eh
New exchange energy                            =    -26.605900872 Eh
Exchange energy change after final integration =     -0.000015470 Eh
Total energy after final integration           =   -928.971733764 Eh
Final COS-X integration done in                =    11.974 sec

----------------
TOTAL SCF ENERGY
----------------

Total Energy       :         -928.97173376 Eh          -25278.60602 eV

Components:
Nuclear Repulsion  :         1724.02277779 Eh           46913.04480 eV
Electronic Energy  :        -2652.99451155 Eh          -72191.65081 eV
One Electron Energy:        -4676.89642168 Eh         -127264.82165 eV
Two Electron Energy:         2023.90191013 Eh           55073.17084 eV
Max COSX asymmetry :            0.00000330 Eh               0.00009 eV

Virial components:
Potential Energy   :        -1850.51795123 Eh          -50355.15346 eV
Kinetic Energy     :          921.54621746 Eh           25076.54744 eV
Virial Ratio       :            2.00805767


DFT components:
N(Alpha)           :       85.000160588953 electrons
N(Beta)            :       84.000150191176 electrons
N(Total)           :      169.000310780129 electrons
E(X)               :     -105.549597661818 Eh       
E(C)               :       -6.576860581333 Eh       
E(XC)              :     -112.126458243151 Eh       
DFET-embed. en.    :        0.000000000000 Eh       

---------------
SCF CONVERGENCE
---------------

  Last Energy change         ...    9.5281e-08  Tolerance :   1.0000e-06
  Last MAX-Density change    ...    3.0071e-05  Tolerance :   1.0000e-05
  Last RMS-Density change    ...    2.5784e-07  Tolerance :   1.0000e-06
  Last DIIS Error            ...    6.1667e-05  Tolerance :   1.0000e-06

             **** THE GBW FILE WAS UPDATED (EPRII.gbw) ****
             **** DENSITY EPRII.scfp WAS UPDATED ****
             **** ENERGY FILE WAS UPDATED (EPRII.en.tmp) ****
----------------------
UHF SPIN CONTAMINATION
----------------------

Warning: in a DFT calculation there is little theoretical justification to 
         calculate <S**2> as in Hartree-Fock theory. We will do it anyways
         but you should keep in mind that the values have only limited relevance

Expectation value of <S**2>     :     0.786518
Ideal value S*(S+1) for S=0.5   :     0.750000
Deviation                       :     0.036518

             **** THE GBW FILE WAS UPDATED (EPRII.gbw) ****
             **** DENSITY EPRII.scfp WAS UPDATED ****
----------------
ORBITAL ENERGIES
----------------
                 SPIN UP ORBITALS
  NO   OCC          E(Eh)            E(eV) 
   0   1.0000     -10.227892      -278.3151 
   1   1.0000     -10.223291      -278.1899 
   2   1.0000     -10.221884      -278.1516 
   3   1.0000     -10.211216      -277.8613 
   4   1.0000     -10.208296      -277.7818 
   5   1.0000     -10.205700      -277.7112 
   6   1.0000     -10.205578      -277.7079 
   7   1.0000     -10.205312      -277.7007 
   8   1.0000     -10.204602      -277.6813 
   9   1.0000     -10.204402      -277.6759 
  10   1.0000     -10.203350      -277.6473 
  11   1.0000     -10.202388      -277.6211 
  12   1.0000     -10.201132      -277.5869 
  13   1.0000     -10.200253      -277.5630 
  14   1.0000     -10.197702      -277.4936 
  15   1.0000     -10.197064      -277.4762 
  16   1.0000     -10.195860      -277.4435 
  17   1.0000     -10.189626      -277.2738 
  18   1.0000     -10.188119      -277.2328 
  19   1.0000     -10.184661      -277.1387 
  20   1.0000     -10.182748      -277.0867 
  21   1.0000     -10.182409      -277.0774 
  22   1.0000     -10.174931      -276.8739 
  23   1.0000     -10.173245      -276.8281 
  24   1.0000      -0.873457       -23.7680 
  25   1.0000      -0.863700       -23.5025 
  26   1.0000      -0.819140       -22.2899 
  27   1.0000      -0.797917       -21.7124 
  28   1.0000      -0.794971       -21.6322 
  29   1.0000      -0.778797       -21.1922 
  30   1.0000      -0.766745       -20.8642 
  31   1.0000      -0.751721       -20.4554 
  32   1.0000      -0.745035       -20.2734 
  33   1.0000      -0.729131       -19.8407 
  34   1.0000      -0.714872       -19.4527 
  35   1.0000      -0.696607       -18.9556 
  36   1.0000      -0.655662       -17.8415 
  37   1.0000      -0.644161       -17.5285 
  38   1.0000      -0.619971       -16.8703 
  39   1.0000      -0.611671       -16.6444 
  40   1.0000      -0.610105       -16.6018 
  41   1.0000      -0.592140       -16.1130 
  42   1.0000      -0.579290       -15.7633 
  43   1.0000      -0.561619       -15.2824 
  44   1.0000      -0.542594       -14.7647 
  45   1.0000      -0.531161       -14.4536 
  46   1.0000      -0.507378       -13.8065 
  47   1.0000      -0.490938       -13.3591 
  48   1.0000      -0.481050       -13.0900 
  49   1.0000      -0.476324       -12.9614 
  50   1.0000      -0.470513       -12.8033 
  51   1.0000      -0.462071       -12.5736 
  52   1.0000      -0.457596       -12.4518 
  53   1.0000      -0.438315       -11.9272 
  54   1.0000      -0.431792       -11.7496 
  55   1.0000      -0.429138       -11.6774 
  56   1.0000      -0.425945       -11.5906 
  57   1.0000      -0.425404       -11.5758 
  58   1.0000      -0.421932       -11.4813 
  59   1.0000      -0.411417       -11.1952 
  60   1.0000      -0.398251       -10.8369 
  61   1.0000      -0.397379       -10.8132 
  62   1.0000      -0.383711       -10.4413 
  63   1.0000      -0.378406       -10.2970 
  64   1.0000      -0.377423       -10.2702 
  65   1.0000      -0.364632        -9.9221 
  66   1.0000      -0.362841        -9.8734 
  67   1.0000      -0.356562        -9.7026 
  68   1.0000      -0.354341        -9.6421 
  69   1.0000      -0.352252        -9.5853 
  70   1.0000      -0.339505        -9.2384 
  71   1.0000      -0.332423        -9.0457 
  72   1.0000      -0.332053        -9.0356 
  73   1.0000      -0.330370        -8.9898 
  74   1.0000      -0.327205        -8.9037 
  75   1.0000      -0.323191        -8.7945 
  76   1.0000      -0.321385        -8.7453 
  77   1.0000      -0.298067        -8.1108 
  78   1.0000      -0.275361        -7.4930 
  79   1.0000      -0.275334        -7.4922 
  80   1.0000      -0.269695        -7.3388 
  81   1.0000      -0.259510        -7.0616 
  82   1.0000      -0.256640        -6.9835 
  83   1.0000      -0.215632        -5.8677 
  84   1.0000      -0.173665        -4.7257 
  85   0.0000      -0.062159        -1.6914 
  86   0.0000      -0.014726        -0.4007 
  87   0.0000      -0.012349        -0.3360 
  88   0.0000       0.014095         0.3835 
  89   0.0000       0.014280         0.3886 
  90   0.0000       0.021086         0.5738 
  91   0.0000       0.021969         0.5978 
  92   0.0000       0.029804         0.8110 
  93   0.0000       0.033488         0.9113 
  94   0.0000       0.035577         0.9681 
  95   0.0000       0.040099         1.0911 
  96   0.0000       0.045216         1.2304 
  97   0.0000       0.048011         1.3064 
  98   0.0000       0.050261         1.3677 
  99   0.0000       0.055348         1.5061 
 100   0.0000       0.060835         1.6554 
 101   0.0000       0.061042         1.6610 
 102   0.0000       0.067527         1.8375 
 103   0.0000       0.076747         2.0884 
 104   0.0000       0.081035         2.2051 
 105   0.0000       0.083653         2.2763 
 106   0.0000       0.090484         2.4622 
 107   0.0000       0.106144         2.8883 
 108   0.0000       0.109852         2.9892 
 109   0.0000       0.113498         3.0884 
 110   0.0000       0.117457         3.1962 
 111   0.0000       0.127567         3.4713 
 112   0.0000       0.137722         3.7476 
 113   0.0000       0.153672         4.1816 
 114   0.0000       0.154063         4.1923 
 115   0.0000       0.158227         4.3056 
 116   0.0000       0.161101         4.3838 
 117   0.0000       0.172300         4.6885 
 118   0.0000       0.176083         4.7915 
 119   0.0000       0.181616         4.9420 
 120   0.0000       0.183588         4.9957 
 121   0.0000       0.192267         5.2319 
 122   0.0000       0.193379         5.2621 
 123   0.0000       0.199555         5.4302 
 124   0.0000       0.200248         5.4490 
 125   0.0000       0.200351         5.4518 
 126   0.0000       0.203198         5.5293 
 127   0.0000       0.206903         5.6301 
 128   0.0000       0.215432         5.8622 
 129   0.0000       0.217242         5.9114 
 130   0.0000       0.219164         5.9638 
 131   0.0000       0.221492         6.0271 
 132   0.0000       0.225093         6.1251 
 133   0.0000       0.235563         6.4100 
 134   0.0000       0.238626         6.4933 
 135   0.0000       0.244836         6.6623 
 136   0.0000       0.246898         6.7184 
 137   0.0000       0.251115         6.8332 
 138   0.0000       0.251718         6.8496 
 139   0.0000       0.253862         6.9079 
 140   0.0000       0.260115         7.0781 
 141   0.0000       0.265169         7.2156 
 142   0.0000       0.270746         7.3674 
 143   0.0000       0.274767         7.4768 
 144   0.0000       0.276724         7.5300 
 145   0.0000       0.277276         7.5451 
 146   0.0000       0.285060         7.7569 
 147   0.0000       0.285319         7.7639 
 148   0.0000       0.287361         7.8195 
 149   0.0000       0.291939         7.9441 
 150   0.0000       0.292826         7.9682 
 151   0.0000       0.297771         8.1028 
 152   0.0000       0.298980         8.1357 
 153   0.0000       0.303426         8.2566 
 154   0.0000       0.308406         8.3922 
 155   0.0000       0.309640         8.4257 
 156   0.0000       0.311308         8.4711 
 157   0.0000       0.312543         8.5047 
 158   0.0000       0.316826         8.6213 
 159   0.0000       0.317934         8.6514 
 160   0.0000       0.318806         8.6751 
 161   0.0000       0.323595         8.8055 
 162   0.0000       0.329306         8.9609 
 163   0.0000       0.334981         9.1153 
 164   0.0000       0.338563         9.2128 
 165   0.0000       0.344647         9.3783 
 166   0.0000       0.347539         9.4570 
 167   0.0000       0.348303         9.4778 
 168   0.0000       0.349602         9.5132 
 169   0.0000       0.356939         9.7128 
 170   0.0000       0.359870         9.7925 
 171   0.0000       0.370307        10.0766 
 172   0.0000       0.372097        10.1253 
 173   0.0000       0.376580        10.2473 
 174   0.0000       0.378149        10.2899 
 175   0.0000       0.383662        10.4400 
 176   0.0000       0.388881        10.5820 
 177   0.0000       0.397851        10.8261 
 178   0.0000       0.400927        10.9098 
 179   0.0000       0.404923        11.0185 
 180   0.0000       0.407899        11.0995 
 181   0.0000       0.414834        11.2882 
 182   0.0000       0.416908        11.3447 
 183   0.0000       0.420480        11.4418 
 184   0.0000       0.427258        11.6263 
 185   0.0000       0.428352        11.6560 
 186   0.0000       0.430332        11.7099 
 187   0.0000       0.439304        11.9541 
 188   0.0000       0.445007        12.1093 
 189   0.0000       0.447893        12.1878 
 190   0.0000       0.449926        12.2431 
 191   0.0000       0.455732        12.4011 
 192   0.0000       0.459641        12.5075 
 193   0.0000       0.468108        12.7379 
 194   0.0000       0.470942        12.8150 
 195   0.0000       0.473941        12.8966 
 196   0.0000       0.476166        12.9571 
 197   0.0000       0.481784        13.1100 
 198   0.0000       0.483930        13.1684 
 199   0.0000       0.488932        13.3045 
 200   0.0000       0.501787        13.6543 
 201   0.0000       0.502890        13.6843 
 202   0.0000       0.511982        13.9317 
 203   0.0000       0.517392        14.0789 
 204   0.0000       0.522569        14.2198 
 205   0.0000       0.524655        14.2766 
 206   0.0000       0.532129        14.4800 
 207   0.0000       0.534975        14.5574 
 208   0.0000       0.538283        14.6474 
 209   0.0000       0.546783        14.8787 
 210   0.0000       0.550910        14.9910 
 211   0.0000       0.554674        15.0935 
 212   0.0000       0.558566        15.1993 
 213   0.0000       0.570220        15.5165 
 214   0.0000       0.586551        15.9609 
 215   0.0000       0.587122        15.9764 
 216   0.0000       0.595132        16.1944 
 217   0.0000       0.595786        16.2122 
 218   0.0000       0.604120        16.4389 
 219   0.0000       0.606315        16.4987 
 220   0.0000       0.611768        16.6470 
 221   0.0000       0.627892        17.0858 
 222   0.0000       0.633832        17.2475 
 223   0.0000       0.647333        17.6148 
 224   0.0000       0.648114        17.6361 
 225   0.0000       0.667074        18.1520 
 226   0.0000       0.672086        18.2884 
 227   0.0000       0.673434        18.3251 
 228   0.0000       0.678166        18.4538 
 229   0.0000       0.683357        18.5951 
 230   0.0000       0.706604        19.2277 
 231   0.0000       0.725606        19.7447 
 232   0.0000       0.727836        19.8054 
 233   0.0000       0.763855        20.7856 
 234   0.0000       0.769676        20.9439 
 235   0.0000       0.776834        21.1387 
 236   0.0000       0.791282        21.5319 
 237   0.0000       0.795267        21.6403 
 238   0.0000       0.813234        22.1292 
 239   0.0000       0.830091        22.5879 
 240   0.0000       0.836505        22.7625 
 241   0.0000       0.840164        22.8620 
 242   0.0000       0.847457        23.0605 
 243   0.0000       0.850368        23.1397 
 244   0.0000       0.853151        23.2154 
 245   0.0000       0.857219        23.3261 
 246   0.0000       0.861491        23.4424 
 247   0.0000       0.867522        23.6065 
 248   0.0000       0.867829        23.6148 
 249   0.0000       0.870636        23.6912 
 250   0.0000       0.884309        24.0633 
 251   0.0000       0.892054        24.2740 
 252   0.0000       0.895421        24.3656 
 253   0.0000       0.901960        24.5436 
 254   0.0000       0.910652        24.7801 
 255   0.0000       0.912289        24.8246 
 256   0.0000       0.915724        24.9181 
 257   0.0000       0.926570        25.2133 
 258   0.0000       0.926996        25.2249 
 259   0.0000       0.929612        25.2960 
 260   0.0000       0.935444        25.4547 
 261   0.0000       0.935744        25.4629 
 262   0.0000       0.940392        25.5894 
 263   0.0000       0.946596        25.7582 
 264   0.0000       0.956891        26.0383 
 265   0.0000       0.958486        26.0817 
 266   0.0000       0.962437        26.1892 
 267   0.0000       0.970195        26.4004 
 268   0.0000       0.977274        26.5930 
 269   0.0000       0.978085        26.6150 
 270   0.0000       0.979155        26.6441 
 271   0.0000       0.992496        27.0072 
 272   0.0000       0.994404        27.0591 
 273   0.0000       0.997342        27.1390 
 274   0.0000       1.001669        27.2568 
 275   0.0000       1.003604        27.3095 
 276   0.0000       1.005586        27.3634 
 277   0.0000       1.013281        27.5728 
 278   0.0000       1.027273        27.9535 
 279   0.0000       1.029316        28.0091 
 280   0.0000       1.030053        28.0292 
 281   0.0000       1.034668        28.1548 
 282   0.0000       1.038102        28.2482 
 283   0.0000       1.042694        28.3732 
 284   0.0000       1.051881        28.6231 
 285   0.0000       1.058430        28.8013 
 286   0.0000       1.064660        28.9709 
 287   0.0000       1.066873        29.0311 
 288   0.0000       1.067460        29.0471 
 289   0.0000       1.094208        29.7749 
 290   0.0000       1.102098        29.9896 
 291   0.0000       1.113128        30.2898 
 292   0.0000       1.113810        30.3083 
 293   0.0000       1.114897        30.3379 
 294   0.0000       1.124283        30.5933 
 295   0.0000       1.130326        30.7577 
 296   0.0000       1.138003        30.9666 
 297   0.0000       1.150753        31.3136 
 298   0.0000       1.156210        31.4621 
 299   0.0000       1.172642        31.9092 
 300   0.0000       1.178880        32.0790 
 301   0.0000       1.179317        32.0909 
 302   0.0000       1.187135        32.3036 
 303   0.0000       1.190393        32.3922 
 304   0.0000       1.201779        32.7021 
 305   0.0000       1.203574        32.7509 
 306   0.0000       1.219028        33.1715 
 307   0.0000       1.221450        33.2373 
 308   0.0000       1.241905        33.7940 
 309   0.0000       1.242582        33.8124 
 310   0.0000       1.253850        34.1190 
 311   0.0000       1.257172        34.2094 
 312   0.0000       1.264138        34.3989 
 313   0.0000       1.274437        34.6792 
 314   0.0000       1.288489        35.0616 
 315   0.0000       1.299713        35.3670 
 316   0.0000       1.307568        35.5807 
 317   0.0000       1.313052        35.7300 
 318   0.0000       1.320410        35.9302 
 319   0.0000       1.321696        35.9652 
 320   0.0000       1.331578        36.2341 
 321   0.0000       1.340700        36.4823 
 322   0.0000       1.349957        36.7342 
 323   0.0000       1.353006        36.8172 
 324   0.0000       1.368020        37.2257 
 325   0.0000       1.381448        37.5911 
 326   0.0000       1.385089        37.6902 
 327   0.0000       1.398794        38.0631 
 328   0.0000       1.401609        38.1397 
 329   0.0000       1.407736        38.3064 
 330   0.0000       1.424216        38.7549 
 331   0.0000       1.427150        38.8347 
 332   0.0000       1.429761        38.9058 
 333   0.0000       1.434165        39.0256 
 334   0.0000       1.440923        39.2095 
 335   0.0000       1.446684        39.3663 
 336   0.0000       1.448223        39.4082 
 337   0.0000       1.452106        39.5138 
 338   0.0000       1.461045        39.7571 
 339   0.0000       1.465425        39.8762 
 340   0.0000       1.478834        40.2411 
 341   0.0000       1.488375        40.5007 
 342   0.0000       1.498403        40.7736 
 343   0.0000       1.504504        40.9396 
 344   0.0000       1.508761        41.0555 
 345   0.0000       1.512977        41.1702 
 346   0.0000       1.518523        41.3211 
 347   0.0000       1.519329        41.3431 
 348   0.0000       1.541786        41.9541 
 349   0.0000       1.560677        42.4682 
 350   0.0000       1.561846        42.5000 
 351   0.0000       1.562964        42.5304 
 352   0.0000       1.563262        42.5385 
 353   0.0000       1.565539        42.6005 
 354   0.0000       1.578140        42.9434 
 355   0.0000       1.587134        43.1881 
 356   0.0000       1.589024        43.2396 
 357   0.0000       1.590620        43.2830 
 358   0.0000       1.600040        43.5393 
 359   0.0000       1.602370        43.6027 
 360   0.0000       1.603853        43.6431 
 361   0.0000       1.616864        43.9971 
 362   0.0000       1.619254        44.0621 
 363   0.0000       1.628365        44.3101 
 364   0.0000       1.638762        44.5930 
 365   0.0000       1.638945        44.5980 
 366   0.0000       1.643541        44.7230 
 367   0.0000       1.656832        45.0847 
 368   0.0000       1.657941        45.1149 
 369   0.0000       1.659446        45.1558 
 370   0.0000       1.678533        45.6752 
 371   0.0000       1.682509        45.7834 
 372   0.0000       1.686285        45.8861 
 373   0.0000       1.692690        46.0604 
 374   0.0000       1.693341        46.0781 
 375   0.0000       1.698032        46.2058 
 376   0.0000       1.704845        46.3912 
 377   0.0000       1.705122        46.3987 
 378   0.0000       1.717182        46.7269 
 379   0.0000       1.726228        46.9730 
 380   0.0000       1.735085        47.2141 
 381   0.0000       1.737493        47.2796 
 382   0.0000       1.744505        47.4704 
 383   0.0000       1.757377        47.8207 
 384   0.0000       1.766038        48.0563 
 385   0.0000       1.771113        48.1944 
 386   0.0000       1.775788        48.3216 
 387   0.0000       1.776090        48.3299 
 388   0.0000       1.790485        48.7216 
 389   0.0000       1.792286        48.7706 
 390   0.0000       1.796800        48.8934 
 391   0.0000       1.805303        49.1248 
 392   0.0000       1.809426        49.2370 
 393   0.0000       1.816135        49.4195 
 394   0.0000       1.830680        49.8153 
 395   0.0000       1.832594        49.8674 
 396   0.0000       1.837613        50.0040 
 397   0.0000       1.856579        50.5201 
 398   0.0000       1.857197        50.5369 
 399   0.0000       1.866749        50.7968 
 400   0.0000       1.870130        50.8888 
 401   0.0000       1.901523        51.7431 
 402   0.0000       1.926022        52.4097 
 403   0.0000       1.932402        52.5833 
 404   0.0000       1.932666        52.5905 
 405   0.0000       1.943136        52.8754 
 406   0.0000       1.952156        53.1209 
 407   0.0000       1.960165        53.3388 
 408   0.0000       1.974217        53.7212 
 409   0.0000       1.976441        53.7817 
 410   0.0000       2.011630        54.7392 
 411   0.0000       2.023141        55.0525 
 412   0.0000       2.037900        55.4541 
 413   0.0000       2.041105        55.5413 
 414   0.0000       2.043943        55.6185 
 415   0.0000       2.056636        55.9639 
 416   0.0000       2.078086        56.5476 
 417   0.0000       2.087058        56.7917 
 418   0.0000       2.103410        57.2367 
 419   0.0000       2.110795        57.4377 
 420   0.0000       2.117068        57.6084 
 421   0.0000       2.129521        57.9472 
 422   0.0000       2.143797        58.3357 
 423   0.0000       2.143985        58.3408 
 424   0.0000       2.154109        58.6163 
 425   0.0000       2.187646        59.5289 
 426   0.0000       2.200862        59.8885 
 427   0.0000       2.200992        59.8920 
 428   0.0000       2.214651        60.2637 
 429   0.0000       2.215314        60.2818 
 430   0.0000       2.227048        60.6011 
 431   0.0000       2.243232        61.0415 
 432   0.0000       2.256622        61.4058 
 433   0.0000       2.257438        61.4280 
 434   0.0000       2.271087        61.7994 
 435   0.0000       2.278727        62.0073 
 436   0.0000       2.307083        62.7789 
 437   0.0000       2.313554        62.9550 
 438   0.0000       2.317514        63.0628 
 439   0.0000       2.324575        63.2549 
 440   0.0000       2.331426        63.4413 
 441   0.0000       2.353461        64.0409 
 442   0.0000       2.373726        64.5924 
 443   0.0000       2.385506        64.9129 
 444   0.0000       2.398825        65.2754 
 445   0.0000       2.407445        65.5099 
 446   0.0000       2.412609        65.6504 
 447   0.0000       2.414154        65.6925 
 448   0.0000       2.428753        66.0897 
 449   0.0000       2.443021        66.4780 
 450   0.0000       2.454690        66.7955 
 451   0.0000       2.461144        66.9711 
 452   0.0000       2.465169        67.0807 
 453   0.0000       2.470829        67.2347 
 454   0.0000       2.474863        67.3444 
 455   0.0000       2.483575        67.5815 
 456   0.0000       2.505474        68.1774 
 457   0.0000       2.511591        68.3439 
 458   0.0000       2.519990        68.5724 
 459   0.0000       2.523282        68.6620 
 460   0.0000       2.536865        69.0316 
 461   0.0000       2.538378        69.0728 
 462   0.0000       2.547385        69.3179 
 463   0.0000       2.560592        69.6773 
 464   0.0000       2.567616        69.8684 
 465   0.0000       2.569788        69.9275 
 466   0.0000       2.582523        70.2740 
 467   0.0000       2.583664        70.3051 
 468   0.0000       2.601434        70.7886 
 469   0.0000       2.614679        71.1490 
 470   0.0000       2.615283        71.1655 
 471   0.0000       2.630257        71.5729 
 472   0.0000       2.658348        72.3373 
 473   0.0000       2.709892        73.7399 
 474   0.0000       2.751738        74.8786 
 475   0.0000       2.775709        75.5309 
 476   0.0000       2.794932        76.0540 
 477   0.0000       2.796003        76.0831 
 478   0.0000       2.862132        77.8826 
 479   0.0000       2.943267        80.0904 
 480   0.0000       2.957710        80.4834 
 481   0.0000       2.971655        80.8628 
 482   0.0000       3.071290        83.5741 
 483   0.0000       3.296249        89.6955 
 484   0.0000       3.431239        93.3688 
 485   0.0000       4.978783       135.4796 
 486   0.0000       4.985323       135.6575 
 487   0.0000       5.003488       136.1518 
 488   0.0000       5.010431       136.3408 
 489   0.0000       5.010803       136.3509 
 490   0.0000       5.020920       136.6262 
 491   0.0000       5.024631       136.7271 
 492   0.0000       5.025331       136.7462 
 493   0.0000       5.034511       136.9960 
 494   0.0000       5.047117       137.3390 
 495   0.0000       5.090205       138.5115 
 496   0.0000       5.096579       138.6850 
 497   0.0000       5.170611       140.6995 
 498   0.0000       5.199270       141.4793 
 499   0.0000       5.215349       141.9169 
 500   0.0000       5.227506       142.2477 
 501   0.0000       5.247567       142.7936 
 502   0.0000       5.248642       142.8228 
 503   0.0000       5.262149       143.1904 
 504   0.0000       5.283869       143.7814 
 505   0.0000       5.290247       143.9549 
 506   0.0000       5.298547       144.1808 
 507   0.0000       5.309071       144.4672 
 508   0.0000       5.316701       144.6748 
 509   0.0000       5.351456       145.6205 
 510   0.0000       5.367382       146.0539 
 511   0.0000       5.371106       146.1552 
 512   0.0000       5.380249       146.4040 
 513   0.0000       5.400519       146.9556 
 514   0.0000       5.445520       148.1801 
 515   0.0000       5.455425       148.4497 
 516   0.0000       5.479134       149.0948 
 517   0.0000       5.559146       151.2720 
 518   0.0000       5.563663       151.3950 
 519   0.0000       5.592571       152.1816 
 520   0.0000       5.632670       153.2728 
 521   0.0000       5.645998       153.6354 
 522   0.0000       5.652670       153.8170 
 523   0.0000       5.677925       154.5042 
 524   0.0000       5.738975       156.1654 
 525   0.0000       5.746138       156.3604 
 526   0.0000       5.782478       157.3492 
 527   0.0000       5.835615       158.7952 
 528   0.0000       5.853450       159.2805 
 529   0.0000       5.879854       159.9990 
 530   0.0000       5.929274       161.3438 
 531   0.0000       6.105651       166.1432 
 532   0.0000       6.280758       170.9081 
 533   0.0000       6.359915       173.0621 
 534   0.0000      29.617224       805.9256 
 535   0.0000      29.737624       809.2019 
 536   0.0000      29.810734       811.1913 
 537   0.0000      29.839618       811.9773 
 538   0.0000      29.855380       812.4062 
 539   0.0000      29.860419       812.5433 
 540   0.0000      29.956713       815.1636 
 541   0.0000      29.978735       815.7629 
 542   0.0000      29.999138       816.3181 
 543   0.0000      30.039098       817.4054 
 544   0.0000      30.076017       818.4100 
 545   0.0000      30.098574       819.0238 
 546   0.0000      30.105681       819.2172 
 547   0.0000      30.124149       819.7198 
 548   0.0000      30.133911       819.9854 
 549   0.0000      30.176136       821.1344 
 550   0.0000      30.222169       822.3870 
 551   0.0000      30.251111       823.1746 
 552   0.0000      30.257996       823.3619 
 553   0.0000      30.277177       823.8839 
 554   0.0000      30.298546       824.4654 
 555   0.0000      30.400830       827.2486 
 556   0.0000      30.507083       830.1399 
 557   0.0000      30.581011       832.1516 
 558   0.0000      36.604530       996.0599 
 559   0.0000      36.613349       996.2999 
 560   0.0000      36.628880       996.7225 
 561   0.0000      36.635586       996.9050 
 562   0.0000      36.639590       997.0139 
 563   0.0000      36.646563       997.2037 
 564   0.0000      36.651122       997.3277 
 565   0.0000      36.661037       997.5975 
 566   0.0000      36.672084       997.8981 
 567   0.0000      36.703478       998.7524 
 568   0.0000      36.717696       999.1393 
 569   0.0000      36.788007      1001.0526 
 570   0.0000      36.818004      1001.8688 
 571   0.0000      36.825620      1002.0761 
 572   0.0000      36.836131      1002.3621 
 573   0.0000      36.857691      1002.9488 
 574   0.0000      36.870351      1003.2932 
 575   0.0000      36.875900      1003.4443 
 576   0.0000      36.885171      1003.6965 
 577   0.0000      36.917936      1004.5881 
 578   0.0000      36.933900      1005.0225 
 579   0.0000      36.937376      1005.1171 
 580   0.0000      36.969960      1006.0037 
 581   0.0000      37.017627      1007.3008 
 582   0.0000      37.041748      1007.9572 

                 SPIN DOWN ORBITALS
  NO   OCC          E(Eh)            E(eV) 
   0   1.0000     -10.227750      -278.3112 
   1   1.0000     -10.223457      -278.1944 
   2   1.0000     -10.219880      -278.0971 
   3   1.0000     -10.210714      -277.8476 
   4   1.0000     -10.207787      -277.7680 
   5   1.0000     -10.205828      -277.7147 
   6   1.0000     -10.205704      -277.7113 
   7   1.0000     -10.205438      -277.7041 
   8   1.0000     -10.204553      -277.6800 
   9   1.0000     -10.204380      -277.6753 
  10   1.0000     -10.204144      -277.6689 
  11   1.0000     -10.202602      -277.6269 
  12   1.0000     -10.200210      -277.5618 
  13   1.0000     -10.198632      -277.5189 
  14   1.0000     -10.198048      -277.5030 
  15   1.0000     -10.194574      -277.4085 
  16   1.0000     -10.190293      -277.2920 
  17   1.0000     -10.188318      -277.2382 
  18   1.0000     -10.187778      -277.2235 
  19   1.0000     -10.184624      -277.1377 
  20   1.0000     -10.182749      -277.0867 
  21   1.0000     -10.182406      -277.0774 
  22   1.0000     -10.174939      -276.8742 
  23   1.0000     -10.173246      -276.8281 
  24   1.0000      -0.870111       -23.6769 
  25   1.0000      -0.863751       -23.5039 
  26   1.0000      -0.814268       -22.1573 
  27   1.0000      -0.796386       -21.6708 
  28   1.0000      -0.792651       -21.5691 
  29   1.0000      -0.778414       -21.1817 
  30   1.0000      -0.764698       -20.8085 
  31   1.0000      -0.751864       -20.4593 
  32   1.0000      -0.744006       -20.2454 
  33   1.0000      -0.725393       -19.7390 
  34   1.0000      -0.713209       -19.4074 
  35   1.0000      -0.694282       -18.8924 
  36   1.0000      -0.652615       -17.7586 
  37   1.0000      -0.642434       -17.4815 
  38   1.0000      -0.617517       -16.8035 
  39   1.0000      -0.610201       -16.6044 
  40   1.0000      -0.608408       -16.5556 
  41   1.0000      -0.591197       -16.0873 
  42   1.0000      -0.577671       -15.7192 
  43   1.0000      -0.558693       -15.2028 
  44   1.0000      -0.541936       -14.7468 
  45   1.0000      -0.529466       -14.4075 
  46   1.0000      -0.504364       -13.7244 
  47   1.0000      -0.489308       -13.3147 
  48   1.0000      -0.480446       -13.0736 
  49   1.0000      -0.475170       -12.9300 
  50   1.0000      -0.469645       -12.7797 
  51   1.0000      -0.458601       -12.4792 
  52   1.0000      -0.457658       -12.4535 
  53   1.0000      -0.438046       -11.9198 
  54   1.0000      -0.430281       -11.7085 
  55   1.0000      -0.427330       -11.6282 
  56   1.0000      -0.425949       -11.5907 
  57   1.0000      -0.424226       -11.5438 
  58   1.0000      -0.419313       -11.4101 
  59   1.0000      -0.410933       -11.1820 
  60   1.0000      -0.396239       -10.7822 
  61   1.0000      -0.390676       -10.6308 
  62   1.0000      -0.383141       -10.4258 
  63   1.0000      -0.376059       -10.2331 
  64   1.0000      -0.374172       -10.1817 
  65   1.0000      -0.363450        -9.8900 
  66   1.0000      -0.362863        -9.8740 
  67   1.0000      -0.355672        -9.6783 
  68   1.0000      -0.352275        -9.5859 
  69   1.0000      -0.351216        -9.5571 
  70   1.0000      -0.337154        -9.1744 
  71   1.0000      -0.331533        -9.0215 
  72   1.0000      -0.330979        -9.0064 
  73   1.0000      -0.328121        -8.9286 
  74   1.0000      -0.326828        -8.8934 
  75   1.0000      -0.322439        -8.7740 
  76   1.0000      -0.321058        -8.7364 
  77   1.0000      -0.294963        -8.0263 
  78   1.0000      -0.274717        -7.4754 
  79   1.0000      -0.269515        -7.3339 
  80   1.0000      -0.261720        -7.1218 
  81   1.0000      -0.259910        -7.0725 
  82   1.0000      -0.253126        -6.8879 
  83   1.0000      -0.208451        -5.6723 
  84   0.0000      -0.084129        -2.2893 
  85   0.0000      -0.054488        -1.4827 
  86   0.0000      -0.015066        -0.4100 
  87   0.0000      -0.010777        -0.2933 
  88   0.0000       0.014253         0.3879 
  89   0.0000       0.021272         0.5788 
  90   0.0000       0.022256         0.6056 
  91   0.0000       0.030124         0.8197 
  92   0.0000       0.031822         0.8659 
  93   0.0000       0.033571         0.9135 
  94   0.0000       0.035744         0.9727 
  95   0.0000       0.040165         1.0929 
  96   0.0000       0.045428         1.2362 
  97   0.0000       0.048229         1.3124 
  98   0.0000       0.050690         1.3793 
  99   0.0000       0.055608         1.5132 
[...]
  Y           0.5919991           -0.0003845            0.8059385
  Z          -0.0002359           -0.9999999           -0.0003038

Notes:  (1) The A matrix conforms to the "SAI" spin Hamiltonian convention.
        (2) Tensor is right-handed.

 -----------------------------------------------------------
 Nucleus  46H : A:ISTP=    1 I=  0.5 P=533.5514 MHz/au**3
                Q:ISTP=    2 I=  1.0 Q=  0.0029 barn     
 -----------------------------------------------------------
 Solving for nuclear perturbation:
Forming RHS of the CP-SCF equations         ... 
Calc. nucleus orbit integrals (SHARK)       ... done

------------------------------------------------------------------------------
                           ORCA CP-SCF CALCULATION
------------------------------------------------------------------------------

Input orbitals are from        ... EPRII.gbw
Input Perturbation             ... EPRII.pin.tmp
Wavefunction output            ... EPRII.pout.tmp
Perturbation mode              ... Imaginary perturbation
Solver                         ... POPLE
Max. number of iterations      ... 64
Convergence tolerance          ... 1.000e-03
Integral handling              ... Direct
DFT GridXC                     ... 1
COSX GridX                     ... 1
COSX IntAccX                   ... 3.067
COSX Algorithm                 ... Auto
Number of perturbations        ... 3
Number of operators            ... 2
Orbital ranges used for CP-SCF:
 Operator 0:  Orbitals   0... 84  to  85...582
 Operator 1:  Orbitals   0... 83  to  84...582
Variables per perturbation     ... 84246
DFT calculation                         ... on
XC functional terms                     ... off
Hybrid DFT                              ... on
   Exchange mixing (SCF)                ...  0.200
   Exchange mixing (CP-SCF)             ...  0.200
   GGA exch. scaling(SCF)               ...  0.720
   GGA exch. scaling (CP-SCF)           ...  0.720
   GGA corr. scaling (SCF)              ...  0.810
   GGA corr. scaling (CP-SCF)           ...  0.810

CP-SCF GRID
-----------

General Integration Accuracy     IntAcc      ... 3.467
Radial Grid Type                 RadialGrid  ... OptM3 with GC (2021)
Angular Grid (max. ang.)         AngularGrid ... 1 (Lebedev-50)
Angular grid pruning method      GridPruning ... 4 (adaptive)
Weight generation scheme         WeightScheme... Becke
Basis function cutoff            BFCut       ... 1.0000e-10
Integration weight cutoff        WCut        ... 1.0000e-14
Angular grids for H and He will be reduced by one unit
Partially contracted basis set               ... off
Rotationally invariant grid construction     ... off

Total number of grid points                  ...    31887
Total number of batches                      ...      520
Average number of points per batch           ...       61
Average number of grid points per atom       ...      651

CP-SCF GRIDX
------------

General Integration Accuracy     IntAcc      ... 3.067
Radial Grid Type                 RadialGrid  ... OptM3 with GC (2021)
Angular Grid (max. ang.)         AngularGrid ... 1 (Lebedev-50)
Angular grid pruning method      GridPruning ... 4 (adaptive)
Weight generation scheme         WeightScheme... Becke
Basis function cutoff            BFCut       ... 1.0000e-10
Integration weight cutoff        WCut        ... 1.0000e-14
Angular grids for H and He will be reduced by one unit
Partially contracted basis set               ... on
Rotationally invariant grid construction     ... off

Total number of grid points                  ...    14950
Total number of batches                      ...      265
Average number of points per batch           ...       56
Average number of grid points per atom       ...      305

Memory available               ... 850.2 MB
Memory needed per perturbation ...  20.0 MB
Perturbations treated per batch... 3
Number of batches              ... 1
     CP-SCF ITERATION   0:   4.5628e-02 (   2.1 sec   0/  3 done)
     CP-SCF ITERATION   1:   1.9281e-03 (   2.5 sec   0/  3 done)
     CP-SCF ITERATION   2:   1.3339e-04 (   2.3 sec   3/  3 done)
                    *** THE CP-SCF HAS CONVERGED ***

Forming final perturbed densities           ... done
Transforming perturbed density to AO basis  ... done

 Raw HFC matrix (all values in MHz): 
 -----------------------------------
                 1.3282              -0.2921              -0.0001
                -0.2919               0.1784               0.0000
                -0.0001               0.0000               0.5114

 A(FC)           0.6727               0.6727               0.6727
 A(SD)          -0.5641              -0.1613               0.7255
 A(ORB+DIA)     -0.0001               0.0001              -0.0001    A(PC) =  -0.0000
 A(ORB)         -0.0001              -0.0000              -0.0001    A(PC) =  -0.0001
 A(DIA)         -0.0000               0.0001               0.0000    A(PC) =   0.0000
             ----------           ----------           ----------
 A(Tot)          0.1085               0.5114               1.3981    A(iso)=    0.6727
 Orientation: 
  X           0.2328982           -0.0000997           -0.9725011
  Y           0.9725011           -0.0000027            0.2328982
  Z          -0.0000258           -1.0000000            0.0000963

Notes:  (1) The A matrix conforms to the "SAI" spin Hamiltonian convention.
        (2) Tensor is right-handed.

 -----------------------------------------------------------
 Nucleus  47H : A:ISTP=    1 I=  0.5 P=533.5514 MHz/au**3
                Q:ISTP=    2 I=  1.0 Q=  0.0029 barn     
 -----------------------------------------------------------
 Solving for nuclear perturbation:
Forming RHS of the CP-SCF equations         ... 
Calc. nucleus orbit integrals (SHARK)       ... done

------------------------------------------------------------------------------
                           ORCA CP-SCF CALCULATION
------------------------------------------------------------------------------

Input orbitals are from        ... EPRII.gbw
Input Perturbation             ... EPRII.pin.tmp
Wavefunction output            ... EPRII.pout.tmp
Perturbation mode              ... Imaginary perturbation
Solver                         ... POPLE
Max. number of iterations      ... 64
Convergence tolerance          ... 1.000e-03
Integral handling              ... Direct
DFT GridXC                     ... 1
COSX GridX                     ... 1
COSX IntAccX                   ... 3.067
COSX Algorithm                 ... Auto
Number of perturbations        ... 3
Number of operators            ... 2
Orbital ranges used for CP-SCF:
 Operator 0:  Orbitals   0... 84  to  85...582
 Operator 1:  Orbitals   0... 83  to  84...582
Variables per perturbation     ... 84246
DFT calculation                         ... on
XC functional terms                     ... off
Hybrid DFT                              ... on
   Exchange mixing (SCF)                ...  0.200
   Exchange mixing (CP-SCF)             ...  0.200
   GGA exch. scaling(SCF)               ...  0.720
   GGA exch. scaling (CP-SCF)           ...  0.720
   GGA corr. scaling (SCF)              ...  0.810
   GGA corr. scaling (CP-SCF)           ...  0.810

CP-SCF GRID
-----------

General Integration Accuracy     IntAcc      ... 3.467
Radial Grid Type                 RadialGrid  ... OptM3 with GC (2021)
Angular Grid (max. ang.)         AngularGrid ... 1 (Lebedev-50)
Angular grid pruning method      GridPruning ... 4 (adaptive)
Weight generation scheme         WeightScheme... Becke
Basis function cutoff            BFCut       ... 1.0000e-10
Integration weight cutoff        WCut        ... 1.0000e-14
Angular grids for H and He will be reduced by one unit
Partially contracted basis set               ... off
Rotationally invariant grid construction     ... off

Total number of grid points                  ...    31887
Total number of batches                      ...      520
Average number of points per batch           ...       61
Average number of grid points per atom       ...      651

CP-SCF GRIDX
------------

General Integration Accuracy     IntAcc      ... 3.067
Radial Grid Type                 RadialGrid  ... OptM3 with GC (2021)
Angular Grid (max. ang.)         AngularGrid ... 1 (Lebedev-50)
Angular grid pruning method      GridPruning ... 4 (adaptive)
Weight generation scheme         WeightScheme... Becke
Basis function cutoff            BFCut       ... 1.0000e-10
Integration weight cutoff        WCut        ... 1.0000e-14
Angular grids for H and He will be reduced by one unit
Partially contracted basis set               ... on
Rotationally invariant grid construction     ... off

Total number of grid points                  ...    14950
Total number of batches                      ...      265
Average number of points per batch           ...       56
Average number of grid points per atom       ...      305

Memory available               ... 849.5 MB
Memory needed per perturbation ...  20.0 MB
Perturbations treated per batch... 3
Number of batches              ... 1
     CP-SCF ITERATION   0:   4.5646e-02 (   2.2 sec   0/  3 done)
     CP-SCF ITERATION   1:   1.9265e-03 (   2.3 sec   0/  3 done)
     CP-SCF ITERATION   2:   1.3616e-04 (   2.2 sec   3/  3 done)
                    *** THE CP-SCF HAS CONVERGED ***

Forming final perturbed densities           ... done
Transforming perturbed density to AO basis  ... done

 Raw HFC matrix (all values in MHz): 
 -----------------------------------
                 1.2023               0.3788              -0.0001
                 0.3786               0.2564               0.0001
                -0.0001               0.0001               0.5573

 A(FC)           0.6721               0.6721               0.6721
 A(SD)          -0.5485              -0.1148               0.6634
 A(ORB+DIA)     -0.0001               0.0001              -0.0001    A(PC) =  -0.0001
 A(ORB)         -0.0001               0.0000              -0.0002    A(PC) =  -0.0001
 A(DIA)         -0.0000               0.0001               0.0000    A(PC) =   0.0000
             ----------           ----------           ----------
 A(Tot)          0.1234               0.5573               1.3353    A(iso)=    0.6720
 Orientation: 
  X          -0.3312523           -0.0000015            0.9435422
  Y           0.9435422            0.0001837            0.3312523
  Z          -0.0001738            1.0000000           -0.0000594

Notes:  (1) The A matrix conforms to the "SAI" spin Hamiltonian convention.
        (2) Tensor is right-handed.

 -----------------------------------------------------------
 Nucleus  48H : A:ISTP=    1 I=  0.5 P=533.5514 MHz/au**3
                Q:ISTP=    2 I=  1.0 Q=  0.0029 barn     
 -----------------------------------------------------------
 Solving for nuclear perturbation:
Forming RHS of the CP-SCF equations         ... 
Calc. nucleus orbit integrals (SHARK)       ... done

------------------------------------------------------------------------------
                           ORCA CP-SCF CALCULATION
------------------------------------------------------------------------------

Input orbitals are from        ... EPRII.gbw
Input Perturbation             ... EPRII.pin.tmp
Wavefunction output            ... EPRII.pout.tmp
Perturbation mode              ... Imaginary perturbation
Solver                         ... POPLE
Max. number of iterations      ... 64
Convergence tolerance          ... 1.000e-03
Integral handling              ... Direct
DFT GridXC                     ... 1
COSX GridX                     ... 1
COSX IntAccX                   ... 3.067
COSX Algorithm                 ... Auto
Number of perturbations        ... 3
Number of operators            ... 2
Orbital ranges used for CP-SCF:
 Operator 0:  Orbitals   0... 84  to  85...582
 Operator 1:  Orbitals   0... 83  to  84...582
Variables per perturbation     ... 84246
DFT calculation                         ... on
XC functional terms                     ... off
Hybrid DFT                              ... on
   Exchange mixing (SCF)                ...  0.200
   Exchange mixing (CP-SCF)             ...  0.200
   GGA exch. scaling(SCF)               ...  0.720
   GGA exch. scaling (CP-SCF)           ...  0.720
   GGA corr. scaling (SCF)              ...  0.810
   GGA corr. scaling (CP-SCF)           ...  0.810

CP-SCF GRID
-----------

General Integration Accuracy     IntAcc      ... 3.467
Radial Grid Type                 RadialGrid  ... OptM3 with GC (2021)
Angular Grid (max. ang.)         AngularGrid ... 1 (Lebedev-50)
Angular grid pruning method      GridPruning ... 4 (adaptive)
Weight generation scheme         WeightScheme... Becke
Basis function cutoff            BFCut       ... 1.0000e-10
Integration weight cutoff        WCut        ... 1.0000e-14
Angular grids for H and He will be reduced by one unit
Partially contracted basis set               ... off
Rotationally invariant grid construction     ... off

Total number of grid points                  ...    31887
Total number of batches                      ...      520
Average number of points per batch           ...       61
Average number of grid points per atom       ...      651

CP-SCF GRIDX
------------

General Integration Accuracy     IntAcc      ... 3.067
Radial Grid Type                 RadialGrid  ... OptM3 with GC (2021)
Angular Grid (max. ang.)         AngularGrid ... 1 (Lebedev-50)
Angular grid pruning method      GridPruning ... 4 (adaptive)
Weight generation scheme         WeightScheme... Becke
Basis function cutoff            BFCut       ... 1.0000e-10
Integration weight cutoff        WCut        ... 1.0000e-14
Angular grids for H and He will be reduced by one unit
Partially contracted basis set               ... on
Rotationally invariant grid construction     ... off

Total number of grid points                  ...    14950
Total number of batches                      ...      265
Average number of points per batch           ...       56
Average number of grid points per atom       ...      305

Memory available               ... 848.7 MB
Memory needed per perturbation ...  20.0 MB
Perturbations treated per batch... 3
Number of batches              ... 1
     CP-SCF ITERATION   0:   4.1801e-02 (   2.1 sec   0/  3 done)
     CP-SCF ITERATION   1:   1.6934e-03 (   2.2 sec   1/  3 done)
     CP-SCF ITERATION   2:   7.7868e-05 (   1.8 sec   3/  3 done)
                    *** THE CP-SCF HAS CONVERGED ***

Forming final perturbed densities           ... done
Transforming perturbed density to AO basis  ... done

 Raw HFC matrix (all values in MHz): 
 -----------------------------------
                -0.1740              -0.0995              -0.0001
                -0.0995              -0.3342              -0.0000
                -0.0001              -0.0000              -0.2788

 A(FC)          -0.2624              -0.2624              -0.2624
 A(SD)           0.1360              -0.0165              -0.1195
 A(ORB+DIA)      0.0001               0.0000               0.0001    A(PC) =   0.0000
 A(ORB)          0.0000               0.0000               0.0000    A(PC) =   0.0000
 A(DIA)          0.0000               0.0000               0.0000    A(PC) =   0.0000
             ----------           ----------           ----------
 A(Tot)         -0.1264              -0.2788              -0.3818    A(iso)=   -0.2624
 Orientation: 
  X           0.9018838           -0.0001385            0.4319788
  Y          -0.4319787            0.0004465            0.9018837
  Z          -0.0003178           -0.9999999            0.0003429

Notes:  (1) The A matrix conforms to the "SAI" spin Hamiltonian convention.
        (2) Tensor is right-handed.


--------------------------------------------------------------------------------
----------------------------------------------------------------------------
                           ORCA EULER ANGLE PROGRAM
----------------------------------------------------------------------------

Only g-tensor available        -->  using g-tensor as reference tensor

Reference tensor               ...  g

g-tensor ordering              ...  |g_min> --> |gx>
                                    |g_mid> --> |gy>
                                    |g_max> --> |gz>

A- and EFG-tensor ordering     ...  the axes |Ax>, |Qx>, |Ay>, etc. are assigned
                                    such that the Euler rotation is minimal. You
                                    can find the respective eigenvalues as Ax,
                                    EFGx, Ay, etc. in the tables below.
                                    The relation of |Ax>, |Ay>,  etc. to Amin, Amid, etc.
                                    (as printed in the ORCA EPR/NMR CALCULATION Output)
                                    is obtained in the detailed printout.

Euler rotation around          ...  z - y - z
   First rotation              -->  by alpha around z
   Second rotation             -->  by beta around y'
   Third rotation              -->  by gamma around z''
   Positive / Negative angle   -->  clockwise / counterclockwise rotation

Plot EFG-tensors                    (-)
Plot HFC-tensors                    (-)
Detailed Printout                   (-)

-------------------------------------------------------------------------
          Euler rotation of hyperfine tensor to g-tensor
-------------------------------------------------------------------------

-------------------------------------------------------------------
 Atom  |   Alpha    Beta    Gamma   |   Ax       Ay       Az 
       |          [degrees]         |           [MHz]         
-------------------------------------------------------------------
  9H      -89.9      5.2     89.9     -17.28    -8.02   -20.73
 10H      -90.0      7.8     90.0       4.46     5.17     9.95
 12H       90.0     44.6    -90.0     -49.52   -20.54   -74.67
 14H     -159.0     13.1    177.3      69.46    79.18    70.99
 15H      -21.0     13.0      2.8      69.30    79.02    70.83
 17H      157.2     27.1   -122.6      -3.38    -3.21     3.01
 18H       22.8     27.0    -57.5      -3.37    -3.21     3.01
 20H      -51.3     48.8     27.0      -0.02     2.35     0.10
 21H     -128.8     48.9    153.1      -0.02     2.35     0.10
 23H      -38.6     17.4      0.1      24.48    25.10    28.24
 24H     -141.4     17.4    179.9      24.48    25.09    28.23
 26H      -98.6     31.8     85.6      -1.06     0.94    -0.93
 27H      -81.5     31.8     94.5      -1.06     0.94    -0.93
 29H      104.6     28.6    -71.6      -0.09    -0.14     0.84
 30H       75.5     28.6   -108.4      -0.09    -0.14     0.84
 32H      -85.2     44.3     93.7      -0.12     0.39    -0.10
 33H      -94.8     44.3     86.4      -0.12     0.39    -0.10
 35H       90.2     38.6    -90.0      -8.86    -3.47   -11.78
 36H       89.4     37.2    -90.0      -0.84    -0.86     0.72
 37H       90.1     35.8    -90.0      -0.13    -0.14     0.24
 44H       90.0     43.1    -90.0       0.65     0.41     1.07
 45H      -90.1      7.3     90.1      -0.26    -0.42    -0.10
 46H       90.0     33.0    -90.0       0.51     1.40     0.11
 47H      -90.0     24.2     90.0       0.56     0.12     1.34
 48H       90.0     20.8    -89.9      -0.28    -0.13    -0.38
-------------------------------------------------------------------


Maximum memory used throughout the entire EPRNMR-calculation: 283.4 MB

Timings for individual modules:

Sum of individual times         ...     5419.086 sec (=  90.318 min)
GTO integral calculation        ...        5.985 sec (=   0.100 min)   0.1 %
Spin-Orbit-Coupling Matrices    ...       14.602 sec (=   0.243 min)   0.3 %
SCF iterations                  ...       38.240 sec (=   0.637 min)   0.7 %
EPR/NMR calculation             ...     5360.258 sec (=  89.338 min)  98.9 %
                             ****ORCA TERMINATED NORMALLY****
TOTAL RUN TIME: 0 days 1 hours 30 minutes 23 seconds 937 msec
