
                                 *****************
                                 * O   R   C   A *
                                 *****************

                                            #,                                       
                                            ###                                      
                                            ####                                     
                                            #####                                    
                                            ######                                   
                                           ########,                                 
                                     ,,################,,,,,                         
                               ,,#################################,,                 
                          ,,##########################################,,             
                       ,#########################################, ''#####,          
                    ,#############################################,,   '####,        
                  ,##################################################,,,,####,       
                ,###########''''           ''''###############################       
              ,#####''   ,,,,##########,,,,          '''####'''          '####       
            ,##' ,,,,###########################,,,                        '##       
           ' ,,###''''                  '''############,,,                           
         ,,##''                                '''############,,,,        ,,,,,,###''
      ,#''                                            '''#######################'''  
     '                                                          ''''####''''         
             ,#######,   #######,   ,#######,      ##                                
            ,#'     '#,  ##    ##  ,#'     '#,    #''#        ######   ,####,        
            ##       ##  ##   ,#'  ##            #'  '#       #        #'  '#        
            ##       ##  #######   ##           ,######,      #####,   #    #        
            '#,     ,#'  ##    ##  '#,     ,#' ,#      #,         ##   #,  ,#        
             '#######'   ##     ##  '#######'  #'      '#     #####' # '####'        



                  #######################################################
                  #                        -***-                        #
                  #          Department of theory and spectroscopy      #
                  #    Directorship and core code : Frank Neese         #
                  #        Max Planck Institute fuer Kohlenforschung    #
                  #                Kaiser Wilhelm Platz 1               #
                  #                 D-45470 Muelheim/Ruhr               #
                  #                      Germany                        #
                  #                                                     #
                  #                  All rights reserved                #
                  #                        -***-                        #
                  #######################################################


                         Program Version 5.0.4 -  RELEASE  -


 With contributions from (in alphabetic order):
   Daniel Aravena         : Magnetic Suceptibility
   Michael Atanasov       : Ab Initio Ligand Field Theory (pilot matlab implementation)
   Alexander A. Auer      : GIAO ZORA, VPT2 properties, NMR spectrum
   Ute Becker             : Parallelization
   Giovanni Bistoni       : ED, misc. LED, open-shell LED, HFLD
   Martin Brehm           : Molecular dynamics
   Dmytro Bykov           : SCF Hessian
   Vijay G. Chilkuri      : MRCI spin determinant printing, contributions to CSF-ICE
   Dipayan Datta          : RHF DLPNO-CCSD density
   Achintya Kumar Dutta   : EOM-CC, STEOM-CC
   Dmitry Ganyushin       : Spin-Orbit,Spin-Spin,Magnetic field MRCI
   Miquel Garcia          : C-PCM and meta-GGA Hessian, CC/C-PCM, Gaussian charge scheme
   Yang Guo               : DLPNO-NEVPT2, F12-NEVPT2, CIM, IAO-localization
   Andreas Hansen         : Spin unrestricted coupled pair/coupled cluster methods
   Benjamin Helmich-Paris : MC-RPA, TRAH-SCF, COSX integrals
   Lee Huntington         : MR-EOM, pCC
   Robert Izsak           : Overlap fitted RIJCOSX, COSX-SCS-MP3, EOM
   Marcus Kettner         : VPT2
   Christian Kollmar      : KDIIS, OOCD, Brueckner-CCSD(T), CCSD density, CASPT2, CASPT2-K
   Simone Kossmann        : Meta GGA functionals, TD-DFT gradient, OOMP2, MP2 Hessian
   Martin Krupicka        : Initial AUTO-CI
   Lucas Lang             : DCDCAS
   Marvin Lechner         : AUTO-CI (C++ implementation), FIC-MRCC
   Dagmar Lenk            : GEPOL surface, SMD
   Dimitrios Liakos       : Extrapolation schemes; Compound Job, initial MDCI parallelization
   Dimitrios Manganas     : Further ROCIS development; embedding schemes
   Dimitrios Pantazis     : SARC Basis sets
   Anastasios Papadopoulos: AUTO-CI, single reference methods and gradients
   Taras Petrenko         : DFT Hessian,TD-DFT gradient, ASA, ECA, R-Raman, ABS, FL, XAS/XES, NRVS
   Peter Pinski           : DLPNO-MP2, DLPNO-MP2 Gradient
   Christoph Reimann      : Effective Core Potentials
   Marius Retegan         : Local ZFS, SOC
   Christoph Riplinger    : Optimizer, TS searches, QM/MM, DLPNO-CCSD(T), (RO)-DLPNO pert. Triples
   Tobias Risthaus        : Range-separated hybrids, TD-DFT gradient, RPA, STAB
   Michael Roemelt        : Original ROCIS implementation
   Masaaki Saitow         : Open-shell DLPNO-CCSD energy and density
   Barbara Sandhoefer     : DKH picture change effects
   Avijit Sen             : IP-ROCIS
   Kantharuban Sivalingam : CASSCF convergence, NEVPT2, FIC-MRCI
   Bernardo de Souza      : ESD, SOC TD-DFT
   Georgi Stoychev        : AutoAux, RI-MP2 NMR, DLPNO-MP2 response
   Willem Van den Heuvel  : Paramagnetic NMR
   Boris Wezisla          : Elementary symmetry handling
   Frank Wennmohs         : Technical directorship


 We gratefully acknowledge several colleagues who have allowed us to
 interface, adapt or use parts of their codes:
   Stefan Grimme, W. Hujo, H. Kruse, P. Pracht,  : VdW corrections, initial TS optimization,
                  C. Bannwarth, S. Ehlert          DFT functionals, gCP, sTDA/sTD-DF
   Ed Valeev, F. Pavosevic, A. Kumar             : LibInt (2-el integral package), F12 methods
   Garnet Chan, S. Sharma, J. Yang, R. Olivares  : DMRG
   Ulf Ekstrom                                   : XCFun DFT Library
   Mihaly Kallay                                 : mrcc  (arbitrary order and MRCC methods)
   Jiri Pittner, Ondrej Demel                    : Mk-CCSD
   Frank Weinhold                                : gennbo (NPA and NBO analysis)
   Christopher J. Cramer and Donald G. Truhlar   : smd solvation model
   Lars Goerigk                                  : TD-DFT with DH, B97 family of functionals
   V. Asgeirsson, H. Jonsson                     : NEB implementation
   FAccTs GmbH                                   : IRC, NEB, NEB-TS, DLPNO-Multilevel, CI-OPT
                                                   MM, QMMM, 2- and 3-layer-ONIOM, Crystal-QMMM,
                                                   LR-CPCM, SF, NACMEs, symmetry and pop. for TD-DFT,
                                                   nearIR, NL-DFT gradient (VV10), updates on ESD,
                                                   ML-optimized integration grids
   S Lehtola, MJT Oliveira, MAL Marques          : LibXC Library
   Liviu Ungur et al                             : ANISO software


 Your calculation uses the libint2 library for the computation of 2-el integrals
 For citations please refer to: http://libint.valeyev.net

 Your ORCA version has been built with support for libXC version: 5.1.0
 For citations please refer to: https://tddft.org/programs/libxc/

 This ORCA versions uses:
   CBLAS   interface :  Fast vector & matrix operations
   LAPACKE interface :  Fast linear algebra routines
   SCALAPACK package :  Parallel linear algebra routines
   Shared memory     :  Shared parallel matrices
   BLAS/LAPACK       :  OpenBLAS 0.3.15  USE64BITINT DYNAMIC_ARCH NO_AFFINITY SkylakeX SINGLE_THREADED
        Core in use  :  SkylakeX
   Copyright (c) 2011-2014, The OpenBLAS Project




***************************************
The coordinates will be read from file: opt_EPRII.xyz
***************************************


================================================================================

----- Orbital basis set information -----
Your calculation utilizes the basis: EPR-II
   V. Barone, in Recent Advances in Density Functional Methods, Part 1 (ed. D. P. Chong), World Scientific, Singapore, 1995, p. 287.

----- AuxJ basis set information -----
Your calculation utilizes the AutoAux generation procedure.
  G. L. Stoychev, A. A. Auer, F. Neese, J. Chem. Theory Comput. 13, 554 (2017)

----- AuxC basis set information -----
Your calculation utilizes the AutoAux generation procedure.
  G. L. Stoychev, A. A. Auer, F. Neese, J. Chem. Theory Comput. 13, 554 (2017)

----- AuxJK basis set information -----
Your calculation utilizes the AutoAux generation procedure.
  G. L. Stoychev, A. A. Auer, F. Neese, J. Chem. Theory Comput. 13, 554 (2017)

================================================================================
                                        WARNINGS
                       Please study these warnings very carefully!
================================================================================

WARNING: Old DensityContainer found on disk!
         Will remove this file - 
         If you want to keep old densities, please start your calculation with a different basename. 


WARNING: your system is open-shell and RHF/RKS was chosen
  ===> : WILL SWITCH to UHF/UKS


INFO   : the flag for use of the SHARK integral package has been found!

================================================================================
                                       INPUT FILE
================================================================================
NAME = EPRII.inp
|  1> ! B3LYP EPR-II AUTOAUX
|  2> %pal nprocs 16 end
|  3> *XYZFile 0 2 opt_EPRII.xyz
|  4> %EPRNMR
|  5>         GTENSOR   TRUE
|  6>         NUCLEI    = ALL H {SHIFT, AISO, ADIP, AORB}
|  7>         ORI       CenterOfElCharge
|  8> END
|  9> 
| 10>                          ****END OF INPUT****
================================================================================

                       ****************************
                       * Single Point Calculation *
                       ****************************

---------------------------------
CARTESIAN COORDINATES (ANGSTROEM)
---------------------------------
  C     -4.061290    0.097243   -0.003202
  C     -2.840340    0.052513   -0.004175
  C      2.848212   -0.004613   -0.002808
  C     -1.410878    0.005855   -0.003739
  C     -0.709102   -1.257882   -0.003309
  C      0.715759   -1.196526   -0.003042
  C      1.416609    0.016907   -0.003117
  C      0.709302    1.264187   -0.003433
  C     -0.690083    1.216305   -0.003817
  H      1.285575   -2.119016   -0.002768
  H     -1.258721    2.139144   -0.004153
  C     -1.403807   -2.492986   -0.003062
  H     -2.489925   -2.456482   -0.003312
  C     -0.746616   -3.847576   -0.002681
  H     -0.087180   -3.946178   -0.879822
  H     -0.083959   -3.944191    0.872218
  C     -1.754451   -5.012136    0.000519
  H     -2.403490   -4.922182    0.880879
  H     -2.406906   -4.924132   -0.877516
  C     -1.073601   -6.390947    0.000713
  H     -0.437554   -6.516405    0.884356
  H     -0.440921   -6.518309   -0.885074
  C      1.486840    2.569297   -0.003405
  H      2.155628    2.570543    0.868552
  H      2.155790    2.570502   -0.875241
  C      0.658240    3.863515   -0.003491
  H      0.002713    3.887888   -0.884221
  H      0.002412    3.887792    0.877019
  C      1.540623    5.124977   -0.003274
  H      2.198559    5.106045    0.875831
  H      2.198796    5.106188   -0.882204
  C      0.723584    6.428707   -0.003274
  H      0.079270    6.489196    0.881080
  H      0.079479    6.489332   -0.887770
  C      4.073248   -0.023786   -0.003632
  H     -5.126248    0.140881   -0.001501
  H     -1.812409   -7.198818    0.002987
  H      1.375928    7.308115   -0.003129
  C      5.505221   -0.055993   -0.003216
  C      6.195829   -1.292467   -0.003138
  C      7.595063   -1.320535   -0.002633
  C      8.329430   -0.122421   -0.002224
  C      7.652183    1.108936   -0.002329
  C      6.253125    1.146554   -0.002836
  H      9.415819   -0.148062   -0.001830
  H      8.215069    2.038709   -0.002016
  H      5.625878   -2.216856   -0.003456
  H      5.727831    2.096999   -0.002920
  H      8.113815   -2.275648   -0.002559

----------------------------
CARTESIAN COORDINATES (A.U.)
----------------------------
  NO LB      ZA    FRAG     MASS         X           Y           Z
   0 C     6.0000    0    12.011   -7.674726    0.183764   -0.006051
   1 C     6.0000    0    12.011   -5.367464    0.099236   -0.007889
   2 C     6.0000    0    12.011    5.382341   -0.008717   -0.005306
   3 C     6.0000    0    12.011   -2.666174    0.011065   -0.007067
   4 C     6.0000    0    12.011   -1.340008   -2.377053   -0.006253
   5 C     6.0000    0    12.011    1.352589   -2.261106   -0.005748
   6 C     6.0000    0    12.011    2.677003    0.031950   -0.005889
   7 C     6.0000    0    12.011    1.340386    2.388967   -0.006488
   8 C     6.0000    0    12.011   -1.304068    2.298483   -0.007214
   9 H     1.0000    0     1.008    2.429384   -4.004360   -0.005230
  10 H     1.0000    0     1.008   -2.378638    4.042396   -0.007847
  11 C     6.0000    0    12.011   -2.652810   -4.711061   -0.005785
  12 H     1.0000    0     1.008   -4.705276   -4.642078   -0.006259
  13 C     6.0000    0    12.011   -1.410900   -7.270865   -0.005066
  14 H     1.0000    0     1.008   -0.164746   -7.457195   -1.662622
  15 H     1.0000    0     1.008   -0.158660   -7.453441    1.648254
  16 C     6.0000    0    12.011   -3.315431   -9.471565    0.000981
  17 H     1.0000    0     1.008   -4.541938   -9.301576    1.664619
  18 H     1.0000    0     1.008   -4.548393   -9.305262   -1.658264
  19 C     6.0000    0    12.011   -2.028813  -12.077139    0.001348
  20 H     1.0000    0     1.008   -0.826856  -12.314221    1.671190
  21 H     1.0000    0     1.008   -0.833221  -12.317819   -1.672547
  22 C     6.0000    0    12.011    2.809720    4.855267   -0.006435
  23 H     1.0000    0     1.008    4.073547    4.857621    1.641326
  24 H     1.0000    0     1.008    4.073852    4.857544   -1.653966
  25 C     6.0000    0    12.011    1.243893    7.300985   -0.006597
  26 H     1.0000    0     1.008    0.005126    7.347043   -1.670936
  27 H     1.0000    0     1.008    0.004558    7.346861    1.657325
  28 C     6.0000    0    12.011    2.911355    9.684804   -0.006186
  29 H     1.0000    0     1.008    4.154674    9.649027    1.655082
  30 H     1.0000    0     1.008    4.155122    9.649297   -1.667124
  31 C     6.0000    0    12.011    1.367375   12.148495   -0.006186
  32 H     1.0000    0     1.008    0.149798   12.262803    1.665001
  33 H     1.0000    0     1.008    0.150193   12.263060   -1.677643
  34 C     6.0000    0    12.011    7.697323   -0.044949   -0.006864
  35 H     1.0000    0     1.008   -9.687205    0.266227   -0.002837
  36 H     1.0000    0     1.008   -3.424956  -13.603795    0.005645
  37 H     1.0000    0     1.008    2.600127   13.810337   -0.005914
  38 C     6.0000    0    12.011   10.403360   -0.105811   -0.006078
  39 C     6.0000    0    12.011   11.708419   -2.442409   -0.005931
  40 C     6.0000    0    12.011   14.352589   -2.495449   -0.004976
  41 C     6.0000    0    12.011   15.740342   -0.231342   -0.004203
  42 C     6.0000    0    12.011   14.460531    2.095584   -0.004401
  43 C     6.0000    0    12.011   11.816693    2.166673   -0.005360
  44 H     1.0000    0     1.008   17.793319   -0.279796   -0.003459
  45 H     1.0000    0     1.008   15.524231    3.852602   -0.003809
  46 H     1.0000    0     1.008   10.631369   -4.189250   -0.006530
  47 H     1.0000    0     1.008   10.824031    3.962754   -0.005517
  48 H     1.0000    0     1.008   15.332889   -4.300351   -0.004836

--------------------------------
INTERNAL COORDINATES (ANGSTROEM)
--------------------------------
 C      0   0   0     0.000000000000     0.00000000     0.00000000
 C      1   0   0     1.221769719278     0.00000000     0.00000000
 C      2   1   0     5.688838672775   178.47607916     0.00000000
 C      2   1   3     1.430222706315   179.76282107    13.18756611
 C      4   2   1     1.445518206795   120.91370651   164.56965539
 C      5   4   2     1.426181274100   116.57851313   179.99336658
 C      6   5   4     1.401288970643   122.47541303     0.00000000
 C      7   6   5     1.433872728034   120.43358108     0.00000000
 C      8   7   6     1.400203617093   117.59701501     0.00000000
 H      6   5   4     1.084286916221   119.23763061   180.00313790
 H      9   8   7     1.083965094169   119.68099014   180.00537104
 C      5   4   2     1.417073562518   121.59947536     0.00000000
 H     12   5   4     1.086731242511   117.43132691     0.00000000
 C     12   5   4     1.505593604946   124.76296616   179.99681660
 H     14  12   5     1.101796174355   109.97220927   302.10067207
 H     14  12   5     1.101770217908   109.97608868    57.65558429
 C     14  12   5     1.540110635209   113.24566817   179.87877661
 H     17  14  12     1.097440652379   109.06869268   302.03511222
 H     17  14  12     1.097446088196   109.07171428    57.94999068
 C     17  14  12     1.537749711247   112.84647150   179.99304884
 H     20  17  14     1.095956709530   111.08185115    59.90211523
 H     20  17  14     1.095957755539   111.08143776   300.09988362
 C      8   7   6     1.519169622808   119.65828797   179.99545060
 H     23   8   7     1.098903916193   108.20869961   303.36790227
 H     23   8   7     1.098905441227   108.20950253    56.65184084
 C     23   8   7     1.536743251482   116.58632730   180.01107116
 H     26  23   8     1.098178332838   109.91293515   301.46645511
 H     26  23   8     1.098178534603   109.91197887    58.51946739
 C     26  23   8     1.539443830349   112.39883772   179.99272196
 H     29  26  23     1.098209272259   109.23113662   302.03904789
 H     29  26  23     1.098209077804   109.23140993    57.96713937
 C     29  26  23     1.538591241760   112.95238965   180.00335665
 H     32  29  26     1.095847221250   111.03861431    59.85075461
 H     32  29  26     1.095847170145   111.03886555   300.15073189
 C      3   2   1     1.225186077365   179.67447179   187.01477127
 H      1   2   4     1.065853232227   179.74749250     4.97098522
 H     20  17  14     1.094759384490   111.27681554   180.00122518
 H     32  29  26     1.094948715431   111.35690372   180.00068415
 C     35   3   7     1.432335574041   179.60435617   296.82727200
 C     39  35   3     1.416265542089   120.47308079     8.02397664
 C     40  39  35     1.399515788884   120.33380134   180.00465794
 C     41  40  39     1.405265871199   120.35647952     0.00000000
 C     42  41  40     1.405311854530   119.68355100     0.00000000
 C     43  42  41     1.399564615157   120.35103282     0.00000000
 H     42  41  40     1.086691263092   120.15359954   179.99985355
 H     43  42  41     1.086885149069   119.99842107   180.00009537
 H     40  39  35     1.085973149570   119.15859813     0.00000000
 H     44  43  42     1.085946595820   120.46885099   180.00008841
 H     41  40  39     1.086896743516   119.65695466   179.99881485

---------------------------
INTERNAL COORDINATES (A.U.)
---------------------------
 C      0   0   0     0.000000000000     0.00000000     0.00000000
 C      1   0   0     2.308810168153     0.00000000     0.00000000
 C      2   1   0    10.750347111605   178.47607916     0.00000000
 C      2   1   3     2.702729225450   179.76282107    13.18756611
 C      4   2   1     2.731633532440   120.91370651   164.56965539
 C      5   4   2     2.695092025377   116.57851313   179.99336658
 C      6   5   4     2.648052388999   122.47541303     0.00000000
 C      7   6   5     2.709626766884   120.43358108     0.00000000
 C      8   7   6     2.646001368032   117.59701501     0.00000000
 H      6   5   4     2.049005322252   119.23763061   180.00313790
 H      9   8   7     2.048397166710   119.68099014   180.00537104
 C      5   4   2     2.677880944779   121.59947536     0.00000000
 H     12   5   4     2.053624429521   117.43132691     0.00000000
 C     12   5   4     2.845159582332   124.76296616   179.99681660
 H     14  12   5     2.082093024932   109.97220927   302.10067207
 H     14  12   5     2.082043974356   109.97608868    57.65558429
 C     14  12   5     2.910387316485   113.24566817   179.87877661
 H     17  14  12     2.073862281229   109.06869268   302.03511222
 H     17  14  12     2.073872553433   109.07171428    57.94999068
 C     17  14  12     2.905925816773   112.84647150   179.99304884
 H     20  17  14     2.071058035646   111.08185115    59.90211523
 H     20  17  14     2.071060012315   111.08143776   300.09988362
 C      8   7   6     2.870814538080   119.65828797   179.99545060
 H     23   8   7     2.076627449099   108.20869961   303.36790227
 H     23   8   7     2.076630330996   108.20950253    56.65184084
 C     23   8   7     2.904023883453   116.58632730   180.01107116
 H     26  23   8     2.075256295270   109.91293515   301.46645511
 H     26  23   8     2.075256676550   109.91197887    58.51946739
 C     26  23   8     2.909127237914   112.39883772   179.99272196
 H     29  26  23     2.075314762302   109.23113662   302.03904789
 H     29  26  23     2.075314394836   109.23140993    57.96713937
 C     29  26  23     2.907516078976   112.95238965   180.00335665
 H     32  29  26     2.070851132781   111.03861431    59.85075461
 H     32  29  26     2.070851036207   111.03886555   300.15073189
 C      3   2   1     2.315266149313   179.67447179   187.01477127
 H      1   2   4     2.014170707863   179.74749250     4.97098522
 H     20  17  14     2.068795419226   111.27681554   180.00122518
 H     32  29  26     2.069153202854   111.35690372   180.00068415
 C     35   3   7     2.706721966810   179.60435617   296.82727200
 C     39  35   3     2.676354007458   120.47308079     8.02397664
 C     40  39  35     2.644701561090   120.33380134   180.00465794
 C     41  40  39     2.655567641912   120.35647952     0.00000000
 C     42  41  40     2.655654537816   119.68355100     0.00000000
 C     43  42  41     2.644793829375   120.35103282     0.00000000
 H     42  41  40     2.053548879368   120.15359954   179.99985355
 H     43  42  41     2.053915270767   119.99842107   180.00009537
 H     40  39  35     2.052191841479   119.15859813     0.00000000
 H     44  43  42     2.052141662163   120.46885099   180.00008841
 H     41  40  39     2.053937181097   119.65695466   179.99881485

---------------------
BASIS SET INFORMATION
---------------------
There are 2 groups of distinct atoms

 Group   1 Type C   : 10s5p1d contracted to 6s2p1d pattern {511111/41/1}
 Group   2 Type H   : 6s1p contracted to 4s1p pattern {3111/1}

Atom   0C    basis set group =>   1
Atom   1C    basis set group =>   1
Atom   2C    basis set group =>   1
Atom   3C    basis set group =>   1
Atom   4C    basis set group =>   1
Atom   5C    basis set group =>   1
Atom   6C    basis set group =>   1
Atom   7C    basis set group =>   1
Atom   8C    basis set group =>   1
Atom   9H    basis set group =>   2
Atom  10H    basis set group =>   2
Atom  11C    basis set group =>   1
Atom  12H    basis set group =>   2
Atom  13C    basis set group =>   1
Atom  14H    basis set group =>   2
Atom  15H    basis set group =>   2
Atom  16C    basis set group =>   1
Atom  17H    basis set group =>   2
Atom  18H    basis set group =>   2
Atom  19C    basis set group =>   1
Atom  20H    basis set group =>   2
Atom  21H    basis set group =>   2
Atom  22C    basis set group =>   1
Atom  23H    basis set group =>   2
Atom  24H    basis set group =>   2
Atom  25C    basis set group =>   1
Atom  26H    basis set group =>   2
Atom  27H    basis set group =>   2
Atom  28C    basis set group =>   1
Atom  29H    basis set group =>   2
Atom  30H    basis set group =>   2
Atom  31C    basis set group =>   1
Atom  32H    basis set group =>   2
Atom  33H    basis set group =>   2
Atom  34C    basis set group =>   1
Atom  35H    basis set group =>   2
Atom  36H    basis set group =>   2
Atom  37H    basis set group =>   2
Atom  38C    basis set group =>   1
Atom  39C    basis set group =>   1
Atom  40C    basis set group =>   1
Atom  41C    basis set group =>   1
Atom  42C    basis set group =>   1
Atom  43C    basis set group =>   1
Atom  44H    basis set group =>   2
Atom  45H    basis set group =>   2
Atom  46H    basis set group =>   2
Atom  47H    basis set group =>   2
Atom  48H    basis set group =>   2
---------------------------------
AUXILIARY/J BASIS SET INFORMATION
---------------------------------
There are 2 groups of distinct atoms

 Group   1 Type C   : 17s13p12d2f contracted to 17s13p12d2f pattern {11111111111111111/1111111111111/111111111111/11}
 Group   2 Type H   : 15s6p1d contracted to 15s6p1d pattern {111111111111111/111111/1}

Atom   0C    basis set group =>   1
Atom   1C    basis set group =>   1
Atom   2C    basis set group =>   1
Atom   3C    basis set group =>   1
Atom   4C    basis set group =>   1
Atom   5C    basis set group =>   1
Atom   6C    basis set group =>   1
Atom   7C    basis set group =>   1
Atom   8C    basis set group =>   1
Atom   9H    basis set group =>   2
Atom  10H    basis set group =>   2
Atom  11C    basis set group =>   1
Atom  12H    basis set group =>   2
Atom  13C    basis set group =>   1
Atom  14H    basis set group =>   2
Atom  15H    basis set group =>   2
Atom  16C    basis set group =>   1
Atom  17H    basis set group =>   2
Atom  18H    basis set group =>   2
Atom  19C    basis set group =>   1
Atom  20H    basis set group =>   2
Atom  21H    basis set group =>   2
Atom  22C    basis set group =>   1
Atom  23H    basis set group =>   2
Atom  24H    basis set group =>   2
Atom  25C    basis set group =>   1
Atom  26H    basis set group =>   2
Atom  27H    basis set group =>   2
Atom  28C    basis set group =>   1
Atom  29H    basis set group =>   2
Atom  30H    basis set group =>   2
Atom  31C    basis set group =>   1
Atom  32H    basis set group =>   2
Atom  33H    basis set group =>   2
Atom  34C    basis set group =>   1
Atom  35H    basis set group =>   2
Atom  36H    basis set group =>   2
Atom  37H    basis set group =>   2
Atom  38C    basis set group =>   1
Atom  39C    basis set group =>   1
Atom  40C    basis set group =>   1
Atom  41C    basis set group =>   1
Atom  42C    basis set group =>   1
Atom  43C    basis set group =>   1
Atom  44H    basis set group =>   2
Atom  45H    basis set group =>   2
Atom  46H    basis set group =>   2
Atom  47H    basis set group =>   2
Atom  48H    basis set group =>   2
---------------------------------
AUXILIARY/C BASIS SET INFORMATION
---------------------------------
There are 2 groups of distinct atoms

 Group   1 Type C   : 17s13p12d2f contracted to 17s13p12d2f pattern {11111111111111111/1111111111111/111111111111/11}
 Group   2 Type H   : 15s6p1d contracted to 15s6p1d pattern {111111111111111/111111/1}

Atom   0C    basis set group =>   1
Atom   1C    basis set group =>   1
Atom   2C    basis set group =>   1
Atom   3C    basis set group =>   1
Atom   4C    basis set group =>   1
Atom   5C    basis set group =>   1
Atom   6C    basis set group =>   1
Atom   7C    basis set group =>   1
Atom   8C    basis set group =>   1
Atom   9H    basis set group =>   2
Atom  10H    basis set group =>   2
Atom  11C    basis set group =>   1
Atom  12H    basis set group =>   2
Atom  13C    basis set group =>   1
Atom  14H    basis set group =>   2
Atom  15H    basis set group =>   2
Atom  16C    basis set group =>   1
Atom  17H    basis set group =>   2
Atom  18H    basis set group =>   2
Atom  19C    basis set group =>   1
Atom  20H    basis set group =>   2
Atom  21H    basis set group =>   2
Atom  22C    basis set group =>   1
Atom  23H    basis set group =>   2
Atom  24H    basis set group =>   2
Atom  25C    basis set group =>   1
Atom  26H    basis set group =>   2
Atom  27H    basis set group =>   2
Atom  28C    basis set group =>   1
Atom  29H    basis set group =>   2
Atom  30H    basis set group =>   2
Atom  31C    basis set group =>   1
Atom  32H    basis set group =>   2
Atom  33H    basis set group =>   2
Atom  34C    basis set group =>   1
Atom  35H    basis set group =>   2
Atom  36H    basis set group =>   2
Atom  37H    basis set group =>   2
Atom  38C    basis set group =>   1
Atom  39C    basis set group =>   1
Atom  40C    basis set group =>   1
Atom  41C    basis set group =>   1
Atom  42C    basis set group =>   1
Atom  43C    basis set group =>   1
Atom  44H    basis set group =>   2
Atom  45H    basis set group =>   2
Atom  46H    basis set group =>   2
Atom  47H    basis set group =>   2
Atom  48H    basis set group =>   2
----------------------------------
AUXILIARY/JK BASIS SET INFORMATION
----------------------------------
There are 2 groups of distinct atoms

 Group   1 Type C   : 17s13p12d2f contracted to 17s13p12d2f pattern {11111111111111111/1111111111111/111111111111/11}
 Group   2 Type H   : 15s6p1d contracted to 15s6p1d pattern {111111111111111/111111/1}

Atom   0C    basis set group =>   1
Atom   1C    basis set group =>   1
Atom   2C    basis set group =>   1
Atom   3C    basis set group =>   1
Atom   4C    basis set group =>   1
Atom   5C    basis set group =>   1
Atom   6C    basis set group =>   1
Atom   7C    basis set group =>   1
Atom   8C    basis set group =>   1
Atom   9H    basis set group =>   2
Atom  10H    basis set group =>   2
Atom  11C    basis set group =>   1
Atom  12H    basis set group =>   2
Atom  13C    basis set group =>   1
Atom  14H    basis set group =>   2
Atom  15H    basis set group =>   2
Atom  16C    basis set group =>   1
Atom  17H    basis set group =>   2
Atom  18H    basis set group =>   2
Atom  19C    basis set group =>   1
Atom  20H    basis set group =>   2
Atom  21H    basis set group =>   2
Atom  22C    basis set group =>   1
Atom  23H    basis set group =>   2
Atom  24H    basis set group =>   2
Atom  25C    basis set group =>   1
Atom  26H    basis set group =>   2
Atom  27H    basis set group =>   2
Atom  28C    basis set group =>   1
Atom  29H    basis set group =>   2
Atom  30H    basis set group =>   2
Atom  31C    basis set group =>   1
Atom  32H    basis set group =>   2
Atom  33H    basis set group =>   2
Atom  34C    basis set group =>   1
Atom  35H    basis set group =>   2
Atom  36H    basis set group =>   2
Atom  37H    basis set group =>   2
Atom  38C    basis set group =>   1
Atom  39C    basis set group =>   1
Atom  40C    basis set group =>   1
Atom  41C    basis set group =>   1
Atom  42C    basis set group =>   1
Atom  43C    basis set group =>   1
Atom  44H    basis set group =>   2
Atom  45H    basis set group =>   2
Atom  46H    basis set group =>   2
Atom  47H    basis set group =>   2
Atom  48H    basis set group =>   2

Checking for AutoStart:
The File: EPRII.gbw exists
Trying to determine its content:
     ... Fine, the file contains calculation information
     ... Fine, the calculation information was read
     ... Fine, the file contains a basis set
     ... Fine, the basis set was read
     ... Fine, the file contains a geometry
     ... Fine, the geometry was read
     ... Fine, the file contains a set of orbitals
     ... Fine, the orbitals can be read
     => possible old guess file was deleted
     => GBW file was renamed to GES file
     => GES file is set as startup file
     => Guess is set to MORead
     ... now leaving AutoStart



           ************************************************************
           *        Program running with 16 parallel MPI-processes    *
           *              working on a common directory               *
           ************************************************************
------------------------------------------------------------------------------
                           ORCA GTO INTEGRAL CALCULATION
                           -- RI-GTO INTEGRALS CHOSEN --
------------------------------------------------------------------------------
------------------------------------------------------------------------------
                   ___                                                        
                  /   \      - P O W E R E D   B Y -                         
                 /     \                                                     
                 |  |  |   _    _      __       _____    __    __             
                 |  |  |  | |  | |    /  \     |  _  \  |  |  /  |          
                  \  \/   | |  | |   /    \    | | | |  |  | /  /          
                 / \  \   | |__| |  /  /\  \   | |_| |  |  |/  /          
                |  |  |   |  __  | /  /__\  \  |    /   |      \           
                |  |  |   | |  | | |   __   |  |    \   |  |\   \          
                \     /   | |  | | |  |  |  |  | |\  \  |  | \   \       
                 \___/    |_|  |_| |__|  |__|  |_| \__\ |__|  \__/        
                                                                              
                      - O R C A' S   B I G   F R I E N D -                    
                                      &                                       
                       - I N T E G R A L  F E E D E R -                       
                                                                              
 v1 FN, 2020, v2 2021                                                         
------------------------------------------------------------------------------


Reading SHARK input file EPRII.SHARKINP.tmp ... ok
----------------------
SHARK INTEGRAL PACKAGE
----------------------

Number of atoms                             ...     49
Number of basis functions                   ...    583
Number of shells                            ...    341
Maximum angular momentum                    ...      2
Integral batch strategy                     ... SHARK/LIBINT Hybrid
RI-J (if used) integral strategy            ... SPLIT-RIJ (Revised 2003 algorithm where possible)
Printlevel                                  ...      1
Contraction scheme used                     ... SEGMENTED contraction
Coulomb Range Separation                    ... NOT USED
Exchange Range Separation                   ... NOT USED
Finite Nucleus Model                        ... NOT USED
Auxiliary Coulomb fitting basis             ... AVAILABLE
   # of basis functions in Aux-J            ...   4070
   # of shells in Aux-J                     ...   1606
   Maximum angular momentum in Aux-J        ...      3
Auxiliary J/K fitting basis                 ... AVAILABLE
   # of basis functions in Aux-JK           ...   4070
   # of shells in Aux-JK                    ...   1606
   Maximum angular momentum in Aux-JK       ...      3
Auxiliary Correlation fitting basis         ... AVAILABLE
   # of basis functions in Aux-C            ...   4070
   # of shells in Aux-C                     ...   1606
   Maximum angular momentum in Aux-C        ...      3
Auxiliary 'external' fitting basis          ... NOT available
Integral threshold                          ...     1.000000e-10
Primitive cut-off                           ...     1.000000e-11
Primitive pair pre-selection threshold      ...     1.000000e-11

Calculating pre-screening integrals         ... done (  0.0 sec) Dimension = 341
Organizing shell pair data                  ... done (  0.2 sec)
Shell pair information
Total number of shell pairs                 ...     58311
Shell pairs after pre-screening             ...     29270
Total number of primitive shell pairs       ...    156979
Primitive shell pairs kept                  ...     55129
          la=0 lb=0:  13414 shell pairs
          la=1 lb=0:  10056 shell pairs
          la=1 lb=1:   1809 shell pairs
          la=2 lb=0:   2774 shell pairs
          la=2 lb=1:   1054 shell pairs
          la=2 lb=2:    163 shell pairs

Calculating one electron integrals          ... done (  0.0 sec)
Calculating RI/J V-Matrix + Cholesky decomp.... done (  1.0 sec)
Calculating RI/JK V-Matrix + Cholesky decomp... done (  1.0 sec)
Calculating RI/C V-Matrix + Cholesky decomp.... done (  1.0 sec)
Calculating Nuclear repulsion               ... done (  0.0 sec) ENN=   1720.795113198917 Eh

SHARK setup successfully completed in   3.6 seconds

Maximum memory used throughout the entire GTOINT-calculation: 59.3 MB


           ************************************************************
           *        Program running with 16 parallel MPI-processes    *
           *              working on a common directory               *
           ************************************************************
-------------------------------------------------------------------------------
                                 ORCA SCF
-------------------------------------------------------------------------------

------------
SCF SETTINGS
------------
Hamiltonian:
 Density Functional     Method          .... DFT(GTOs)
 Exchange Functional    Exchange        .... B88
   X-Alpha parameter    XAlpha          ....  0.666667
   Becke's b parameter  XBeta           ....  0.004200
 Correlation Functional Correlation     .... LYP
 LDA part of GGA corr.  LDAOpt          .... VWN-5
 Gradients option       PostSCFGGA      .... off
 Hybrid DFT is turned on
   Fraction HF Exchange ScalHFX         ....  0.200000
   Scaling of DF-GGA-X  ScalDFX         ....  0.720000
   Scaling of DF-GGA-C  ScalDFC         ....  0.810000
   Scaling of DF-LDA-C  ScalLDAC        ....  1.000000
   Perturbative correction              ....  0.000000
   Density functional embedding theory  .... OFF
   NL short-range parameter             ....  4.800000
 RI-approximation to the Coulomb term is turned on
   Number of AuxJ basis functions       .... 4070
   RIJ-COSX (HFX calculated with COS-X)).... on


General Settings:
 Integral files         IntName         .... EPRII
 Hartree-Fock type      HFTyp           .... UHF
 Total Charge           Charge          ....    0
 Multiplicity           Mult            ....    2
 Number of Electrons    NEL             ....  169
 Basis Dimension        Dim             ....  583
 Nuclear Repulsion      ENuc            ....   1720.7951131989 Eh

Convergence Acceleration:
 DIIS                   CNVDIIS         .... on
   Start iteration      DIISMaxIt       ....    12
   Startup error        DIISStart       ....  0.200000
   # of expansion vecs  DIISMaxEq       ....     5
   Bias factor          DIISBfac        ....   1.050
   Max. coefficient     DIISMaxC        ....  10.000
 Trust-Rad. Augm. Hess. CNVTRAH         .... auto
   Auto Start mean grad. ratio tolernc. ....  1.125000
   Auto Start start iteration           ....     1
   Auto Start num. interpolation iter.  ....    10
   Max. Number of Micro iterations      ....    16
   Max. Number of Macro iterations      .... Maxiter - #DIIS iter
   Number of Davidson start vectors     ....     2
   Converg. threshold I  (grad. norm)   ....   5.000e-05
   Converg. threshold II (energy diff.) ....   1.000e-06
   Grad. Scal. Fac. for Micro threshold ....   0.100
   Minimum threshold for Micro iter.    ....   0.010
   NR start threshold (gradient norm)   ....   0.001
   Initial trust radius                 ....   0.400
   Minimum AH scaling param. (alpha)    ....   1.000
   Maximum AH scaling param. (alpha)    .... 1000.000
   Orbital update algorithm             .... Taylor
   White noise on init. David. guess    .... on
   Maximum white noise                  ....   0.010
   Quad. conv. algorithm                .... NR
 SOSCF                  CNVSOSCF        .... off
 Level Shifting         CNVShift        .... on
   Level shift para.    LevelShift      ....    0.2500
   Turn off err/grad.   ShiftErr        ....    0.0010
 Zerner damping         CNVZerner       .... off
 Static damping         CNVDamp         .... on
   Fraction old density DampFac         ....    0.7000
   Max. Damping (<1)    DampMax         ....    0.9800
   Min. Damping (>=0)   DampMin         ....    0.0000
   Turn off err/grad.   DampErr         ....    0.1000
 Fernandez-Rico         CNVRico         .... off

SCF Procedure:
 Maximum # iterations   MaxIter         ....   125
 SCF integral mode      SCFMode         .... Direct
   Integral package                     .... SHARK and LIBINT hybrid scheme
 Reset frequency        DirectResetFreq ....    20
 Integral Threshold     Thresh          ....  1.000e-10 Eh
 Primitive CutOff       TCut            ....  1.000e-11 Eh

Convergence Tolerance:
 Convergence Check Mode ConvCheckMode   .... Total+1el-Energy
 Convergence forced     ConvForced      .... 0
 Energy Change          TolE            ....  1.000e-06 Eh
 1-El. energy change                    ....  1.000e-03 Eh
 DIIS Error             TolErr          ....  1.000e-06


Diagonalization of the overlap matrix:
Smallest eigenvalue                        ... 7.520e-05
Time for diagonalization                   ...    0.063 sec
Threshold for overlap eigenvalues          ... 1.000e-08
Number of eigenvalues below threshold      ... 0
Time for construction of square roots      ...    0.063 sec
Total time needed                          ...    0.127 sec

---------------------
INITIAL GUESS: MOREAD
---------------------
Guess MOs are being read from file: EPRII.ges
Input geometry compatible with but different from current geometry
Input basis set matches current basis set (good)
MOs were renormalized
MOs were reorthogonalized (Cholesky)
                      ------------------
                      INITIAL GUESS DONE (   0.3 sec)
                      ------------------
-------------------
DFT GRID GENERATION
-------------------

General Integration Accuracy     IntAcc      ... 4.388
Radial Grid Type                 RadialGrid  ... OptM3 with GC (2021)
Angular Grid (max. ang.)         AngularGrid ... 4 (Lebedev-302)
Angular grid pruning method      GridPruning ... 4 (adaptive)
Weight generation scheme         WeightScheme... Becke
Basis function cutoff            BFCut       ... 1.0000e-10
Integration weight cutoff        WCut        ... 1.0000e-14
Angular grids for H and He will be reduced by one unit
Partially contracted basis set               ... off
Rotationally invariant grid construction     ... off

Total number of grid points                  ...   223192
Total number of batches                      ...     3513
Average number of points per batch           ...       63
Average number of grid points per atom       ...     4555
Time for grid setup =    1.504 sec

--------------------
COSX GRID GENERATION
--------------------

GRIDX 1
-------
General Integration Accuracy     IntAcc      ... 3.816
Radial Grid Type                 RadialGrid  ... OptM3 with GC (2021)
Angular Grid (max. ang.)         AngularGrid ... 1 (Lebedev-50)
Angular grid pruning method      GridPruning ... 4 (adaptive)
Weight generation scheme         WeightScheme... Becke
Basis function cutoff            BFCut       ... 1.0000e-10
Integration weight cutoff        WCut        ... 1.0000e-14
Angular grids for H and He will be reduced by one unit
Partially contracted basis set               ... on
Rotationally invariant grid construction     ... off

Total number of grid points                  ...    28454
Total number of batches                      ...      471
Average number of points per batch           ...       60
Average number of grid points per atom       ...      581
UseSFitting                                  ... on

GRIDX 2
-------
General Integration Accuracy     IntAcc      ... 4.020
Radial Grid Type                 RadialGrid  ... OptM3 with GC (2021)
Angular Grid (max. ang.)         AngularGrid ... 2 (Lebedev-110)
Angular grid pruning method      GridPruning ... 4 (adaptive)
Weight generation scheme         WeightScheme... Becke
Basis function cutoff            BFCut       ... 1.0000e-10
Integration weight cutoff        WCut        ... 1.0000e-14
Angular grids for H and He will be reduced by one unit
Partially contracted basis set               ... on
Rotationally invariant grid construction     ... off

Total number of grid points                  ...    60644
Total number of batches                      ...      973
Average number of points per batch           ...       62
Average number of grid points per atom       ...     1238
UseSFitting                                  ... on

GRIDX 3
-------
General Integration Accuracy     IntAcc      ... 4.338
Radial Grid Type                 RadialGrid  ... OptM3 with GC (2021)
Angular Grid (max. ang.)         AngularGrid ... 3 (Lebedev-194)
Angular grid pruning method      GridPruning ... 4 (adaptive)
Weight generation scheme         WeightScheme... Becke
Basis function cutoff            BFCut       ... 1.0000e-10
Integration weight cutoff        WCut        ... 1.0000e-14
Angular grids for H and He will be reduced by one unit
Partially contracted basis set               ... on
Rotationally invariant grid construction     ... off

Total number of grid points                  ...   132637
Total number of batches                      ...     2097
Average number of points per batch           ...       63
Average number of grid points per atom       ...     2707
UseSFitting                                  ... on

Time for X-Grid setup             =    2.664 sec

--------------
SCF ITERATIONS
--------------
ITER       Energy         Delta-E        Max-DP      RMS-DP      [F,P]     Damp
               ***  Starting incremental Fock matrix formation  ***
  0   -928.9722866852   0.000000000000 0.00593083  0.00004670  0.0035487 0.7000
  1   -928.9724624151  -0.000175729886 0.00539119  0.00004058  0.0027999 0.7000
                               ***Turning on DIIS***
  2   -928.9725881068  -0.000125691773 0.01354371  0.00009961  0.0020990 0.0000
  3   -928.9728826628  -0.000294555921 0.00067329  0.00001025  0.0003350 0.0000
               *** Restarting incremental Fock matrix formation ***
                                   *** Resetting DIIS ***
  4   -928.9728777755   0.000004887224 0.00091402  0.00001189  0.0003857 0.0000
  5   -928.9728723828   0.000005392700 0.00049758  0.00000661  0.0004543 0.0000
  6   -928.9728840629  -0.000011680020 0.00022141  0.00000169  0.0002378 0.0000
  7   -928.9728845702  -0.000000507301 0.00020250  0.00000128  0.0001441 0.0000
                 **** Energy Check signals convergence ****

               *****************************************************
               *                     SUCCESS                       *
               *           SCF CONVERGED AFTER   8 CYCLES          *
               *****************************************************

Old exchange energy                            =    -26.606878553 Eh
New exchange energy                            =    -26.606894711 Eh
Exchange energy change after final integration =     -0.000016158 Eh
Total energy after final integration           =   -928.972900909 Eh
Final COS-X integration done in                =    10.034 sec

----------------
TOTAL SCF ENERGY
----------------

Total Energy       :         -928.97290091 Eh          -25278.63777 eV

Components:
Nuclear Repulsion  :         1720.79511320 Eh           46825.21558 eV
Electronic Energy  :        -2649.76801411 Eh          -72103.85335 eV
One Electron Energy:        -4670.44274038 Eh         -127089.20806 eV
Two Electron Energy:         2020.67472627 Eh           54985.35470 eV
Max COSX asymmetry :            0.00000321 Eh               0.00009 eV

Virial components:
Potential Energy   :        -1850.51656531 Eh          -50355.11575 eV
Kinetic Energy     :          921.54366441 Eh           25076.47797 eV
Virial Ratio       :            2.00806173


DFT components:
N(Alpha)           :       85.000154863188 electrons
N(Beta)            :       84.000145116629 electrons
N(Total)           :      169.000299979816 electrons
E(X)               :     -105.554392747543 Eh       
E(C)               :       -6.576108246504 Eh       
E(XC)              :     -112.130500994046 Eh       
DFET-embed. en.    :        0.000000000000 Eh       

---------------
SCF CONVERGENCE
---------------

  Last Energy change         ...   -1.8118e-07  Tolerance :   1.0000e-06
  Last MAX-Density change    ...    0.0000e+00  Tolerance :   1.0000e-05
  Last RMS-Density change    ...    0.0000e+00  Tolerance :   1.0000e-06
  Last DIIS Error            ...    3.0948e-05  Tolerance :   1.0000e-06

             **** THE GBW FILE WAS UPDATED (EPRII.gbw) ****
             **** DENSITY EPRII.scfp WAS UPDATED ****
             **** ENERGY FILE WAS UPDATED (EPRII.en.tmp) ****
----------------------
UHF SPIN CONTAMINATION
----------------------

Warning: in a DFT calculation there is little theoretical justification to 
         calculate <S**2> as in Hartree-Fock theory. We will do it anyways
         but you should keep in mind that the values have only limited relevance

Expectation value of <S**2>     :     0.787768
Ideal value S*(S+1) for S=0.5   :     0.750000
Deviation                       :     0.037768

             **** THE GBW FILE WAS UPDATED (EPRII.gbw) ****
             **** DENSITY EPRII.scfp WAS UPDATED ****
----------------
ORBITAL ENERGIES
----------------
                 SPIN UP ORBITALS
  NO   OCC          E(Eh)            E(eV) 
   0   1.0000     -10.229117      -278.3484 
   1   1.0000     -10.224339      -278.2184 
   2   1.0000     -10.222687      -278.1735 
   3   1.0000     -10.211954      -277.8814 
   4   1.0000     -10.209348      -277.8105 
   5   1.0000     -10.206203      -277.7249 
   6   1.0000     -10.206070      -277.7213 
   7   1.0000     -10.205869      -277.7158 
   8   1.0000     -10.205182      -277.6971 
   9   1.0000     -10.204991      -277.6919 
  10   1.0000     -10.204460      -277.6775 
  11   1.0000     -10.203192      -277.6430 
  12   1.0000     -10.201505      -277.5971 
  13   1.0000     -10.201097      -277.5860 
  14   1.0000     -10.197828      -277.4970 
  15   1.0000     -10.197479      -277.4875 
  16   1.0000     -10.196211      -277.4530 
  17   1.0000     -10.188506      -277.2433 
  18   1.0000     -10.187126      -277.2058 
  19   1.0000     -10.183377      -277.1038 
  20   1.0000     -10.181442      -277.0511 
  21   1.0000     -10.181206      -277.0447 
  22   1.0000     -10.172740      -276.8143 
  23   1.0000     -10.171028      -276.7677 
  24   1.0000      -0.871895       -23.7255 
  25   1.0000      -0.861364       -23.4389 
  26   1.0000      -0.817835       -22.2544 
  27   1.0000      -0.796833       -21.6829 
  28   1.0000      -0.793859       -21.6020 
  29   1.0000      -0.777504       -21.1570 
  30   1.0000      -0.765892       -20.8410 
  31   1.0000      -0.750990       -20.4355 
  32   1.0000      -0.744096       -20.2479 
  33   1.0000      -0.728608       -19.8264 
  34   1.0000      -0.714218       -19.4349 
  35   1.0000      -0.696537       -18.9537 
  36   1.0000      -0.655989       -17.8504 
  37   1.0000      -0.643606       -17.5134 
  38   1.0000      -0.620519       -16.8852 
  39   1.0000      -0.611963       -16.6523 
  40   1.0000      -0.610380       -16.6093 
  41   1.0000      -0.593164       -16.1408 
  42   1.0000      -0.580891       -15.8069 
  43   1.0000      -0.562924       -15.3179 
  44   1.0000      -0.542636       -14.7659 
  45   1.0000      -0.531807       -14.4712 
  46   1.0000      -0.507177       -13.8010 
  47   1.0000      -0.491329       -13.3698 
  48   1.0000      -0.481789       -13.1101 
  49   1.0000      -0.476120       -12.9559 
  50   1.0000      -0.471362       -12.8264 
  51   1.0000      -0.463149       -12.6029 
  52   1.0000      -0.456113       -12.4115 
  53   1.0000      -0.438850       -11.9417 
  54   1.0000      -0.432021       -11.7559 
  55   1.0000      -0.428546       -11.6613 
  56   1.0000      -0.426497       -11.6056 
  57   1.0000      -0.425123       -11.5682 
  58   1.0000      -0.422856       -11.5065 
  59   1.0000      -0.411722       -11.2035 
  60   1.0000      -0.399145       -10.8613 
  61   1.0000      -0.396728       -10.7955 
  62   1.0000      -0.383332       -10.4310 
  63   1.0000      -0.378498       -10.2995 
  64   1.0000      -0.376831       -10.2541 
  65   1.0000      -0.364623        -9.9219 
  66   1.0000      -0.363351        -9.8873 
  67   1.0000      -0.356346        -9.6967 
  68   1.0000      -0.355975        -9.6866 
  69   1.0000      -0.353152        -9.6098 
  70   1.0000      -0.338155        -9.2017 
  71   1.0000      -0.333120        -9.0647 
  72   1.0000      -0.332031        -9.0350 
  73   1.0000      -0.331995        -9.0340 
  74   1.0000      -0.327157        -8.9024 
  75   1.0000      -0.323352        -8.7989 
  76   1.0000      -0.322107        -8.7650 
  77   1.0000      -0.297305        -8.0901 
  78   1.0000      -0.275428        -7.4948 
  79   1.0000      -0.274752        -7.4764 
  80   1.0000      -0.269277        -7.3274 
  81   1.0000      -0.258848        -7.0436 
  82   1.0000      -0.256142        -6.9700 
  83   1.0000      -0.215390        -5.8611 
  84   1.0000      -0.174045        -4.7360 
  85   0.0000      -0.062612        -1.7038 
  86   0.0000      -0.015813        -0.4303 
  87   0.0000      -0.013286        -0.3615 
  88   0.0000       0.013413         0.3650 
  89   0.0000       0.014446         0.3931 
  90   0.0000       0.021334         0.5805 
  91   0.0000       0.022116         0.6018 
  92   0.0000       0.029914         0.8140 
  93   0.0000       0.033932         0.9233 
  94   0.0000       0.035714         0.9718 
  95   0.0000       0.039422         1.0727 
  96   0.0000       0.044726         1.2170 
  97   0.0000       0.048060         1.3078 
  98   0.0000       0.050627         1.3776 
  99   0.0000       0.055376         1.5069 
 100   0.0000       0.059809         1.6275 
 101   0.0000       0.060918         1.6577 
 102   0.0000       0.067687         1.8418 
 103   0.0000       0.076900         2.0926 
 104   0.0000       0.081441         2.2161 
 105   0.0000       0.083785         2.2799 
 106   0.0000       0.091303         2.4845 
 107   0.0000       0.106496         2.8979 
 108   0.0000       0.110271         3.0006 
 109   0.0000       0.111858         3.0438 
 110   0.0000       0.117772         3.2047 
 111   0.0000       0.127632         3.4730 
 112   0.0000       0.138235         3.7616 
 113   0.0000       0.152612         4.1528 
 114   0.0000       0.153994         4.1904 
 115   0.0000       0.157829         4.2947 
 116   0.0000       0.160907         4.3785 
 117   0.0000       0.174407         4.7459 
 118   0.0000       0.176279         4.7968 
 119   0.0000       0.183126         4.9831 
 120   0.0000       0.186494         5.0748 
 121   0.0000       0.191662         5.2154 
 122   0.0000       0.195065         5.3080 
 123   0.0000       0.199971         5.4415 
 124   0.0000       0.201826         5.4920 
 125   0.0000       0.202172         5.5014 
 126   0.0000       0.202909         5.5214 
 127   0.0000       0.206026         5.6063 
 128   0.0000       0.217490         5.9182 
 129   0.0000       0.218835         5.9548 
 130   0.0000       0.218892         5.9564 
 131   0.0000       0.221737         6.0338 
 132   0.0000       0.224986         6.1222 
 133   0.0000       0.236083         6.4241 
 134   0.0000       0.238463         6.4889 
 135   0.0000       0.246426         6.7056 
 136   0.0000       0.247924         6.7464 
 137   0.0000       0.251264         6.8372 
 138   0.0000       0.253572         6.9000 
 139   0.0000       0.253656         6.9023 
 140   0.0000       0.259873         7.0715 
 141   0.0000       0.264246         7.1905 
 142   0.0000       0.270558         7.3623 
 143   0.0000       0.275347         7.4926 
 144   0.0000       0.276852         7.5335 
 145   0.0000       0.277032         7.5384 
 146   0.0000       0.284269         7.7354 
 147   0.0000       0.284630         7.7452 
 148   0.0000       0.288250         7.8437 
 149   0.0000       0.291513         7.9325 
 150   0.0000       0.293186         7.9780 
 151   0.0000       0.297391         8.0924 
 152   0.0000       0.298368         8.1190 
 153   0.0000       0.303106         8.2479 
 154   0.0000       0.307946         8.3796 
 155   0.0000       0.308876         8.4049 
 156   0.0000       0.311084         8.4650 
 157   0.0000       0.312038         8.4910 
 158   0.0000       0.315459         8.5841 
 159   0.0000       0.317731         8.6459 
 160   0.0000       0.319640         8.6978 
 161   0.0000       0.322452         8.7744 
 162   0.0000       0.328825         8.9478 
 163   0.0000       0.334486         9.1018 
 164   0.0000       0.337744         9.1905 
 165   0.0000       0.345127         9.3914 
 166   0.0000       0.346428         9.4268 
 167   0.0000       0.348078         9.4717 
 168   0.0000       0.349275         9.5043 
 169   0.0000       0.356898         9.7117 
 170   0.0000       0.359236         9.7753 
 171   0.0000       0.369826        10.0635 
 172   0.0000       0.372003        10.1227 
 173   0.0000       0.376950        10.2573 
 174   0.0000       0.377243        10.2653 
 175   0.0000       0.383826        10.4444 
 176   0.0000       0.387999        10.5580 
 177   0.0000       0.397684        10.8215 
 178   0.0000       0.400508        10.8984 
 179   0.0000       0.404640        11.0108 
 180   0.0000       0.406698        11.0668 
 181   0.0000       0.413595        11.2545 
 182   0.0000       0.416892        11.3442 
 183   0.0000       0.419873        11.4253 
 184   0.0000       0.426984        11.6188 
 185   0.0000       0.427150        11.6233 
 186   0.0000       0.429785        11.6950 
 187   0.0000       0.438395        11.9293 
 188   0.0000       0.444939        12.1074 
 189   0.0000       0.447192        12.1687 
 190   0.0000       0.448768        12.2116 
 191   0.0000       0.454886        12.3781 
 192   0.0000       0.458519        12.4769 
 193   0.0000       0.466692        12.6993 
 194   0.0000       0.469733        12.7821 
 195   0.0000       0.472494        12.8572 
 196   0.0000       0.475126        12.9288 
 197   0.0000       0.480264        13.0686 
 198   0.0000       0.482950        13.1417 
 199   0.0000       0.488219        13.2851 
 200   0.0000       0.500913        13.6305 
 201   0.0000       0.502703        13.6792 
 202   0.0000       0.510473        13.8907 
 203   0.0000       0.516299        14.0492 
 204   0.0000       0.521828        14.1997 
 205   0.0000       0.523411        14.2427 
 206   0.0000       0.531534        14.4638 
 207   0.0000       0.533854        14.5269 
 208   0.0000       0.536357        14.5950 
 209   0.0000       0.545852        14.8534 
 210   0.0000       0.549205        14.9446 
 211   0.0000       0.554984        15.1019 
 212   0.0000       0.556649        15.1472 
 213   0.0000       0.569817        15.5055 
 214   0.0000       0.585005        15.9188 
 215   0.0000       0.586027        15.9466 
 216   0.0000       0.594062        16.1653 
 217   0.0000       0.594610        16.1802 
 218   0.0000       0.603342        16.4178 
 219   0.0000       0.605600        16.4792 
 220   0.0000       0.610130        16.6025 
 221   0.0000       0.627259        17.0686 
 222   0.0000       0.632373        17.2078 
 223   0.0000       0.646491        17.5919 
 224   0.0000       0.646701        17.5976 
 225   0.0000       0.663502        18.0548 
 226   0.0000       0.668649        18.1949 
 227   0.0000       0.671352        18.2684 
 228   0.0000       0.675790        18.3892 
 229   0.0000       0.681401        18.5419 
 230   0.0000       0.705565        19.1994 
 231   0.0000       0.722772        19.6676 
 232   0.0000       0.725304        19.7365 
 233   0.0000       0.762212        20.7408 
 234   0.0000       0.774401        21.0725 
 235   0.0000       0.777265        21.1505 
 236   0.0000       0.793828        21.6012 
 237   0.0000       0.795644        21.6506 
 238   0.0000       0.813667        22.1410 
 239   0.0000       0.832094        22.6424 
 240   0.0000       0.839261        22.8375 
 241   0.0000       0.841264        22.8920 
 242   0.0000       0.848144        23.0792 
 243   0.0000       0.850761        23.1504 
 244   0.0000       0.853578        23.2270 
 245   0.0000       0.860309        23.4102 
 246   0.0000       0.864484        23.5238 
 247   0.0000       0.868237        23.6259 
 248   0.0000       0.869306        23.6550 
 249   0.0000       0.870040        23.6750 
 250   0.0000       0.886072        24.1112 
 251   0.0000       0.895070        24.3561 
 252   0.0000       0.895740        24.3743 
 253   0.0000       0.901180        24.5224 
 254   0.0000       0.912972        24.8432 
 255   0.0000       0.914698        24.8902 
 256   0.0000       0.917219        24.9588 
 257   0.0000       0.928212        25.2579 
 258   0.0000       0.929700        25.2984 
 259   0.0000       0.930980        25.3332 
 260   0.0000       0.936588        25.4859 
 261   0.0000       0.937518        25.5112 
 262   0.0000       0.941379        25.6162 
 263   0.0000       0.948672        25.8147 
 264   0.0000       0.958612        26.0852 
 265   0.0000       0.959052        26.0971 
 266   0.0000       0.962847        26.2004 
 267   0.0000       0.971042        26.4234 
 268   0.0000       0.975889        26.5553 
 269   0.0000       0.978871        26.6364 
 270   0.0000       0.979810        26.6620 
 271   0.0000       0.992718        27.0132 
 272   0.0000       0.994992        27.0751 
 273   0.0000       0.996049        27.1039 
 274   0.0000       1.001524        27.2528 
 275   0.0000       1.003030        27.2938 
 276   0.0000       1.004503        27.3339 
 277   0.0000       1.012973        27.5644 
 278   0.0000       1.027735        27.9661 
 279   0.0000       1.028903        27.9979 
 280   0.0000       1.029185        28.0055 
 281   0.0000       1.034154        28.1408 
 282   0.0000       1.037173        28.2229 
 283   0.0000       1.041908        28.3517 
 284   0.0000       1.051614        28.6159 
 285   0.0000       1.056043        28.7364 
 286   0.0000       1.063492        28.9391 
 287   0.0000       1.065660        28.9981 
 288   0.0000       1.066967        29.0337 
 289   0.0000       1.093401        29.7529 
 290   0.0000       1.102069        29.9888 
 291   0.0000       1.112168        30.2636 
 292   0.0000       1.113846        30.3093 
 293   0.0000       1.115251        30.3475 
 294   0.0000       1.124740        30.6057 
 295   0.0000       1.129587        30.7376 
 296   0.0000       1.139119        30.9970 
 297   0.0000       1.150136        31.2968 
 298   0.0000       1.155318        31.4378 
 299   0.0000       1.172153        31.8959 
 300   0.0000       1.178277        32.0626 
 301   0.0000       1.179675        32.1006 
 302   0.0000       1.188196        32.3325 
 303   0.0000       1.189419        32.3657 
 304   0.0000       1.200065        32.6554 
 305   0.0000       1.203575        32.7509 
 306   0.0000       1.217740        33.1364 
 307   0.0000       1.220886        33.2220 
 308   0.0000       1.241397        33.7801 
 309   0.0000       1.241673        33.7876 
 310   0.0000       1.252243        34.0753 
 311   0.0000       1.256034        34.1784 
 312   0.0000       1.263063        34.3697 
 313   0.0000       1.273797        34.6618 
 314   0.0000       1.287091        35.0235 
 315   0.0000       1.298024        35.3210 
 316   0.0000       1.306965        35.5643 
 317   0.0000       1.310910        35.6717 
 318   0.0000       1.320176        35.9238 
 319   0.0000       1.320913        35.9439 
 320   0.0000       1.331697        36.2373 
 321   0.0000       1.339445        36.4482 
 322   0.0000       1.351928        36.7878 
 323   0.0000       1.352509        36.8036 
 324   0.0000       1.366202        37.1762 
 325   0.0000       1.380147        37.5557 
 326   0.0000       1.385599        37.7041 
 327   0.0000       1.398266        38.0488 
 328   0.0000       1.400898        38.1204 
 329   0.0000       1.406103        38.2620 
 330   0.0000       1.423695        38.7407 
 331   0.0000       1.430623        38.9292 
 332   0.0000       1.432288        38.9745 
 333   0.0000       1.432517        38.9808 
 334   0.0000       1.439756        39.1777 
 335   0.0000       1.446402        39.3586 
 336   0.0000       1.447496        39.3884 
 337   0.0000       1.453480        39.5512 
 338   0.0000       1.460010        39.7289 
 339   0.0000       1.466014        39.8923 
 340   0.0000       1.477651        40.2089 
 341   0.0000       1.486834        40.4588 
 342   0.0000       1.497085        40.7378 
 343   0.0000       1.503028        40.8995 
 344   0.0000       1.508806        41.0567 
 345   0.0000       1.512045        41.1448 
 346   0.0000       1.517616        41.2964 
 347   0.0000       1.519505        41.3478 
 348   0.0000       1.540832        41.9282 
 349   0.0000       1.559508        42.4364 
 350   0.0000       1.561993        42.5040 
 351   0.0000       1.562780        42.5254 
 352   0.0000       1.563835        42.5541 
 353   0.0000       1.564672        42.5769 
 354   0.0000       1.577679        42.9308 
 355   0.0000       1.587139        43.1883 
 356   0.0000       1.588355        43.2213 
 357   0.0000       1.590989        43.2930 
 358   0.0000       1.600736        43.5582 
 359   0.0000       1.601518        43.5795 
 360   0.0000       1.604544        43.6619 
 361   0.0000       1.615379        43.9567 
 362   0.0000       1.619217        44.0611 
 363   0.0000       1.627046        44.2742 
 364   0.0000       1.636832        44.5405 
 365   0.0000       1.641812        44.6760 
 366   0.0000       1.642272        44.6885 
 367   0.0000       1.655684        45.0535 
 368   0.0000       1.657463        45.1019 
 369   0.0000       1.659625        45.1607 
 370   0.0000       1.679128        45.6914 
 371   0.0000       1.685008        45.8514 
 372   0.0000       1.685632        45.8684 
 373   0.0000       1.690345        45.9966 
 374   0.0000       1.696330        46.1595 
 375   0.0000       1.699697        46.2511 
 376   0.0000       1.704890        46.3924 
 377   0.0000       1.709906        46.5289 
 378   0.0000       1.714243        46.6469 
 379   0.0000       1.723522        46.8994 
 380   0.0000       1.737308        47.2746 
 381   0.0000       1.738466        47.3061 
 382   0.0000       1.748820        47.5878 
 383   0.0000       1.755738        47.7761 
 384   0.0000       1.766965        48.0816 
 385   0.0000       1.767654        48.1003 
 386   0.0000       1.775846        48.3232 
 387   0.0000       1.777521        48.3688 
 388   0.0000       1.789858        48.7045 
 389   0.0000       1.791135        48.7393 
 390   0.0000       1.800377        48.9908 
 391   0.0000       1.802884        49.0590 
 392   0.0000       1.809640        49.2428 
 393   0.0000       1.814927        49.3867 
 394   0.0000       1.827764        49.7360 
 395   0.0000       1.832268        49.8585 
 396   0.0000       1.836973        49.9866 
 397   0.0000       1.852965        50.4217 
 398   0.0000       1.854581        50.4657 
 399   0.0000       1.868707        50.8501 
 400   0.0000       1.869629        50.8752 
 401   0.0000       1.904998        51.8376 
 402   0.0000       1.924451        52.3670 
 403   0.0000       1.931400        52.5561 
 404   0.0000       1.935462        52.6666 
 405   0.0000       1.942512        52.8584 
 406   0.0000       1.951952        53.1153 
 407   0.0000       1.960165        53.3388 
 408   0.0000       1.973320        53.6968 
 409   0.0000       1.976126        53.7731 
 410   0.0000       2.015395        54.8417 
 411   0.0000       2.024408        55.0869 
 412   0.0000       2.037252        55.4364 
 413   0.0000       2.041997        55.5656 
 414   0.0000       2.044420        55.6315 
 415   0.0000       2.055637        55.9367 
 416   0.0000       2.077045        56.5193 
 417   0.0000       2.086092        56.7655 
 418   0.0000       2.105805        57.3019 
 419   0.0000       2.109435        57.4007 
 420   0.0000       2.116384        57.5897 
 421   0.0000       2.134097        58.0717 
 422   0.0000       2.143146        58.3180 
 423   0.0000       2.148951        58.4759 
 424   0.0000       2.151076        58.5337 
 425   0.0000       2.185834        59.4796 
 426   0.0000       2.199142        59.8417 
 427   0.0000       2.201877        59.9161 
 428   0.0000       2.214680        60.2645 
 429   0.0000       2.217729        60.3475 
 430   0.0000       2.226969        60.5989 
 431   0.0000       2.248831        61.1938 
 432   0.0000       2.258494        61.4567 
 433   0.0000       2.267072        61.6902 
 434   0.0000       2.275501        61.9195 
 435   0.0000       2.283846        62.1466 
 436   0.0000       2.314478        62.9802 
 437   0.0000       2.320599        63.1467 
 438   0.0000       2.325624        63.2834 
 439   0.0000       2.332093        63.4595 
 440   0.0000       2.335862        63.5620 
 441   0.0000       2.359784        64.2130 
 442   0.0000       2.381651        64.8080 
 443   0.0000       2.395710        65.1906 
 444   0.0000       2.403055        65.3904 
 445   0.0000       2.406411        65.4818 
 446   0.0000       2.417085        65.7722 
 447   0.0000       2.422214        65.9118 
 448   0.0000       2.434666        66.2506 
 449   0.0000       2.449694        66.6596 
 450   0.0000       2.459080        66.9150 
 451   0.0000       2.466209        67.1090 
 452   0.0000       2.467189        67.1356 
 453   0.0000       2.477297        67.4107 
 454   0.0000       2.487019        67.6752 
 455   0.0000       2.493503        67.8517 
 456   0.0000       2.506294        68.1997 
 457   0.0000       2.517626        68.5081 
 458   0.0000       2.522172        68.6318 
 459   0.0000       2.528165        68.7949 
 460   0.0000       2.533867        68.9500 
 461   0.0000       2.544953        69.2517 
 462   0.0000       2.552334        69.4525 
 463   0.0000       2.564630        69.7871 
 464   0.0000       2.571206        69.9661 
 465   0.0000       2.575349        70.0788 
 466   0.0000       2.582294        70.2678 
 467   0.0000       2.586304        70.3769 
 468   0.0000       2.601431        70.7885 
 469   0.0000       2.613548        71.1183 
 470   0.0000       2.619375        71.2768 
 471   0.0000       2.631300        71.6013 
 472   0.0000       2.654314        72.2276 
 473   0.0000       2.707968        73.6876 
 474   0.0000       2.747153        74.7538 
 475   0.0000       2.770414        75.3868 
 476   0.0000       2.791145        75.9509 
 477   0.0000       2.793526        76.0157 
 478   0.0000       2.855252        77.6954 
 479   0.0000       2.934457        79.8506 
 480   0.0000       2.952270        80.3353 
 481   0.0000       2.968381        80.7738 
 482   0.0000       3.062022        83.3219 
 483   0.0000       3.286882        89.4406 
 484   0.0000       3.421574        93.1058 
 485   0.0000       4.984150       135.6256 
 486   0.0000       4.991249       135.8188 
 487   0.0000       5.002765       136.1321 
 488   0.0000       5.015015       136.4655 
 489   0.0000       5.015363       136.4750 
 490   0.0000       5.024045       136.7112 
 491   0.0000       5.028982       136.8455 
 492   0.0000       5.030298       136.8814 
 493   0.0000       5.039045       137.1194 
 494   0.0000       5.051352       137.4543 
 495   0.0000       5.089462       138.4913 
 496   0.0000       5.096917       138.6942 
 497   0.0000       5.168060       140.6301 
 498   0.0000       5.200529       141.5136 
 499   0.0000       5.216019       141.9351 
 500   0.0000       5.229034       142.2892 
 501   0.0000       5.250113       142.8628 
 502   0.0000       5.252986       142.9410 
 503   0.0000       5.262313       143.1948 
 504   0.0000       5.287784       143.8879 
 505   0.0000       5.297534       144.1532 
 506   0.0000       5.303733       144.3219 
 507   0.0000       5.316519       144.6698 
 508   0.0000       5.321895       144.8161 
 509   0.0000       5.356103       145.7470 
 510   0.0000       5.368291       146.0786 
 511   0.0000       5.374052       146.2354 
 512   0.0000       5.383928       146.5041 
 513   0.0000       5.405713       147.0969 
 514   0.0000       5.443155       148.1158 
 515   0.0000       5.458358       148.5295 
 516   0.0000       5.482698       149.1918 
 517   0.0000       5.558851       151.2640 
 518   0.0000       5.565716       151.4508 
 519   0.0000       5.590667       152.1298 
 520   0.0000       5.631573       153.2429 
 521   0.0000       5.644902       153.6056 
 522   0.0000       5.650725       153.7640 
 523   0.0000       5.676378       154.4621 
 524   0.0000       5.737519       156.1258 
 525   0.0000       5.744364       156.3121 
 526   0.0000       5.780073       157.2838 
 527   0.0000       5.829124       158.6185 
 528   0.0000       5.849884       159.1834 
 529   0.0000       5.875561       159.8821 
 530   0.0000       5.924402       161.2112 
 531   0.0000       6.102072       166.0458 
 532   0.0000       6.276411       170.7898 
 533   0.0000       6.358984       173.0367 
 534   0.0000      29.611224       805.7624 
 535   0.0000      29.729808       808.9892 
 536   0.0000      29.809929       811.1694 
 537   0.0000      29.835228       811.8578 
 538   0.0000      29.853317       812.3501 
 539   0.0000      29.857874       812.4740 
 540   0.0000      29.955297       815.1251 
 541   0.0000      29.980655       815.8151 
 542   0.0000      29.998055       816.2886 
 543   0.0000      30.036702       817.3402 
 544   0.0000      30.074224       818.3612 
 545   0.0000      30.095905       818.9512 
 546   0.0000      30.102615       819.1338 
 547   0.0000      30.123378       819.6988 
 548   0.0000      30.132706       819.9526 
 549   0.0000      30.172637       821.0392 
 550   0.0000      30.218651       822.2913 
 551   0.0000      30.249184       823.1221 
 552   0.0000      30.255138       823.2842 
 553   0.0000      30.274718       823.8170 
 554   0.0000      30.297223       824.4293 
 555   0.0000      30.402331       827.2895 
 556   0.0000      30.503255       830.0358 
 557   0.0000      30.579238       832.1034 
 558   0.0000      36.608593       996.1705 
 559   0.0000      36.618024       996.4271 
 560   0.0000      36.631999       996.8074 
 561   0.0000      36.639096       997.0005 
 562   0.0000      36.642928       997.1048 
 563   0.0000      36.650108       997.3002 
 564   0.0000      36.654447       997.4182 
 565   0.0000      36.664233       997.6845 
 566   0.0000      36.675152       997.9816 
 567   0.0000      36.705198       998.7992 
 568   0.0000      36.719232       999.1811 
 569   0.0000      36.789534      1001.0941 
 570   0.0000      36.820413      1001.9344 
 571   0.0000      36.827563      1002.1289 
 572   0.0000      36.838574      1002.4286 
 573   0.0000      36.860358      1003.0213 
 574   0.0000      36.873173      1003.3700 
 575   0.0000      36.879448      1003.5408 
 576   0.0000      36.888444      1003.7856 
 577   0.0000      36.921753      1004.6920 
 578   0.0000      36.938226      1005.1402 
 579   0.0000      36.941736      1005.2357 
 580   0.0000      36.973896      1006.1109 
 581   0.0000      37.021450      1007.4049 
 582   0.0000      37.043527      1008.0056 

                 SPIN DOWN ORBITALS
  NO   OCC          E(Eh)            E(eV) 
   0   1.0000     -10.228957      -278.3441 
   1   1.0000     -10.224292      -278.2171 
   2   1.0000     -10.220906      -278.1250 
   3   1.0000     -10.211797      -277.8771 
   4   1.0000     -10.208500      -277.7874 
   5   1.0000     -10.206341      -277.7287 
   6   1.0000     -10.206205      -277.7250 
   7   1.0000     -10.206015      -277.7198 
   8   1.0000     -10.205288      -277.7000 
   9   1.0000     -10.205125      -277.6956 
  10   1.0000     -10.204960      -277.6911 
  11   1.0000     -10.203483      -277.6509 
  12   1.0000     -10.200978      -277.5827 
  13   1.0000     -10.199076      -277.5310 
  14   1.0000     -10.198384      -277.5121 
  15   1.0000     -10.194889      -277.4170 
  16   1.0000     -10.189164      -277.2612 
  17   1.0000     -10.187866      -277.2259 
  18   1.0000     -10.187323      -277.2111 
  19   1.0000     -10.183341      -277.1028 
  20   1.0000     -10.181442      -277.0511 
  21   1.0000     -10.181204      -277.0447 
  22   1.0000     -10.172750      -276.8146 
  23   1.0000     -10.171029      -276.7678 
  24   1.0000      -0.868538       -23.6341 
  25   1.0000      -0.861437       -23.4409 
  26   1.0000      -0.812987       -22.1225 
  27   1.0000      -0.795299       -21.6412 
  28   1.0000      -0.791542       -21.5390 
  29   1.0000      -0.777141       -21.1471 
  30   1.0000      -0.763848       -20.7853 
  31   1.0000      -0.751138       -20.4395 
  32   1.0000      -0.743044       -20.2193 
  33   1.0000      -0.724926       -19.7262 
  34   1.0000      -0.712518       -19.3886 
  35   1.0000      -0.694271       -18.8921 
  36   1.0000      -0.652909       -17.7666 
  37   1.0000      -0.641898       -17.4669 
  38   1.0000      -0.617588       -16.8054 
  39   1.0000      -0.610484       -16.6121 
  40   1.0000      -0.609099       -16.5744 
  41   1.0000      -0.592265       -16.1164 
  42   1.0000      -0.579266       -15.7626 
  43   1.0000      -0.559852       -15.2344 
  44   1.0000      -0.541929       -14.7466 
  45   1.0000      -0.530172       -14.4267 
  46   1.0000      -0.504231       -13.7208 
  47   1.0000      -0.489735       -13.3264 
  48   1.0000      -0.481283       -13.0964 
  49   1.0000      -0.474757       -12.9188 
  50   1.0000      -0.470516       -12.8034 
  51   1.0000      -0.459764       -12.5108 
  52   1.0000      -0.456181       -12.4133 
  53   1.0000      -0.438622       -11.9355 
  54   1.0000      -0.430951       -11.7268 
  55   1.0000      -0.426532       -11.6065 
  56   1.0000      -0.426214       -11.5979 
  57   1.0000      -0.423942       -11.5360 
  58   1.0000      -0.420389       -11.4394 
  59   1.0000      -0.411291       -11.1918 
  60   1.0000      -0.395555       -10.7636 
  61   1.0000      -0.391716       -10.6591 
  62   1.0000      -0.382322       -10.4035 
  63   1.0000      -0.376143       -10.2354 
  64   1.0000      -0.374094       -10.1796 
  65   1.0000      -0.363444        -9.8898 
  66   1.0000      -0.363403        -9.8887 
  67   1.0000      -0.355487        -9.6733 
  68   1.0000      -0.353169        -9.6102 
  69   1.0000      -0.352899        -9.6029 
  70   1.0000      -0.335786        -9.1372 
  71   1.0000      -0.331582        -9.0228 
  72   1.0000      -0.331490        -9.0203 
  73   1.0000      -0.329968        -8.9789 
  74   1.0000      -0.326752        -8.8914 
  75   1.0000      -0.322897        -8.7865 
  76   1.0000      -0.321408        -8.7460 
  77   1.0000      -0.294199        -8.0056 
  78   1.0000      -0.274132        -7.4595 
  79   1.0000      -0.269101        -7.3226 
  80   1.0000      -0.261491        -7.1155 
  81   1.0000      -0.259263        -7.0549 
[...]
  Y           0.6376815           -0.0002471            0.7703001
  Z          -0.0000778           -1.0000000           -0.0002564

Notes:  (1) The A matrix conforms to the "SAI" spin Hamiltonian convention.
        (2) Tensor is right-handed.

 -----------------------------------------------------------
 Nucleus  46H : A:ISTP=    1 I=  0.5 P=533.5514 MHz/au**3
                Q:ISTP=    2 I=  1.0 Q=  0.0029 barn     
 -----------------------------------------------------------
 Solving for nuclear perturbation:
Forming RHS of the CP-SCF equations         ... 
Calc. nucleus orbit integrals (SHARK)       ... done

------------------------------------------------------------------------------
                           ORCA CP-SCF CALCULATION
------------------------------------------------------------------------------

Input orbitals are from        ... EPRII.gbw
Input Perturbation             ... EPRII.pin.tmp
Wavefunction output            ... EPRII.pout.tmp
Perturbation mode              ... Imaginary perturbation
Solver                         ... POPLE
Max. number of iterations      ... 64
Convergence tolerance          ... 1.000e-03
Integral handling              ... Direct
DFT GridXC                     ... 1
COSX GridX                     ... 1
COSX IntAccX                   ... 3.067
COSX Algorithm                 ... Auto
Number of perturbations        ... 3
Number of operators            ... 2
Orbital ranges used for CP-SCF:
 Operator 0:  Orbitals   0... 84  to  85...582
 Operator 1:  Orbitals   0... 83  to  84...582
Variables per perturbation     ... 84246
DFT calculation                         ... on
XC functional terms                     ... off
Hybrid DFT                              ... on
   Exchange mixing (SCF)                ...  0.200
   Exchange mixing (CP-SCF)             ...  0.200
   GGA exch. scaling(SCF)               ...  0.720
   GGA exch. scaling (CP-SCF)           ...  0.720
   GGA corr. scaling (SCF)              ...  0.810
   GGA corr. scaling (CP-SCF)           ...  0.810

CP-SCF GRID
-----------

General Integration Accuracy     IntAcc      ... 3.467
Radial Grid Type                 RadialGrid  ... OptM3 with GC (2021)
Angular Grid (max. ang.)         AngularGrid ... 1 (Lebedev-50)
Angular grid pruning method      GridPruning ... 4 (adaptive)
Weight generation scheme         WeightScheme... Becke
Basis function cutoff            BFCut       ... 1.0000e-10
Integration weight cutoff        WCut        ... 1.0000e-14
Angular grids for H and He will be reduced by one unit
Partially contracted basis set               ... off
Rotationally invariant grid construction     ... off

Total number of grid points                  ...    31890
Total number of batches                      ...      520
Average number of points per batch           ...       61
Average number of grid points per atom       ...      651

CP-SCF GRIDX
------------

General Integration Accuracy     IntAcc      ... 3.067
Radial Grid Type                 RadialGrid  ... OptM3 with GC (2021)
Angular Grid (max. ang.)         AngularGrid ... 1 (Lebedev-50)
Angular grid pruning method      GridPruning ... 4 (adaptive)
Weight generation scheme         WeightScheme... Becke
Basis function cutoff            BFCut       ... 1.0000e-10
Integration weight cutoff        WCut        ... 1.0000e-14
Angular grids for H and He will be reduced by one unit
Partially contracted basis set               ... on
Rotationally invariant grid construction     ... off

Total number of grid points                  ...    14947
Total number of batches                      ...      263
Average number of points per batch           ...       56
Average number of grid points per atom       ...      305

Memory available               ... 850.6 MB
Memory needed per perturbation ...  20.0 MB
Perturbations treated per batch... 3
Number of batches              ... 1
     CP-SCF ITERATION   0:   4.5859e-02 (   2.3 sec   0/  3 done)
     CP-SCF ITERATION   1:   1.9525e-03 (   2.2 sec   0/  3 done)
     CP-SCF ITERATION   2:   1.3685e-04 (   2.3 sec   3/  3 done)
                    *** THE CP-SCF HAS CONVERGED ***

Forming final perturbed densities           ... done
Transforming perturbed density to AO basis  ... done

 Raw HFC matrix (all values in MHz): 
 -----------------------------------
                 1.4401              -0.3236              -0.0001
                -0.3234               0.2547              -0.0000
                -0.0001              -0.0000               0.6118

 A(FC)           0.7689               0.7689               0.7689
 A(SD)          -0.5966              -0.1572               0.7538
 A(ORB+DIA)     -0.0001               0.0001              -0.0001    A(PC) =  -0.0001
 A(ORB)         -0.0001              -0.0000              -0.0002    A(PC) =  -0.0001
 A(DIA)         -0.0000               0.0001               0.0001    A(PC) =   0.0000
             ----------           ----------           ----------
 A(Tot)          0.1722               0.6118               1.5226    A(iso)=    0.7688
 Orientation: 
  X          -0.2472967           -0.0000406            0.9689398
  Y          -0.9689398            0.0001599           -0.2472967
  Z          -0.0001449           -1.0000000           -0.0000789

Notes:  (1) The A matrix conforms to the "SAI" spin Hamiltonian convention.
        (2) Tensor is right-handed.

 -----------------------------------------------------------
 Nucleus  47H : A:ISTP=    1 I=  0.5 P=533.5514 MHz/au**3
                Q:ISTP=    2 I=  1.0 Q=  0.0029 barn     
 -----------------------------------------------------------
 Solving for nuclear perturbation:
Forming RHS of the CP-SCF equations         ... 
Calc. nucleus orbit integrals (SHARK)       ... done

------------------------------------------------------------------------------
                           ORCA CP-SCF CALCULATION
------------------------------------------------------------------------------

Input orbitals are from        ... EPRII.gbw
Input Perturbation             ... EPRII.pin.tmp
Wavefunction output            ... EPRII.pout.tmp
Perturbation mode              ... Imaginary perturbation
Solver                         ... POPLE
Max. number of iterations      ... 64
Convergence tolerance          ... 1.000e-03
Integral handling              ... Direct
DFT GridXC                     ... 1
COSX GridX                     ... 1
COSX IntAccX                   ... 3.067
COSX Algorithm                 ... Auto
Number of perturbations        ... 3
Number of operators            ... 2
Orbital ranges used for CP-SCF:
 Operator 0:  Orbitals   0... 84  to  85...582
 Operator 1:  Orbitals   0... 83  to  84...582
Variables per perturbation     ... 84246
DFT calculation                         ... on
XC functional terms                     ... off
Hybrid DFT                              ... on
   Exchange mixing (SCF)                ...  0.200
   Exchange mixing (CP-SCF)             ...  0.200
   GGA exch. scaling(SCF)               ...  0.720
   GGA exch. scaling (CP-SCF)           ...  0.720
   GGA corr. scaling (SCF)              ...  0.810
   GGA corr. scaling (CP-SCF)           ...  0.810

CP-SCF GRID
-----------

General Integration Accuracy     IntAcc      ... 3.467
Radial Grid Type                 RadialGrid  ... OptM3 with GC (2021)
Angular Grid (max. ang.)         AngularGrid ... 1 (Lebedev-50)
Angular grid pruning method      GridPruning ... 4 (adaptive)
Weight generation scheme         WeightScheme... Becke
Basis function cutoff            BFCut       ... 1.0000e-10
Integration weight cutoff        WCut        ... 1.0000e-14
Angular grids for H and He will be reduced by one unit
Partially contracted basis set               ... off
Rotationally invariant grid construction     ... off

Total number of grid points                  ...    31890
Total number of batches                      ...      520
Average number of points per batch           ...       61
Average number of grid points per atom       ...      651

CP-SCF GRIDX
------------

General Integration Accuracy     IntAcc      ... 3.067
Radial Grid Type                 RadialGrid  ... OptM3 with GC (2021)
Angular Grid (max. ang.)         AngularGrid ... 1 (Lebedev-50)
Angular grid pruning method      GridPruning ... 4 (adaptive)
Weight generation scheme         WeightScheme... Becke
Basis function cutoff            BFCut       ... 1.0000e-10
Integration weight cutoff        WCut        ... 1.0000e-14
Angular grids for H and He will be reduced by one unit
Partially contracted basis set               ... on
Rotationally invariant grid construction     ... off

Total number of grid points                  ...    14947
Total number of batches                      ...      263
Average number of points per batch           ...       56
Average number of grid points per atom       ...      305

Memory available               ... 849.8 MB
Memory needed per perturbation ...  20.0 MB
Perturbations treated per batch... 3
Number of batches              ... 1
     CP-SCF ITERATION   0:   4.5817e-02 (   2.1 sec   0/  3 done)
     CP-SCF ITERATION   1:   1.9489e-03 (   2.1 sec   0/  3 done)
     CP-SCF ITERATION   2:   1.3989e-04 (   2.1 sec   3/  3 done)
                    *** THE CP-SCF HAS CONVERGED ***

Forming final perturbed densities           ... done
Transforming perturbed density to AO basis  ... done

 Raw HFC matrix (all values in MHz): 
 -----------------------------------
                 1.3170               0.4055               0.0000
                 0.4053               0.3302               0.0001
                 0.0000               0.0001               0.6593

 A(FC)           0.7689               0.7689               0.7689
 A(SD)          -0.5838              -0.1096               0.6934
 A(ORB+DIA)     -0.0001               0.0001              -0.0002    A(PC) =  -0.0001
 A(ORB)         -0.0001              -0.0000              -0.0002    A(PC) =  -0.0001
 A(DIA)         -0.0000               0.0001               0.0000    A(PC) =   0.0000
             ----------           ----------           ----------
 A(Tot)          0.1850               0.6593               1.4621    A(iso)=    0.7688
 Orientation: 
  X           0.3371988            0.0000864            0.9414335
  Y          -0.9414335           -0.0000502            0.3371988
  Z           0.0000764           -1.0000000            0.0000644

Notes:  (1) The A matrix conforms to the "SAI" spin Hamiltonian convention.
        (2) Tensor is right-handed.

 -----------------------------------------------------------
 Nucleus  48H : A:ISTP=    1 I=  0.5 P=533.5514 MHz/au**3
                Q:ISTP=    2 I=  1.0 Q=  0.0029 barn     
 -----------------------------------------------------------
 Solving for nuclear perturbation:
Forming RHS of the CP-SCF equations         ... 
Calc. nucleus orbit integrals (SHARK)       ... done

------------------------------------------------------------------------------
                           ORCA CP-SCF CALCULATION
------------------------------------------------------------------------------

Input orbitals are from        ... EPRII.gbw
Input Perturbation             ... EPRII.pin.tmp
Wavefunction output            ... EPRII.pout.tmp
Perturbation mode              ... Imaginary perturbation
Solver                         ... POPLE
Max. number of iterations      ... 64
Convergence tolerance          ... 1.000e-03
Integral handling              ... Direct
DFT GridXC                     ... 1
COSX GridX                     ... 1
COSX IntAccX                   ... 3.067
COSX Algorithm                 ... Auto
Number of perturbations        ... 3
Number of operators            ... 2
Orbital ranges used for CP-SCF:
 Operator 0:  Orbitals   0... 84  to  85...582
 Operator 1:  Orbitals   0... 83  to  84...582
Variables per perturbation     ... 84246
DFT calculation                         ... on
XC functional terms                     ... off
Hybrid DFT                              ... on
   Exchange mixing (SCF)                ...  0.200
   Exchange mixing (CP-SCF)             ...  0.200
   GGA exch. scaling(SCF)               ...  0.720
   GGA exch. scaling (CP-SCF)           ...  0.720
   GGA corr. scaling (SCF)              ...  0.810
   GGA corr. scaling (CP-SCF)           ...  0.810

CP-SCF GRID
-----------

General Integration Accuracy     IntAcc      ... 3.467
Radial Grid Type                 RadialGrid  ... OptM3 with GC (2021)
Angular Grid (max. ang.)         AngularGrid ... 1 (Lebedev-50)
Angular grid pruning method      GridPruning ... 4 (adaptive)
Weight generation scheme         WeightScheme... Becke
Basis function cutoff            BFCut       ... 1.0000e-10
Integration weight cutoff        WCut        ... 1.0000e-14
Angular grids for H and He will be reduced by one unit
Partially contracted basis set               ... off
Rotationally invariant grid construction     ... off

Total number of grid points                  ...    31890
Total number of batches                      ...      520
Average number of points per batch           ...       61
Average number of grid points per atom       ...      651

CP-SCF GRIDX
------------

General Integration Accuracy     IntAcc      ... 3.067
Radial Grid Type                 RadialGrid  ... OptM3 with GC (2021)
Angular Grid (max. ang.)         AngularGrid ... 1 (Lebedev-50)
Angular grid pruning method      GridPruning ... 4 (adaptive)
Weight generation scheme         WeightScheme... Becke
Basis function cutoff            BFCut       ... 1.0000e-10
Integration weight cutoff        WCut        ... 1.0000e-14
Angular grids for H and He will be reduced by one unit
Partially contracted basis set               ... on
Rotationally invariant grid construction     ... off

Total number of grid points                  ...    14947
Total number of batches                      ...      263
Average number of points per batch           ...       56
Average number of grid points per atom       ...      305

Memory available               ... 849.1 MB
Memory needed per perturbation ...  20.0 MB
Perturbations treated per batch... 3
Number of batches              ... 1
     CP-SCF ITERATION   0:   4.2028e-02 (   2.3 sec   0/  3 done)
     CP-SCF ITERATION   1:   1.7185e-03 (   2.2 sec   1/  3 done)
     CP-SCF ITERATION   2:   7.8846e-05 (   1.9 sec   3/  3 done)
                    *** THE CP-SCF HAS CONVERGED ***

Forming final perturbed densities           ... done
Transforming perturbed density to AO basis  ... done

 Raw HFC matrix (all values in MHz): 
 -----------------------------------
                -0.2693              -0.1227              -0.0001
                -0.1226              -0.3959              -0.0000
                -0.0001              -0.0000              -0.3500

 A(FC)          -0.3384              -0.3384              -0.3384
 A(SD)           0.1438              -0.0116              -0.1322
 A(ORB+DIA)      0.0000               0.0000               0.0001    A(PC) =   0.0001
 A(ORB)          0.0000               0.0000               0.0001    A(PC) =   0.0000
 A(DIA)          0.0000               0.0000               0.0000    A(PC) =   0.0000
             ----------           ----------           ----------
 A(Tot)         -0.1946              -0.3500              -0.4706    A(iso)=   -0.3384
 Orientation: 
  X           0.8539891            0.0000188            0.5202909
  Y          -0.5202908            0.0006918            0.8539889
  Z          -0.0003439           -0.9999998            0.0006006

Notes:  (1) The A matrix conforms to the "SAI" spin Hamiltonian convention.
        (2) Tensor is right-handed.


--------------------------------------------------------------------------------
----------------------------------------------------------------------------
                           ORCA EULER ANGLE PROGRAM
----------------------------------------------------------------------------

Only g-tensor available        -->  using g-tensor as reference tensor

Reference tensor               ...  g

g-tensor ordering              ...  |g_min> --> |gx>
                                    |g_mid> --> |gy>
                                    |g_max> --> |gz>

A- and EFG-tensor ordering     ...  the axes |Ax>, |Qx>, |Ay>, etc. are assigned
                                    such that the Euler rotation is minimal. You
                                    can find the respective eigenvalues as Ax,
                                    EFGx, Ay, etc. in the tables below.
                                    The relation of |Ax>, |Ay>,  etc. to Amin, Amid, etc.
                                    (as printed in the ORCA EPR/NMR CALCULATION Output)
                                    is obtained in the detailed printout.

Euler rotation around          ...  z - y - z
   First rotation              -->  by alpha around z
   Second rotation             -->  by beta around y'
   Third rotation              -->  by gamma around z''
   Positive / Negative angle   -->  clockwise / counterclockwise rotation

Plot EFG-tensors                    (-)
Plot HFC-tensors                    (-)
Detailed Printout                   (-)

-------------------------------------------------------------------------
          Euler rotation of hyperfine tensor to g-tensor
-------------------------------------------------------------------------

-------------------------------------------------------------------
 Atom  |   Alpha    Beta    Gamma   |   Ax       Ay       Az 
       |          [degrees]         |           [MHz]         
-------------------------------------------------------------------
  9H      -89.8      8.9     89.8     -17.40    -8.04   -21.05
 10H      -90.0     11.6     90.0       4.58     5.21    10.20
 12H       90.0     41.3    -90.0     -49.29   -20.22   -75.05
 14H     -146.0     14.4    164.8      67.13    76.95    68.64
 15H      -34.4     14.1     15.8      66.81    76.63    68.32
 17H      162.8     24.4   -126.4      -3.29    -3.13     3.09
 18H       17.1     24.2    -53.8      -3.29    -3.13     3.08
 20H      -52.8     52.6     25.8      -0.06     2.29     0.04
 21H     -127.4     52.9    154.5      -0.06     2.29     0.04
 23H      -49.7     17.7     10.1      23.80    24.42    27.59
 24H     -130.3     17.7    170.0      23.81    24.42    27.60
 26H      -98.6     35.0     85.6      -1.04     0.95    -0.92
 27H      -81.5     35.0     94.6      -1.05     0.95    -0.92
 29H      100.1     25.5    -69.6      -0.10    -0.14     0.83
 30H       79.9     25.5   -110.3      -0.10    -0.14     0.83
 32H       84.0     42.5    -79.1      -0.13    -0.11     0.39
 33H       96.0     42.5   -100.8      -0.13    -0.11     0.39
 35H       90.1     36.1    -90.0      -9.04    -3.56   -12.03
 36H       89.0     34.0    -90.1      -0.84    -0.86     0.72
 37H       89.9     32.5    -89.9      -0.13    -0.13     0.24
 44H       89.9     39.8    -89.9       0.74     0.47     1.21
 45H      -90.0      7.3     90.0      -0.33    -0.52    -0.16
 46H       90.0     28.8    -89.9       0.61     1.52     0.17
 47H      -90.0     27.2     90.0       0.66     0.18     1.46
 48H       89.8     11.7    -89.7      -0.35    -0.19    -0.47
-------------------------------------------------------------------


Maximum memory used throughout the entire EPRNMR-calculation: 248.0 MB

Timings for individual modules:

Sum of individual times         ...     5355.728 sec (=  89.262 min)
GTO integral calculation        ...        5.938 sec (=   0.099 min)   0.1 %
Spin-Orbit-Coupling Matrices    ...       14.595 sec (=   0.243 min)   0.3 %
SCF iterations                  ...       83.409 sec (=   1.390 min)   1.6 %
EPR/NMR calculation             ...     5251.786 sec (=  87.530 min)  98.1 %
                             ****ORCA TERMINATED NORMALLY****
TOTAL RUN TIME: 0 days 1 hours 29 minutes 20 seconds 136 msec
