
                                 *****************
                                 * O   R   C   A *
                                 *****************

                                            #,                                       
                                            ###                                      
                                            ####                                     
                                            #####                                    
                                            ######                                   
                                           ########,                                 
                                     ,,################,,,,,                         
                               ,,#################################,,                 
                          ,,##########################################,,             
                       ,#########################################, ''#####,          
                    ,#############################################,,   '####,        
                  ,##################################################,,,,####,       
                ,###########''''           ''''###############################       
              ,#####''   ,,,,##########,,,,          '''####'''          '####       
            ,##' ,,,,###########################,,,                        '##       
           ' ,,###''''                  '''############,,,                           
         ,,##''                                '''############,,,,        ,,,,,,###''
      ,#''                                            '''#######################'''  
     '                                                          ''''####''''         
             ,#######,   #######,   ,#######,      ##                                
            ,#'     '#,  ##    ##  ,#'     '#,    #''#        ######   ,####,        
            ##       ##  ##   ,#'  ##            #'  '#       #        #'  '#        
            ##       ##  #######   ##           ,######,      #####,   #    #        
            '#,     ,#'  ##    ##  '#,     ,#' ,#      #,         ##   #,  ,#        
             '#######'   ##     ##  '#######'  #'      '#     #####' # '####'        



                  #######################################################
                  #                        -***-                        #
                  #          Department of theory and spectroscopy      #
                  #    Directorship and core code : Frank Neese         #
                  #        Max Planck Institute fuer Kohlenforschung    #
                  #                Kaiser Wilhelm Platz 1               #
                  #                 D-45470 Muelheim/Ruhr               #
                  #                      Germany                        #
                  #                                                     #
                  #                  All rights reserved                #
                  #                        -***-                        #
                  #######################################################


                         Program Version 5.0.4 -  RELEASE  -


 With contributions from (in alphabetic order):
   Daniel Aravena         : Magnetic Suceptibility
   Michael Atanasov       : Ab Initio Ligand Field Theory (pilot matlab implementation)
   Alexander A. Auer      : GIAO ZORA, VPT2 properties, NMR spectrum
   Ute Becker             : Parallelization
   Giovanni Bistoni       : ED, misc. LED, open-shell LED, HFLD
   Martin Brehm           : Molecular dynamics
   Dmytro Bykov           : SCF Hessian
   Vijay G. Chilkuri      : MRCI spin determinant printing, contributions to CSF-ICE
   Dipayan Datta          : RHF DLPNO-CCSD density
   Achintya Kumar Dutta   : EOM-CC, STEOM-CC
   Dmitry Ganyushin       : Spin-Orbit,Spin-Spin,Magnetic field MRCI
   Miquel Garcia          : C-PCM and meta-GGA Hessian, CC/C-PCM, Gaussian charge scheme
   Yang Guo               : DLPNO-NEVPT2, F12-NEVPT2, CIM, IAO-localization
   Andreas Hansen         : Spin unrestricted coupled pair/coupled cluster methods
   Benjamin Helmich-Paris : MC-RPA, TRAH-SCF, COSX integrals
   Lee Huntington         : MR-EOM, pCC
   Robert Izsak           : Overlap fitted RIJCOSX, COSX-SCS-MP3, EOM
   Marcus Kettner         : VPT2
   Christian Kollmar      : KDIIS, OOCD, Brueckner-CCSD(T), CCSD density, CASPT2, CASPT2-K
   Simone Kossmann        : Meta GGA functionals, TD-DFT gradient, OOMP2, MP2 Hessian
   Martin Krupicka        : Initial AUTO-CI
   Lucas Lang             : DCDCAS
   Marvin Lechner         : AUTO-CI (C++ implementation), FIC-MRCC
   Dagmar Lenk            : GEPOL surface, SMD
   Dimitrios Liakos       : Extrapolation schemes; Compound Job, initial MDCI parallelization
   Dimitrios Manganas     : Further ROCIS development; embedding schemes
   Dimitrios Pantazis     : SARC Basis sets
   Anastasios Papadopoulos: AUTO-CI, single reference methods and gradients
   Taras Petrenko         : DFT Hessian,TD-DFT gradient, ASA, ECA, R-Raman, ABS, FL, XAS/XES, NRVS
   Peter Pinski           : DLPNO-MP2, DLPNO-MP2 Gradient
   Christoph Reimann      : Effective Core Potentials
   Marius Retegan         : Local ZFS, SOC
   Christoph Riplinger    : Optimizer, TS searches, QM/MM, DLPNO-CCSD(T), (RO)-DLPNO pert. Triples
   Tobias Risthaus        : Range-separated hybrids, TD-DFT gradient, RPA, STAB
   Michael Roemelt        : Original ROCIS implementation
   Masaaki Saitow         : Open-shell DLPNO-CCSD energy and density
   Barbara Sandhoefer     : DKH picture change effects
   Avijit Sen             : IP-ROCIS
   Kantharuban Sivalingam : CASSCF convergence, NEVPT2, FIC-MRCI
   Bernardo de Souza      : ESD, SOC TD-DFT
   Georgi Stoychev        : AutoAux, RI-MP2 NMR, DLPNO-MP2 response
   Willem Van den Heuvel  : Paramagnetic NMR
   Boris Wezisla          : Elementary symmetry handling
   Frank Wennmohs         : Technical directorship


 We gratefully acknowledge several colleagues who have allowed us to
 interface, adapt or use parts of their codes:
   Stefan Grimme, W. Hujo, H. Kruse, P. Pracht,  : VdW corrections, initial TS optimization,
                  C. Bannwarth, S. Ehlert          DFT functionals, gCP, sTDA/sTD-DF
   Ed Valeev, F. Pavosevic, A. Kumar             : LibInt (2-el integral package), F12 methods
   Garnet Chan, S. Sharma, J. Yang, R. Olivares  : DMRG
   Ulf Ekstrom                                   : XCFun DFT Library
   Mihaly Kallay                                 : mrcc  (arbitrary order and MRCC methods)
   Jiri Pittner, Ondrej Demel                    : Mk-CCSD
   Frank Weinhold                                : gennbo (NPA and NBO analysis)
   Christopher J. Cramer and Donald G. Truhlar   : smd solvation model
   Lars Goerigk                                  : TD-DFT with DH, B97 family of functionals
   V. Asgeirsson, H. Jonsson                     : NEB implementation
   FAccTs GmbH                                   : IRC, NEB, NEB-TS, DLPNO-Multilevel, CI-OPT
                                                   MM, QMMM, 2- and 3-layer-ONIOM, Crystal-QMMM,
                                                   LR-CPCM, SF, NACMEs, symmetry and pop. for TD-DFT,
                                                   nearIR, NL-DFT gradient (VV10), updates on ESD,
                                                   ML-optimized integration grids
   S Lehtola, MJT Oliveira, MAL Marques          : LibXC Library
   Liviu Ungur et al                             : ANISO software


 Your calculation uses the libint2 library for the computation of 2-el integrals
 For citations please refer to: http://libint.valeyev.net

 Your ORCA version has been built with support for libXC version: 5.1.0
 For citations please refer to: https://tddft.org/programs/libxc/

 This ORCA versions uses:
   CBLAS   interface :  Fast vector & matrix operations
   LAPACKE interface :  Fast linear algebra routines
   SCALAPACK package :  Parallel linear algebra routines
   Shared memory     :  Shared parallel matrices
   BLAS/LAPACK       :  OpenBLAS 0.3.15  USE64BITINT DYNAMIC_ARCH NO_AFFINITY SkylakeX SINGLE_THREADED
        Core in use  :  SkylakeX
   Copyright (c) 2011-2014, The OpenBLAS Project




***************************************
The coordinates will be read from file: opt.xyz
***************************************


================================================================================

----- Orbital basis set information -----
Your calculation utilizes the basis: EPR-II
   V. Barone, in Recent Advances in Density Functional Methods, Part 1 (ed. D. P. Chong), World Scientific, Singapore, 1995, p. 287.

----- AuxJ basis set information -----
Your calculation utilizes the AutoAux generation procedure.
  G. L. Stoychev, A. A. Auer, F. Neese, J. Chem. Theory Comput. 13, 554 (2017)

----- AuxC basis set information -----
Your calculation utilizes the AutoAux generation procedure.
  G. L. Stoychev, A. A. Auer, F. Neese, J. Chem. Theory Comput. 13, 554 (2017)

----- AuxJK basis set information -----
Your calculation utilizes the AutoAux generation procedure.
  G. L. Stoychev, A. A. Auer, F. Neese, J. Chem. Theory Comput. 13, 554 (2017)

================================================================================
                                        WARNINGS
                       Please study these warnings very carefully!
================================================================================

WARNING: Old DensityContainer found on disk!
         Will remove this file - 
         If you want to keep old densities, please start your calculation with a different basename. 


WARNING: your system is open-shell and RHF/RKS was chosen
  ===> : WILL SWITCH to UHF/UKS


INFO   : the flag for use of the SHARK integral package has been found!

================================================================================
                                       INPUT FILE
================================================================================
NAME = EPRII.inp
|  1> ! B3LYP EPR-II AUTOAUX
|  2> %pal nprocs 16 end
|  3> *XYZFile 0 2 opt.xyz
|  4> %EPRNMR
|  5>         GTENSOR   TRUE
|  6>         NUCLEI    = ALL H {SHIFT, AISO, ADIP, AORB}
|  7>         ORI       CenterOfElCharge
|  8> END
|  9> 
| 10>                          ****END OF INPUT****
================================================================================

                       ****************************
                       * Single Point Calculation *
                       ****************************

---------------------------------
CARTESIAN COORDINATES (ANGSTROEM)
---------------------------------
  C     -4.052268    0.115614   -0.001692
  C     -2.836565    0.052160   -0.003421
  C      2.842829   -0.004216   -0.002352
  C     -1.410014    0.002656   -0.003149
  C     -0.708139   -1.258090   -0.002726
  C      0.713185   -1.192512   -0.002392
  C      1.414143    0.016922   -0.002570
  C      0.706182    1.260759   -0.003012
  C     -0.689438    1.209567   -0.003370
  H      1.288191   -2.118709   -0.002058
  H     -1.263059    2.136269   -0.003793
  C     -1.396801   -2.492011   -0.002645
  H     -2.489358   -2.454708   -0.003064
  C     -0.741126   -3.840380   -0.002172
  H     -0.069922   -3.936290   -0.880793
  H     -0.068807   -3.935156    0.875698
  C     -1.739120   -5.005603   -0.000787
  H     -2.397379   -4.914277    0.882428
  H     -2.398569   -4.915385   -0.883231
  C     -1.061646   -6.377131   -0.000385
  H     -0.420496   -6.507557    0.888639
  H     -0.421640   -6.508641   -0.890074
  C      1.479774    2.562726   -0.003141
  H      2.157489    2.561725    0.871211
  H      2.158029    2.561237   -0.877070
  C      0.660782    3.856198   -0.003729
  H     -0.002282    3.880554   -0.888104
  H     -0.002671    3.881100    0.880341
  C      1.541048    5.111788   -0.003930
  H      2.207161    5.089300    0.878622
  H      2.207254    5.088941   -0.886402
  C      0.734674    6.412803   -0.004240
  H      0.084530    6.481508    0.885049
  H      0.084510    6.481072   -0.893549
  C      4.064589   -0.029084   -0.003390
  H     -5.122850    0.176841    0.002017
  H     -1.802776   -7.192512    0.000594
  H      1.393262    7.296517   -0.004468
  C      5.492574   -0.059283   -0.003026
  C      6.185759   -1.289431   -0.002819
  C      7.580089   -1.313817   -0.002390
  C      8.308273   -0.118677   -0.002188
  C      7.631219    1.106277   -0.002419
  C      6.237203    1.140549   -0.002850
  H      9.400533   -0.141833   -0.001853
  H      8.194107    2.042827   -0.002269
  H      5.615401   -2.220203   -0.002988
  H      5.707015    2.094785   -0.003040
  H      8.103468   -2.273007   -0.002217

----------------------------
CARTESIAN COORDINATES (A.U.)
----------------------------
  NO LB      ZA    FRAG     MASS         X           Y           Z
   0 C     6.0000    0    12.011   -7.657677    0.218479   -0.003198
   1 C     6.0000    0    12.011   -5.360331    0.098568   -0.006465
   2 C     6.0000    0    12.011    5.372169   -0.007967   -0.004444
   3 C     6.0000    0    12.011   -2.664541    0.005019   -0.005951
   4 C     6.0000    0    12.011   -1.338189   -2.377445   -0.005152
   5 C     6.0000    0    12.011    1.347725   -2.253522   -0.004520
   6 C     6.0000    0    12.011    2.672344    0.031979   -0.004857
   7 C     6.0000    0    12.011    1.334492    2.382489   -0.005692
   8 C     6.0000    0    12.011   -1.302849    2.285750   -0.006369
   9 H     1.0000    0     1.008    2.434329   -4.003780   -0.003889
  10 H     1.0000    0     1.008   -2.386836    4.036963   -0.007168
  11 C     6.0000    0    12.011   -2.639571   -4.709218   -0.004998
  12 H     1.0000    0     1.008   -4.704205   -4.638725   -0.005790
  13 C     6.0000    0    12.011   -1.400526   -7.257266   -0.004105
  14 H     1.0000    0     1.008   -0.132134   -7.438510   -1.664458
  15 H     1.0000    0     1.008   -0.130026   -7.436367    1.654830
  16 C     6.0000    0    12.011   -3.286461   -9.459219   -0.001488
  17 H     1.0000    0     1.008   -4.530390   -9.286638    1.667547
  18 H     1.0000    0     1.008   -4.532639   -9.288732   -1.669064
  19 C     6.0000    0    12.011   -2.006221  -12.051031   -0.000728
  20 H     1.0000    0     1.008   -0.794621  -12.297500    1.679284
  21 H     1.0000    0     1.008   -0.796784  -12.299549   -1.681996
  22 C     6.0000    0    12.011    2.796368    4.842850   -0.005935
  23 H     1.0000    0     1.008    4.077063    4.840958    1.646350
  24 H     1.0000    0     1.008    4.078084    4.840037   -1.657422
  25 C     6.0000    0    12.011    1.248696    7.287158   -0.007047
  26 H     1.0000    0     1.008   -0.004313    7.333185   -1.678274
  27 H     1.0000    0     1.008   -0.005048    7.334215    1.663603
  28 C     6.0000    0    12.011    2.912159    9.659880   -0.007426
  29 H     1.0000    0     1.008    4.170930    9.617383    1.660355
  30 H     1.0000    0     1.008    4.171105    9.616705   -1.675058
  31 C     6.0000    0    12.011    1.388332   12.118442   -0.008013
  32 H     1.0000    0     1.008    0.159738   12.248276    1.672501
  33 H     1.0000    0     1.008    0.159700   12.247452   -1.688563
  34 C     6.0000    0    12.011    7.680960   -0.054961   -0.006406
  35 H     1.0000    0     1.008   -9.680783    0.334181    0.003811
  36 H     1.0000    0     1.008   -3.406754  -13.591879    0.001122
  37 H     1.0000    0     1.008    2.632883   13.788418   -0.008442
  38 C     6.0000    0    12.011   10.379460   -0.112029   -0.005718
  39 C     6.0000    0    12.011   11.689391   -2.436671   -0.005326
  40 C     6.0000    0    12.011   14.324292   -2.482754   -0.004516
  41 C     6.0000    0    12.011   15.700361   -0.224267   -0.004135
  42 C     6.0000    0    12.011   14.420914    2.090561   -0.004572
  43 C     6.0000    0    12.011   11.786606    2.155326   -0.005386
  44 H     1.0000    0     1.008   17.764432   -0.268026   -0.003502
  45 H     1.0000    0     1.008   15.484619    3.860384   -0.004288
  46 H     1.0000    0     1.008   10.611570   -4.195575   -0.005647
  47 H     1.0000    0     1.008   10.784695    3.958571   -0.005746
  48 H     1.0000    0     1.008   15.313335   -4.295361   -0.004190

--------------------------------
INTERNAL COORDINATES (ANGSTROEM)
--------------------------------
 C      0   0   0     0.000000000000     0.00000000     0.00000000
 C      1   0   0     1.217359260364     0.00000000     0.00000000
 C      2   1   0     5.679674327504   177.57909499     0.00000000
 C      2   1   3     1.427409552105   178.99534651     3.08808618
 C      4   2   1     1.442951425572   121.09278371   174.71811389
 C      5   4   2     1.422836285811   116.46367031   180.00407821
 C      6   5   4     1.397882258686   122.73715019     0.00000000
 C      7   6   5     1.431201738527   120.25703922     0.00000000
 C      8   7   6     1.396559095721   117.54676217     0.00000000
 H      6   5   4     1.090170958943   119.19138482   179.99948449
 H      9   8   7     1.089870544167   119.65647988   180.00493673
 C      5   4   2     1.413087871575   121.72841724     0.00000000
 H     12   5   4     1.093193664881   117.21076493     0.00000000
 C     12   5   4     1.499335667753   124.90135308   180.00200593
 H     14  12   5     1.109814590441   109.99569207   302.57756505
 H     14  12   5     1.109798677346   109.99718402    57.30659809
 C     14  12   5     1.534190058153   113.48814276   179.94286128
 H     17  14  12     1.105312120549   108.98789398   302.35921625
 H     17  14  12     1.105313671011   108.98908084    57.63428164
 C     17  14  12     1.529725173464   113.13319790   179.99705768
 H     20  17  14     1.103833908636   111.30840897    59.86326630
 H     20  17  14     1.103833841714   111.30827615   300.13931194
 C      8   7   6     1.514450838400   119.63497019   179.99741455
 H     23   8   7     1.106250292653   108.18504701   303.71758795
 H     23   8   7     1.106247903877   108.18538127    56.27063565
 C     23   8   7     1.530953628554   116.94152217   179.99536478
 H     26  23   8     1.105606971055   109.86150781   301.75578256
 H     26  23   8     1.105607966662   109.86090980    58.25344213
 C     26  23   8     1.533419801342   112.62564205   180.00467961
 H     29  26  23     1.105942745177   109.20811490   302.33823521
 H     29  26  23     1.105942536750   109.20759569    57.68502110
 C     29  26  23     1.530647016941   113.17574209   180.01128968
 H     32  29  26     1.103740707934   111.28832870    59.85524771
 H     32  29  26     1.103740858252   111.28837505   300.15428281
 C      3   2   1     1.222013211744   179.39972339   183.50339480
 H      1   2   4     1.072337309213   179.69168392   343.00096738
 H     20  17  14     1.101871872811   111.44384015   180.00101100
 H     32  29  26     1.102128421739   111.51385020   180.00492423
 C     35   3   7     1.428304078639   179.92207852   295.47244443
 C     39  35   3     1.412008938125   120.61267562    54.30194255
 C     40  39  35     1.394543110631   120.40313695   180.00350810
 C     41  40  39     1.399504386554   120.35146742     0.00000000
 C     42  41  40     1.399612460365   119.71634157     0.00000000
 C     43  42  41     1.394437327793   120.33855062     0.00000000
 H     42  41  40     1.092504659132   120.13892208   180.00005377
 H     43  42  41     1.092688694510   120.06294536   180.00032209
 H     40  39  35     1.091624690355   119.09971744     0.00000000
 H     44  43  42     1.091634750457   120.46557739   180.00056615
 H     41  40  39     1.092689909688   119.62092764   179.99904039

---------------------------
INTERNAL COORDINATES (A.U.)
---------------------------
 C      0   0   0     0.000000000000     0.00000000     0.00000000
 C      1   0   0     2.300475608681     0.00000000     0.00000000
 C      2   1   0    10.733029008846   177.57909499     0.00000000
 C      2   1   3     2.697413134421   178.99534651     3.08808618
 C      4   2   1     2.726783018883   121.09278371   174.71811389
 C      5   4   2     2.688770913588   116.46367031   180.00407821
 C      6   5   4     2.641614636385   122.73715019     0.00000000
 C      7   6   5     2.704579328209   120.25703922     0.00000000
 C      8   7   6     2.639114220749   117.54676217     0.00000000
 H      6   5   4     2.060124551556   119.19138482   179.99948449
 H      9   8   7     2.059556849904   119.65647988   180.00493673
 C      5   4   2     2.670349080442   121.72841724     0.00000000
 H     12   5   4     2.065836637963   117.21076493     0.00000000
 C     12   5   4     2.833333794873   124.90135308   180.00200593
 H     14  12   5     2.097245635363   109.99569207   302.57756505
 H     14  12   5     2.097215563971   109.99718402    57.30659809
 C     14  12   5     2.899199047294   113.48814276   179.94286128
 H     17  14  12     2.088737200342   108.98789398   302.35921625
 H     17  14  12     2.088740130290   108.98908084    57.63428164
 C     17  14  12     2.890761638011   113.13319790   179.99705768
 H     20  17  14     2.085943784658   111.30840897    59.86326630
 H     20  17  14     2.085943658193   111.30827615   300.13931194
 C      8   7   6     2.861897327863   119.63497019   179.99741455
 H     23   8   7     2.090510088684   108.18504701   303.71758795
 H     23   8   7     2.090505574553   108.18538127    56.27063565
 C     23   8   7     2.893083081700   116.94152217   179.99536478
 H     26  23   8     2.089294387049   109.86150781   301.75578256
 H     26  23   8     2.089296268473   109.86090980    58.25344213
 C     26  23   8     2.897743472868   112.62564205   180.00467961
 H     29  26  23     2.089928908181   109.20811490   302.33823521
 H     29  26  23     2.089928514311   109.20759569    57.68502110
 C     29  26  23     2.892503669722   113.17574209   180.01128968
 H     32  29  26     2.085767660856   111.28832870    59.85524771
 H     32  29  26     2.085767944915   111.28837505   300.15428281
 C      3   2   1     2.309270302229   179.39972339   183.50339480
 H      1   2   4     2.026423837598   179.69168392   343.00096738
 H     20  17  14     2.082236074284   111.44384015   180.00101100
 H     32  29  26     2.082720881497   111.51385020   180.00492423
 C     35   3   7     2.699103544590   179.92207852   295.47244443
 C     39  35   3     2.668310191706   120.61267562    54.30194255
 C     40  39  35     2.635304561040   120.40313695   180.00350810
 C     41  40  39     2.644680013809   120.35146742     0.00000000
 C     42  41  40     2.644884243713   119.71634157     0.00000000
 C     43  42  41     2.635104660446   120.33855062     0.00000000
 H     42  41  40     2.064534605792   120.13892208   180.00005377
 H     43  42  41     2.064882382255   120.06294536   180.00032209
 H     40  39  35     2.062871705797   119.09971744     0.00000000
 H     44  43  42     2.062890716636   120.46557739   180.00056615
 H     41  40  39     2.064884678610   119.62092764   179.99904039

---------------------
BASIS SET INFORMATION
---------------------
There are 2 groups of distinct atoms

 Group   1 Type C   : 10s5p1d contracted to 6s2p1d pattern {511111/41/1}
 Group   2 Type H   : 6s1p contracted to 4s1p pattern {3111/1}

Atom   0C    basis set group =>   1
Atom   1C    basis set group =>   1
Atom   2C    basis set group =>   1
Atom   3C    basis set group =>   1
Atom   4C    basis set group =>   1
Atom   5C    basis set group =>   1
Atom   6C    basis set group =>   1
Atom   7C    basis set group =>   1
Atom   8C    basis set group =>   1
Atom   9H    basis set group =>   2
Atom  10H    basis set group =>   2
Atom  11C    basis set group =>   1
Atom  12H    basis set group =>   2
Atom  13C    basis set group =>   1
Atom  14H    basis set group =>   2
Atom  15H    basis set group =>   2
Atom  16C    basis set group =>   1
Atom  17H    basis set group =>   2
Atom  18H    basis set group =>   2
Atom  19C    basis set group =>   1
Atom  20H    basis set group =>   2
Atom  21H    basis set group =>   2
Atom  22C    basis set group =>   1
Atom  23H    basis set group =>   2
Atom  24H    basis set group =>   2
Atom  25C    basis set group =>   1
Atom  26H    basis set group =>   2
Atom  27H    basis set group =>   2
Atom  28C    basis set group =>   1
Atom  29H    basis set group =>   2
Atom  30H    basis set group =>   2
Atom  31C    basis set group =>   1
Atom  32H    basis set group =>   2
Atom  33H    basis set group =>   2
Atom  34C    basis set group =>   1
Atom  35H    basis set group =>   2
Atom  36H    basis set group =>   2
Atom  37H    basis set group =>   2
Atom  38C    basis set group =>   1
Atom  39C    basis set group =>   1
Atom  40C    basis set group =>   1
Atom  41C    basis set group =>   1
Atom  42C    basis set group =>   1
Atom  43C    basis set group =>   1
Atom  44H    basis set group =>   2
Atom  45H    basis set group =>   2
Atom  46H    basis set group =>   2
Atom  47H    basis set group =>   2
Atom  48H    basis set group =>   2
---------------------------------
AUXILIARY/J BASIS SET INFORMATION
---------------------------------
There are 2 groups of distinct atoms

 Group   1 Type C   : 17s13p12d2f contracted to 17s13p12d2f pattern {11111111111111111/1111111111111/111111111111/11}
 Group   2 Type H   : 15s6p1d contracted to 15s6p1d pattern {111111111111111/111111/1}

Atom   0C    basis set group =>   1
Atom   1C    basis set group =>   1
Atom   2C    basis set group =>   1
Atom   3C    basis set group =>   1
Atom   4C    basis set group =>   1
Atom   5C    basis set group =>   1
Atom   6C    basis set group =>   1
Atom   7C    basis set group =>   1
Atom   8C    basis set group =>   1
Atom   9H    basis set group =>   2
Atom  10H    basis set group =>   2
Atom  11C    basis set group =>   1
Atom  12H    basis set group =>   2
Atom  13C    basis set group =>   1
Atom  14H    basis set group =>   2
Atom  15H    basis set group =>   2
Atom  16C    basis set group =>   1
Atom  17H    basis set group =>   2
Atom  18H    basis set group =>   2
Atom  19C    basis set group =>   1
Atom  20H    basis set group =>   2
Atom  21H    basis set group =>   2
Atom  22C    basis set group =>   1
Atom  23H    basis set group =>   2
Atom  24H    basis set group =>   2
Atom  25C    basis set group =>   1
Atom  26H    basis set group =>   2
Atom  27H    basis set group =>   2
Atom  28C    basis set group =>   1
Atom  29H    basis set group =>   2
Atom  30H    basis set group =>   2
Atom  31C    basis set group =>   1
Atom  32H    basis set group =>   2
Atom  33H    basis set group =>   2
Atom  34C    basis set group =>   1
Atom  35H    basis set group =>   2
Atom  36H    basis set group =>   2
Atom  37H    basis set group =>   2
Atom  38C    basis set group =>   1
Atom  39C    basis set group =>   1
Atom  40C    basis set group =>   1
Atom  41C    basis set group =>   1
Atom  42C    basis set group =>   1
Atom  43C    basis set group =>   1
Atom  44H    basis set group =>   2
Atom  45H    basis set group =>   2
Atom  46H    basis set group =>   2
Atom  47H    basis set group =>   2
Atom  48H    basis set group =>   2
---------------------------------
AUXILIARY/C BASIS SET INFORMATION
---------------------------------
There are 2 groups of distinct atoms

 Group   1 Type C   : 17s13p12d2f contracted to 17s13p12d2f pattern {11111111111111111/1111111111111/111111111111/11}
 Group   2 Type H   : 15s6p1d contracted to 15s6p1d pattern {111111111111111/111111/1}

Atom   0C    basis set group =>   1
Atom   1C    basis set group =>   1
Atom   2C    basis set group =>   1
Atom   3C    basis set group =>   1
Atom   4C    basis set group =>   1
Atom   5C    basis set group =>   1
Atom   6C    basis set group =>   1
Atom   7C    basis set group =>   1
Atom   8C    basis set group =>   1
Atom   9H    basis set group =>   2
Atom  10H    basis set group =>   2
Atom  11C    basis set group =>   1
Atom  12H    basis set group =>   2
Atom  13C    basis set group =>   1
Atom  14H    basis set group =>   2
Atom  15H    basis set group =>   2
Atom  16C    basis set group =>   1
Atom  17H    basis set group =>   2
Atom  18H    basis set group =>   2
Atom  19C    basis set group =>   1
Atom  20H    basis set group =>   2
Atom  21H    basis set group =>   2
Atom  22C    basis set group =>   1
Atom  23H    basis set group =>   2
Atom  24H    basis set group =>   2
Atom  25C    basis set group =>   1
Atom  26H    basis set group =>   2
Atom  27H    basis set group =>   2
Atom  28C    basis set group =>   1
Atom  29H    basis set group =>   2
Atom  30H    basis set group =>   2
Atom  31C    basis set group =>   1
Atom  32H    basis set group =>   2
Atom  33H    basis set group =>   2
Atom  34C    basis set group =>   1
Atom  35H    basis set group =>   2
Atom  36H    basis set group =>   2
Atom  37H    basis set group =>   2
Atom  38C    basis set group =>   1
Atom  39C    basis set group =>   1
Atom  40C    basis set group =>   1
Atom  41C    basis set group =>   1
Atom  42C    basis set group =>   1
Atom  43C    basis set group =>   1
Atom  44H    basis set group =>   2
Atom  45H    basis set group =>   2
Atom  46H    basis set group =>   2
Atom  47H    basis set group =>   2
Atom  48H    basis set group =>   2
----------------------------------
AUXILIARY/JK BASIS SET INFORMATION
----------------------------------
There are 2 groups of distinct atoms

 Group   1 Type C   : 17s13p12d2f contracted to 17s13p12d2f pattern {11111111111111111/1111111111111/111111111111/11}
 Group   2 Type H   : 15s6p1d contracted to 15s6p1d pattern {111111111111111/111111/1}

Atom   0C    basis set group =>   1
Atom   1C    basis set group =>   1
Atom   2C    basis set group =>   1
Atom   3C    basis set group =>   1
Atom   4C    basis set group =>   1
Atom   5C    basis set group =>   1
Atom   6C    basis set group =>   1
Atom   7C    basis set group =>   1
Atom   8C    basis set group =>   1
Atom   9H    basis set group =>   2
Atom  10H    basis set group =>   2
Atom  11C    basis set group =>   1
Atom  12H    basis set group =>   2
Atom  13C    basis set group =>   1
Atom  14H    basis set group =>   2
Atom  15H    basis set group =>   2
Atom  16C    basis set group =>   1
Atom  17H    basis set group =>   2
Atom  18H    basis set group =>   2
Atom  19C    basis set group =>   1
Atom  20H    basis set group =>   2
Atom  21H    basis set group =>   2
Atom  22C    basis set group =>   1
Atom  23H    basis set group =>   2
Atom  24H    basis set group =>   2
Atom  25C    basis set group =>   1
Atom  26H    basis set group =>   2
Atom  27H    basis set group =>   2
Atom  28C    basis set group =>   1
Atom  29H    basis set group =>   2
Atom  30H    basis set group =>   2
Atom  31C    basis set group =>   1
Atom  32H    basis set group =>   2
Atom  33H    basis set group =>   2
Atom  34C    basis set group =>   1
Atom  35H    basis set group =>   2
Atom  36H    basis set group =>   2
Atom  37H    basis set group =>   2
Atom  38C    basis set group =>   1
Atom  39C    basis set group =>   1
Atom  40C    basis set group =>   1
Atom  41C    basis set group =>   1
Atom  42C    basis set group =>   1
Atom  43C    basis set group =>   1
Atom  44H    basis set group =>   2
Atom  45H    basis set group =>   2
Atom  46H    basis set group =>   2
Atom  47H    basis set group =>   2
Atom  48H    basis set group =>   2

Checking for AutoStart:
The File: EPRII.gbw exists
Trying to determine its content:
     ... Fine, the file contains calculation information
     ... Fine, the calculation information was read
     ... Fine, the file contains a basis set
     ... Fine, the basis set was read
     ... Fine, the file contains a geometry
     ... Fine, the geometry was read
     ... Fine, the file contains a set of orbitals
     ... Fine, the orbitals can be read
     => possible old guess file was deleted
     => GBW file was renamed to GES file
     => GES file is set as startup file
     => Guess is set to MORead
     ... now leaving AutoStart



           ************************************************************
           *        Program running with 16 parallel MPI-processes    *
           *              working on a common directory               *
           ************************************************************
------------------------------------------------------------------------------
                           ORCA GTO INTEGRAL CALCULATION
                           -- RI-GTO INTEGRALS CHOSEN --
------------------------------------------------------------------------------
------------------------------------------------------------------------------
                   ___                                                        
                  /   \      - P O W E R E D   B Y -                         
                 /     \                                                     
                 |  |  |   _    _      __       _____    __    __             
                 |  |  |  | |  | |    /  \     |  _  \  |  |  /  |          
                  \  \/   | |  | |   /    \    | | | |  |  | /  /          
                 / \  \   | |__| |  /  /\  \   | |_| |  |  |/  /          
                |  |  |   |  __  | /  /__\  \  |    /   |      \           
                |  |  |   | |  | | |   __   |  |    \   |  |\   \          
                \     /   | |  | | |  |  |  |  | |\  \  |  | \   \       
                 \___/    |_|  |_| |__|  |__|  |_| \__\ |__|  \__/        
                                                                              
                      - O R C A' S   B I G   F R I E N D -                    
                                      &                                       
                       - I N T E G R A L  F E E D E R -                       
                                                                              
 v1 FN, 2020, v2 2021                                                         
------------------------------------------------------------------------------


Reading SHARK input file EPRII.SHARKINP.tmp ... ok
----------------------
SHARK INTEGRAL PACKAGE
----------------------

Number of atoms                             ...     49
Number of basis functions                   ...    583
Number of shells                            ...    341
Maximum angular momentum                    ...      2
Integral batch strategy                     ... SHARK/LIBINT Hybrid
RI-J (if used) integral strategy            ... SPLIT-RIJ (Revised 2003 algorithm where possible)
Printlevel                                  ...      1
Contraction scheme used                     ... SEGMENTED contraction
Coulomb Range Separation                    ... NOT USED
Exchange Range Separation                   ... NOT USED
Finite Nucleus Model                        ... NOT USED
Auxiliary Coulomb fitting basis             ... AVAILABLE
   # of basis functions in Aux-J            ...   4070
   # of shells in Aux-J                     ...   1606
   Maximum angular momentum in Aux-J        ...      3
Auxiliary J/K fitting basis                 ... AVAILABLE
   # of basis functions in Aux-JK           ...   4070
   # of shells in Aux-JK                    ...   1606
   Maximum angular momentum in Aux-JK       ...      3
Auxiliary Correlation fitting basis         ... AVAILABLE
   # of basis functions in Aux-C            ...   4070
   # of shells in Aux-C                     ...   1606
   Maximum angular momentum in Aux-C        ...      3
Auxiliary 'external' fitting basis          ... NOT available
Integral threshold                          ...     1.000000e-10
Primitive cut-off                           ...     1.000000e-11
Primitive pair pre-selection threshold      ...     1.000000e-11

Calculating pre-screening integrals         ... done (  0.0 sec) Dimension = 341
Organizing shell pair data                  ... done (  0.2 sec)
Shell pair information
Total number of shell pairs                 ...     58311
Shell pairs after pre-screening             ...     29321
Total number of primitive shell pairs       ...    156979
Primitive shell pairs kept                  ...     55227
          la=0 lb=0:  13439 shell pairs
          la=1 lb=0:  10071 shell pairs
          la=1 lb=1:   1816 shell pairs
          la=2 lb=0:   2778 shell pairs
          la=2 lb=1:   1054 shell pairs
          la=2 lb=2:    163 shell pairs

Calculating one electron integrals          ... done (  0.0 sec)
Calculating RI/J V-Matrix + Cholesky decomp.... done (  1.3 sec)
Calculating RI/JK V-Matrix + Cholesky decomp... done (  1.6 sec)
Calculating RI/C V-Matrix + Cholesky decomp.... done (  1.2 sec)
Calculating Nuclear repulsion               ... done (  0.0 sec) ENN=   1724.022777785751 Eh

SHARK setup successfully completed in   5.0 seconds

Maximum memory used throughout the entire GTOINT-calculation: 59.3 MB


           ************************************************************
           *        Program running with 16 parallel MPI-processes    *
           *              working on a common directory               *
           ************************************************************
-------------------------------------------------------------------------------
                                 ORCA SCF
-------------------------------------------------------------------------------

------------
SCF SETTINGS
------------
Hamiltonian:
 Density Functional     Method          .... DFT(GTOs)
 Exchange Functional    Exchange        .... B88
   X-Alpha parameter    XAlpha          ....  0.666667
   Becke's b parameter  XBeta           ....  0.004200
 Correlation Functional Correlation     .... LYP
 LDA part of GGA corr.  LDAOpt          .... VWN-5
 Gradients option       PostSCFGGA      .... off
 Hybrid DFT is turned on
   Fraction HF Exchange ScalHFX         ....  0.200000
   Scaling of DF-GGA-X  ScalDFX         ....  0.720000
   Scaling of DF-GGA-C  ScalDFC         ....  0.810000
   Scaling of DF-LDA-C  ScalLDAC        ....  1.000000
   Perturbative correction              ....  0.000000
   Density functional embedding theory  .... OFF
   NL short-range parameter             ....  4.800000
 RI-approximation to the Coulomb term is turned on
   Number of AuxJ basis functions       .... 4070
   RIJ-COSX (HFX calculated with COS-X)).... on


General Settings:
 Integral files         IntName         .... EPRII
 Hartree-Fock type      HFTyp           .... UHF
 Total Charge           Charge          ....    0
 Multiplicity           Mult            ....    2
 Number of Electrons    NEL             ....  169
 Basis Dimension        Dim             ....  583
 Nuclear Repulsion      ENuc            ....   1724.0227777858 Eh

Convergence Acceleration:
 DIIS                   CNVDIIS         .... on
   Start iteration      DIISMaxIt       ....    12
   Startup error        DIISStart       ....  0.200000
   # of expansion vecs  DIISMaxEq       ....     5
   Bias factor          DIISBfac        ....   1.050
   Max. coefficient     DIISMaxC        ....  10.000
 Trust-Rad. Augm. Hess. CNVTRAH         .... auto
   Auto Start mean grad. ratio tolernc. ....  1.125000
   Auto Start start iteration           ....     1
   Auto Start num. interpolation iter.  ....    10
   Max. Number of Micro iterations      ....    16
   Max. Number of Macro iterations      .... Maxiter - #DIIS iter
   Number of Davidson start vectors     ....     2
   Converg. threshold I  (grad. norm)   ....   5.000e-05
   Converg. threshold II (energy diff.) ....   1.000e-06
   Grad. Scal. Fac. for Micro threshold ....   0.100
   Minimum threshold for Micro iter.    ....   0.010
   NR start threshold (gradient norm)   ....   0.001
   Initial trust radius                 ....   0.400
   Minimum AH scaling param. (alpha)    ....   1.000
   Maximum AH scaling param. (alpha)    .... 1000.000
   Orbital update algorithm             .... Taylor
   White noise on init. David. guess    .... on
   Maximum white noise                  ....   0.010
   Quad. conv. algorithm                .... NR
 SOSCF                  CNVSOSCF        .... off
 Level Shifting         CNVShift        .... on
   Level shift para.    LevelShift      ....    0.2500
   Turn off err/grad.   ShiftErr        ....    0.0010
 Zerner damping         CNVZerner       .... off
 Static damping         CNVDamp         .... on
   Fraction old density DampFac         ....    0.7000
   Max. Damping (<1)    DampMax         ....    0.9800
   Min. Damping (>=0)   DampMin         ....    0.0000
   Turn off err/grad.   DampErr         ....    0.1000
 Fernandez-Rico         CNVRico         .... off

SCF Procedure:
 Maximum # iterations   MaxIter         ....   125
 SCF integral mode      SCFMode         .... Direct
   Integral package                     .... SHARK and LIBINT hybrid scheme
 Reset frequency        DirectResetFreq ....    20
 Integral Threshold     Thresh          ....  1.000e-10 Eh
 Primitive CutOff       TCut            ....  1.000e-11 Eh

Convergence Tolerance:
 Convergence Check Mode ConvCheckMode   .... Total+1el-Energy
 Convergence forced     ConvForced      .... 0
 Energy Change          TolE            ....  1.000e-06 Eh
 1-El. energy change                    ....  1.000e-03 Eh
 DIIS Error             TolErr          ....  1.000e-06


Diagonalization of the overlap matrix:
Smallest eigenvalue                        ... 7.283e-05
Time for diagonalization                   ...    0.068 sec
Threshold for overlap eigenvalues          ... 1.000e-08
Number of eigenvalues below threshold      ... 0
Time for construction of square roots      ...    0.048 sec
Total time needed                          ...    0.118 sec

---------------------
INITIAL GUESS: MOREAD
---------------------
Guess MOs are being read from file: EPRII.ges
Input Geometry matches current geometry (good)
Input basis set matches current basis set (good)
MOs were renormalized
MOs were reorthogonalized (Cholesky)
                      ------------------
                      INITIAL GUESS DONE (   0.3 sec)
                      ------------------
-------------------
DFT GRID GENERATION
-------------------

General Integration Accuracy     IntAcc      ... 4.388
Radial Grid Type                 RadialGrid  ... OptM3 with GC (2021)
Angular Grid (max. ang.)         AngularGrid ... 4 (Lebedev-302)
Angular grid pruning method      GridPruning ... 4 (adaptive)
Weight generation scheme         WeightScheme... Becke
Basis function cutoff            BFCut       ... 1.0000e-10
Integration weight cutoff        WCut        ... 1.0000e-14
Angular grids for H and He will be reduced by one unit
Partially contracted basis set               ... off
Rotationally invariant grid construction     ... off

Total number of grid points                  ...   223167
Total number of batches                      ...     3511
Average number of points per batch           ...       63
Average number of grid points per atom       ...     4554
Time for grid setup =    1.497 sec

--------------------
COSX GRID GENERATION
--------------------

GRIDX 1
-------
General Integration Accuracy     IntAcc      ... 3.816
Radial Grid Type                 RadialGrid  ... OptM3 with GC (2021)
Angular Grid (max. ang.)         AngularGrid ... 1 (Lebedev-50)
Angular grid pruning method      GridPruning ... 4 (adaptive)
Weight generation scheme         WeightScheme... Becke
Basis function cutoff            BFCut       ... 1.0000e-10
Integration weight cutoff        WCut        ... 1.0000e-14
Angular grids for H and He will be reduced by one unit
Partially contracted basis set               ... on
Rotationally invariant grid construction     ... off

Total number of grid points                  ...    28454
Total number of batches                      ...      471
Average number of points per batch           ...       60
Average number of grid points per atom       ...      581
UseSFitting                                  ... on

GRIDX 2
-------
General Integration Accuracy     IntAcc      ... 4.020
Radial Grid Type                 RadialGrid  ... OptM3 with GC (2021)
Angular Grid (max. ang.)         AngularGrid ... 2 (Lebedev-110)
Angular grid pruning method      GridPruning ... 4 (adaptive)
Weight generation scheme         WeightScheme... Becke
Basis function cutoff            BFCut       ... 1.0000e-10
Integration weight cutoff        WCut        ... 1.0000e-14
Angular grids for H and He will be reduced by one unit
Partially contracted basis set               ... on
Rotationally invariant grid construction     ... off

Total number of grid points                  ...    60638
Total number of batches                      ...      972
Average number of points per batch           ...       62
Average number of grid points per atom       ...     1238
UseSFitting                                  ... on

GRIDX 3
-------
General Integration Accuracy     IntAcc      ... 4.338
Radial Grid Type                 RadialGrid  ... OptM3 with GC (2021)
Angular Grid (max. ang.)         AngularGrid ... 3 (Lebedev-194)
Angular grid pruning method      GridPruning ... 4 (adaptive)
Weight generation scheme         WeightScheme... Becke
Basis function cutoff            BFCut       ... 1.0000e-10
Integration weight cutoff        WCut        ... 1.0000e-14
Angular grids for H and He will be reduced by one unit
Partially contracted basis set               ... on
Rotationally invariant grid construction     ... off

Total number of grid points                  ...   132616
Total number of batches                      ...     2098
Average number of points per batch           ...       63
Average number of grid points per atom       ...     2706
UseSFitting                                  ... on

Time for X-Grid setup             =    2.865 sec

--------------
SCF ITERATIONS
--------------
ITER       Energy         Delta-E        Max-DP      RMS-DP      [F,P]     Damp
               ***  Starting incremental Fock matrix formation  ***
  0   -928.9717184759   0.000000000000 0.00004455  0.00000034  0.0001091 0.7000
                 **** Energy Check signals convergence ****

               *****************************************************
               *                     SUCCESS                       *
               *           SCF CONVERGED AFTER   1 CYCLES          *
               *****************************************************

Old exchange energy                            =    -26.605888613 Eh
New exchange energy                            =    -26.605907177 Eh
Exchange energy change after final integration =     -0.000018564 Eh
Total energy after final integration           =   -928.971736967 Eh
Final COS-X integration done in                =     9.925 sec

----------------
TOTAL SCF ENERGY
----------------

Total Energy       :         -928.97173697 Eh          -25278.60610 eV

Components:
Nuclear Repulsion  :         1724.02277779 Eh           46913.04480 eV
Electronic Energy  :        -2652.99451475 Eh          -72191.65090 eV
One Electron Energy:        -4676.89618213 Eh         -127264.81513 eV
Two Electron Energy:         2023.90166738 Eh           55073.16423 eV
Max COSX asymmetry :            0.00000330 Eh               0.00009 eV

Virial components:
Potential Energy   :        -1850.51805950 Eh          -50355.15641 eV
Kinetic Energy     :          921.54632254 Eh           25076.55030 eV
Virial Ratio       :            2.00805756


DFT components:
N(Alpha)           :       85.000160584335 electrons
N(Beta)            :       84.000150185021 electrons
N(Total)           :      169.000310769357 electrons
E(X)               :     -105.549588720149 Eh       
E(C)               :       -6.576857946282 Eh       
E(XC)              :     -112.126446666430 Eh       
DFET-embed. en.    :        0.000000000000 Eh       

---------------
SCF CONVERGENCE
---------------

  Last Energy change         ...    7.2526e-08  Tolerance :   1.0000e-06
  Last MAX-Density change    ...    2.0256e-05  Tolerance :   1.0000e-05
  Last RMS-Density change    ...    1.4147e-07  Tolerance :   1.0000e-06
  Last DIIS Error            ...    5.5877e-05  Tolerance :   1.0000e-06

             **** THE GBW FILE WAS UPDATED (EPRII.gbw) ****
             **** DENSITY EPRII.scfp WAS UPDATED ****
             **** ENERGY FILE WAS UPDATED (EPRII.en.tmp) ****
----------------------
UHF SPIN CONTAMINATION
----------------------

Warning: in a DFT calculation there is little theoretical justification to 
         calculate <S**2> as in Hartree-Fock theory. We will do it anyways
         but you should keep in mind that the values have only limited relevance

Expectation value of <S**2>     :     0.786609
Ideal value S*(S+1) for S=0.5   :     0.750000
Deviation                       :     0.036609

             **** THE GBW FILE WAS UPDATED (EPRII.gbw) ****
             **** DENSITY EPRII.scfp WAS UPDATED ****
----------------
ORBITAL ENERGIES
----------------
                 SPIN UP ORBITALS
  NO   OCC          E(Eh)            E(eV) 
   0   1.0000     -10.227932      -278.3162 
   1   1.0000     -10.223456      -278.1944 
   2   1.0000     -10.221555      -278.1427 
   3   1.0000     -10.210974      -277.8547 
   4   1.0000     -10.208424      -277.7854 
   5   1.0000     -10.205724      -277.7119 
   6   1.0000     -10.205615      -277.7089 
   7   1.0000     -10.205417      -277.7035 
   8   1.0000     -10.204669      -277.6832 
   9   1.0000     -10.204485      -277.6782 
  10   1.0000     -10.203450      -277.6500 
  11   1.0000     -10.202349      -277.6200 
  12   1.0000     -10.201035      -277.5843 
  13   1.0000     -10.200157      -277.5604 
  14   1.0000     -10.197825      -277.4969 
  15   1.0000     -10.197070      -277.4764 
  16   1.0000     -10.195833      -277.4427 
  17   1.0000     -10.189655      -277.2746 
  18   1.0000     -10.188007      -277.2298 
  19   1.0000     -10.184680      -277.1392 
  20   1.0000     -10.182754      -277.0868 
  21   1.0000     -10.182402      -277.0773 
  22   1.0000     -10.174921      -276.8737 
  23   1.0000     -10.173243      -276.8280 
  24   1.0000      -0.873410       -23.7667 
  25   1.0000      -0.863744       -23.5037 
  26   1.0000      -0.819114       -22.2892 
  27   1.0000      -0.797908       -21.7122 
  28   1.0000      -0.794955       -21.6318 
  29   1.0000      -0.778830       -21.1930 
  30   1.0000      -0.766737       -20.8640 
  31   1.0000      -0.751755       -20.4563 
  32   1.0000      -0.745019       -20.2730 
  33   1.0000      -0.729123       -19.8405 
  34   1.0000      -0.714856       -19.4522 
  35   1.0000      -0.696596       -18.9553 
  36   1.0000      -0.655648       -17.8411 
  37   1.0000      -0.644144       -17.5280 
  38   1.0000      -0.619978       -16.8704 
  39   1.0000      -0.611655       -16.6440 
  40   1.0000      -0.610144       -16.6029 
  41   1.0000      -0.592138       -16.1129 
  42   1.0000      -0.579281       -15.7630 
  43   1.0000      -0.561607       -15.2821 
  44   1.0000      -0.542608       -14.7651 
  45   1.0000      -0.531156       -14.4535 
  46   1.0000      -0.507333       -13.8052 
  47   1.0000      -0.490944       -13.3593 
  48   1.0000      -0.481056       -13.0902 
  49   1.0000      -0.476306       -12.9610 
  50   1.0000      -0.470484       -12.8025 
  51   1.0000      -0.462084       -12.5739 
  52   1.0000      -0.457641       -12.4531 
  53   1.0000      -0.438344       -11.9280 
  54   1.0000      -0.431772       -11.7491 
  55   1.0000      -0.429121       -11.6770 
  56   1.0000      -0.425972       -11.5913 
  57   1.0000      -0.425405       -11.5758 
  58   1.0000      -0.421886       -11.4801 
  59   1.0000      -0.411403       -11.1948 
  60   1.0000      -0.398260       -10.8372 
  61   1.0000      -0.397361       -10.8127 
  62   1.0000      -0.383714       -10.4414 
  63   1.0000      -0.378392       -10.2966 
  64   1.0000      -0.377436       -10.2706 
  65   1.0000      -0.364615        -9.9217 
  66   1.0000      -0.362878        -9.8744 
  67   1.0000      -0.356544        -9.7021 
  68   1.0000      -0.354331        -9.6418 
  69   1.0000      -0.352288        -9.5862 
  70   1.0000      -0.339522        -9.2389 
  71   1.0000      -0.332385        -9.0447 
  72   1.0000      -0.332066        -9.0360 
  73   1.0000      -0.330380        -8.9901 
  74   1.0000      -0.327190        -8.9033 
  75   1.0000      -0.323148        -8.7933 
  76   1.0000      -0.321368        -8.7449 
  77   1.0000      -0.298082        -8.1112 
  78   1.0000      -0.275363        -7.4930 
  79   1.0000      -0.275353        -7.4927 
  80   1.0000      -0.269639        -7.3373 
  81   1.0000      -0.259540        -7.0624 
  82   1.0000      -0.256631        -6.9833 
  83   1.0000      -0.215614        -5.8672 
  84   1.0000      -0.173677        -4.7260 
  85   0.0000      -0.062139        -1.6909 
  86   0.0000      -0.014757        -0.4016 
  87   0.0000      -0.012344        -0.3359 
  88   0.0000       0.014104         0.3838 
  89   0.0000       0.014293         0.3889 
  90   0.0000       0.021093         0.5740 
  91   0.0000       0.021966         0.5977 
  92   0.0000       0.029801         0.8109 
  93   0.0000       0.033492         0.9114 
  94   0.0000       0.035577         0.9681 
  95   0.0000       0.040086         1.0908 
  96   0.0000       0.045246         1.2312 
  97   0.0000       0.048021         1.3067 
  98   0.0000       0.050256         1.3675 
  99   0.0000       0.055349         1.5061 
 100   0.0000       0.060829         1.6552 
 101   0.0000       0.061042         1.6610 
 102   0.0000       0.067537         1.8378 
 103   0.0000       0.076749         2.0884 
 104   0.0000       0.081034         2.2050 
 105   0.0000       0.083655         2.2764 
 106   0.0000       0.090475         2.4619 
 107   0.0000       0.106141         2.8883 
 108   0.0000       0.109859         2.9894 
 109   0.0000       0.113500         3.0885 
 110   0.0000       0.117469         3.1965 
 111   0.0000       0.127573         3.4714 
 112   0.0000       0.137723         3.7476 
 113   0.0000       0.153655         4.1812 
 114   0.0000       0.154073         4.1925 
 115   0.0000       0.158241         4.3060 
 116   0.0000       0.161106         4.3839 
 117   0.0000       0.172322         4.6891 
 118   0.0000       0.176090         4.7917 
 119   0.0000       0.181614         4.9420 
 120   0.0000       0.183597         4.9959 
 121   0.0000       0.192295         5.2326 
 122   0.0000       0.193396         5.2626 
 123   0.0000       0.199559         5.4303 
 124   0.0000       0.200244         5.4489 
 125   0.0000       0.200360         5.4521 
 126   0.0000       0.203189         5.5290 
 127   0.0000       0.206904         5.6302 
 128   0.0000       0.215473         5.8633 
 129   0.0000       0.217249         5.9117 
 130   0.0000       0.219166         5.9638 
 131   0.0000       0.221485         6.0269 
 132   0.0000       0.225081         6.1248 
 133   0.0000       0.235562         6.4100 
 134   0.0000       0.238628         6.4934 
 135   0.0000       0.244826         6.6620 
 136   0.0000       0.246898         6.7184 
 137   0.0000       0.251112         6.8331 
 138   0.0000       0.251744         6.8503 
 139   0.0000       0.253866         6.9080 
 140   0.0000       0.260123         7.0783 
 141   0.0000       0.265158         7.2153 
 142   0.0000       0.270749         7.3674 
 143   0.0000       0.274769         7.4768 
 144   0.0000       0.276736         7.5304 
 145   0.0000       0.277282         7.5452 
 146   0.0000       0.285050         7.7566 
 147   0.0000       0.285313         7.7638 
 148   0.0000       0.287359         7.8194 
 149   0.0000       0.291934         7.9439 
 150   0.0000       0.292822         7.9681 
 151   0.0000       0.297768         8.1027 
 152   0.0000       0.298992         8.1360 
 153   0.0000       0.303433         8.2568 
 154   0.0000       0.308419         8.3925 
 155   0.0000       0.309637         8.4257 
 156   0.0000       0.311312         8.4712 
 157   0.0000       0.312545         8.5048 
 158   0.0000       0.316841         8.6217 
 159   0.0000       0.317939         8.6516 
 160   0.0000       0.318803         8.6751 
 161   0.0000       0.323587         8.8053 
 162   0.0000       0.329310         8.9610 
 163   0.0000       0.334974         9.1151 
 164   0.0000       0.338577         9.2132 
 165   0.0000       0.344631         9.3779 
 166   0.0000       0.347544         9.4571 
 167   0.0000       0.348308         9.4780 
 168   0.0000       0.349603         9.5132 
 169   0.0000       0.356939         9.7128 
 170   0.0000       0.359874         9.7927 
 171   0.0000       0.370310        10.0766 
 172   0.0000       0.372104        10.1255 
 173   0.0000       0.376583        10.2474 
 174   0.0000       0.378168        10.2905 
 175   0.0000       0.383667        10.4401 
 176   0.0000       0.388884        10.5821 
 177   0.0000       0.397876        10.8268 
 178   0.0000       0.400935        10.9100 
 179   0.0000       0.404909        11.0181 
 180   0.0000       0.407903        11.0996 
 181   0.0000       0.414830        11.2881 
 182   0.0000       0.416921        11.3450 
 183   0.0000       0.420469        11.4415 
 184   0.0000       0.427288        11.6271 
 185   0.0000       0.428376        11.6567 
 186   0.0000       0.430333        11.7099 
 187   0.0000       0.439303        11.9540 
 188   0.0000       0.445007        12.1093 
 189   0.0000       0.447900        12.1880 
 190   0.0000       0.449920        12.2430 
 191   0.0000       0.455722        12.4008 
 192   0.0000       0.459640        12.5074 
 193   0.0000       0.468093        12.7375 
 194   0.0000       0.470935        12.8148 
 195   0.0000       0.473937        12.8965 
 196   0.0000       0.476164        12.9571 
 197   0.0000       0.481790        13.1102 
 198   0.0000       0.483937        13.1686 
 199   0.0000       0.488932        13.3045 
 200   0.0000       0.501802        13.6547 
 201   0.0000       0.502868        13.6837 
 202   0.0000       0.511984        13.9318 
 203   0.0000       0.517391        14.0789 
 204   0.0000       0.522555        14.2195 
 205   0.0000       0.524652        14.2765 
 206   0.0000       0.532134        14.4801 
 207   0.0000       0.534993        14.5579 
 208   0.0000       0.538296        14.6478 
 209   0.0000       0.546790        14.8789 
 210   0.0000       0.550922        14.9914 
 211   0.0000       0.554674        15.0935 
 212   0.0000       0.558572        15.1995 
 213   0.0000       0.570224        15.5166 
 214   0.0000       0.586541        15.9606 
 215   0.0000       0.587120        15.9763 
 216   0.0000       0.595133        16.1944 
 217   0.0000       0.595787        16.2122 
 218   0.0000       0.604115        16.4388 
 219   0.0000       0.606337        16.4993 
 220   0.0000       0.611769        16.6471 
 221   0.0000       0.627900        17.0860 
 222   0.0000       0.633852        17.2480 
 223   0.0000       0.647384        17.6162 
 224   0.0000       0.648118        17.6362 
 225   0.0000       0.667056        18.1515 
 226   0.0000       0.672069        18.2879 
 227   0.0000       0.673431        18.3250 
 228   0.0000       0.678188        18.4544 
 229   0.0000       0.683369        18.5954 
 230   0.0000       0.706624        19.2282 
 231   0.0000       0.725618        19.7451 
 232   0.0000       0.727816        19.8049 
 233   0.0000       0.763853        20.7855 
 234   0.0000       0.769696        20.9445 
 235   0.0000       0.776835        21.1387 
 236   0.0000       0.791281        21.5318 
 237   0.0000       0.795293        21.6410 
 238   0.0000       0.813215        22.1287 
 239   0.0000       0.830090        22.5879 
 240   0.0000       0.836540        22.7634 
 241   0.0000       0.840170        22.8622 
 242   0.0000       0.847467        23.0607 
 243   0.0000       0.850355        23.1393 
 244   0.0000       0.853142        23.2152 
 245   0.0000       0.857218        23.3261 
 246   0.0000       0.861494        23.4424 
 247   0.0000       0.867516        23.6063 
 248   0.0000       0.867839        23.6151 
 249   0.0000       0.870653        23.6917 
 250   0.0000       0.884297        24.0630 
 251   0.0000       0.892059        24.2742 
 252   0.0000       0.895433        24.3660 
 253   0.0000       0.901926        24.5427 
 254   0.0000       0.910661        24.7804 
 255   0.0000       0.912299        24.8249 
 256   0.0000       0.915718        24.9179 
 257   0.0000       0.926574        25.2134 
 258   0.0000       0.927016        25.2254 
 259   0.0000       0.929611        25.2960 
 260   0.0000       0.935453        25.4550 
 261   0.0000       0.935736        25.4627 
 262   0.0000       0.940383        25.5891 
 263   0.0000       0.946589        25.7580 
 264   0.0000       0.956895        26.0384 
 265   0.0000       0.958483        26.0817 
 266   0.0000       0.962430        26.1891 
 267   0.0000       0.970187        26.4001 
 268   0.0000       0.977293        26.5935 
 269   0.0000       0.978095        26.6153 
 270   0.0000       0.979143        26.6438 
 271   0.0000       0.992509        27.0075 
 272   0.0000       0.994391        27.0588 
 273   0.0000       0.997322        27.1385 
 274   0.0000       1.001685        27.2572 
 275   0.0000       1.003604        27.3095 
 276   0.0000       1.005606        27.3639 
 277   0.0000       1.013291        27.5730 
 278   0.0000       1.027282        27.9538 
 279   0.0000       1.029326        28.0094 
 280   0.0000       1.030035        28.0287 
 281   0.0000       1.034667        28.1547 
 282   0.0000       1.038106        28.2483 
 283   0.0000       1.042706        28.3735 
 284   0.0000       1.051890        28.6234 
 285   0.0000       1.058408        28.8008 
 286   0.0000       1.064646        28.9705 
 287   0.0000       1.066869        29.0310 
 288   0.0000       1.067475        29.0475 
 289   0.0000       1.094207        29.7749 
 290   0.0000       1.102123        29.9903 
 291   0.0000       1.113123        30.2896 
 292   0.0000       1.113838        30.3091 
 293   0.0000       1.114888        30.3377 
 294   0.0000       1.124284        30.5933 
 295   0.0000       1.130332        30.7579 
 296   0.0000       1.137992        30.9663 
 297   0.0000       1.150759        31.3137 
 298   0.0000       1.156228        31.4626 
 299   0.0000       1.172672        31.9100 
 300   0.0000       1.178914        32.0799 
 301   0.0000       1.179319        32.0909 
 302   0.0000       1.187129        32.3034 
 303   0.0000       1.190419        32.3930 
 304   0.0000       1.201777        32.7020 
 305   0.0000       1.203592        32.7514 
 306   0.0000       1.219043        33.1719 
 307   0.0000       1.221452        33.2374 
 308   0.0000       1.241922        33.7944 
 309   0.0000       1.242600        33.8129 
 310   0.0000       1.253841        34.1188 
 311   0.0000       1.257186        34.2098 
 312   0.0000       1.264154        34.3994 
 313   0.0000       1.274456        34.6797 
 314   0.0000       1.288495        35.0617 
 315   0.0000       1.299722        35.3672 
 316   0.0000       1.307587        35.5813 
 317   0.0000       1.313035        35.7295 
 318   0.0000       1.320430        35.9307 
 319   0.0000       1.321681        35.9648 
 320   0.0000       1.331574        36.2340 
 321   0.0000       1.340731        36.4831 
 322   0.0000       1.349948        36.7340 
 323   0.0000       1.353020        36.8175 
 324   0.0000       1.368019        37.2257 
 325   0.0000       1.381479        37.5920 
 326   0.0000       1.385094        37.6903 
 327   0.0000       1.398822        38.0639 
 328   0.0000       1.401610        38.1398 
 329   0.0000       1.407756        38.3070 
 330   0.0000       1.424209        38.7547 
 331   0.0000       1.427153        38.8348 
 332   0.0000       1.429754        38.9056 
 333   0.0000       1.434183        39.0261 
 334   0.0000       1.440888        39.2086 
 335   0.0000       1.446694        39.3665 
 336   0.0000       1.448219        39.4080 
 337   0.0000       1.452113        39.5140 
 338   0.0000       1.461086        39.7582 
 339   0.0000       1.465419        39.8761 
 340   0.0000       1.478849        40.2415 
 341   0.0000       1.488366        40.5005 
 342   0.0000       1.498374        40.7728 
 343   0.0000       1.504487        40.9392 
 344   0.0000       1.508747        41.0551 
 345   0.0000       1.512970        41.1700 
 346   0.0000       1.518528        41.3212 
 347   0.0000       1.519372        41.3442 
 348   0.0000       1.541791        41.9543 
 349   0.0000       1.560664        42.4678 
 350   0.0000       1.561869        42.5006 
 351   0.0000       1.562971        42.5306 
 352   0.0000       1.563259        42.5384 
 353   0.0000       1.565537        42.6004 
 354   0.0000       1.578150        42.9436 
 355   0.0000       1.587146        43.1885 
 356   0.0000       1.589019        43.2394 
 357   0.0000       1.590618        43.2829 
 358   0.0000       1.600034        43.5391 
 359   0.0000       1.602368        43.6026 
 360   0.0000       1.603868        43.6435 
 361   0.0000       1.616877        43.9975 
 362   0.0000       1.619289        44.0631 
 363   0.0000       1.628367        44.3101 
 364   0.0000       1.638749        44.5926 
 365   0.0000       1.638922        44.5973 
 366   0.0000       1.643538        44.7229 
 367   0.0000       1.656832        45.0847 
 368   0.0000       1.657936        45.1147 
 369   0.0000       1.659446        45.1558 
 370   0.0000       1.678527        45.6750 
 371   0.0000       1.682487        45.7828 
 372   0.0000       1.686291        45.8863 
 373   0.0000       1.692708        46.0609 
 374   0.0000       1.693349        46.0784 
 375   0.0000       1.698041        46.2060 
 376   0.0000       1.704844        46.3912 
 377   0.0000       1.705142        46.3993 
 378   0.0000       1.717156        46.7262 
 379   0.0000       1.726224        46.9730 
 380   0.0000       1.735090        47.2142 
 381   0.0000       1.737508        47.2800 
 382   0.0000       1.744506        47.4704 
 383   0.0000       1.757398        47.8212 
 384   0.0000       1.766030        48.0561 
 385   0.0000       1.771101        48.1941 
 386   0.0000       1.775780        48.3214 
 387   0.0000       1.776086        48.3298 
 388   0.0000       1.790479        48.7214 
 389   0.0000       1.792287        48.7706 
 390   0.0000       1.796801        48.8934 
 391   0.0000       1.805322        49.1253 
 392   0.0000       1.809431        49.2371 
 393   0.0000       1.816151        49.4200 
 394   0.0000       1.830706        49.8160 
 395   0.0000       1.832612        49.8679 
 396   0.0000       1.837586        50.0033 
 397   0.0000       1.856574        50.5200 
 398   0.0000       1.857196        50.5369 
 399   0.0000       1.866754        50.7970 
 400   0.0000       1.870122        50.8886 
 401   0.0000       1.901538        51.7435 
 402   0.0000       1.926038        52.4102 
 403   0.0000       1.932410        52.5835 
 404   0.0000       1.932678        52.5908 
 405   0.0000       1.943164        52.8762 
 406   0.0000       1.952177        53.1214 
 407   0.0000       1.960168        53.3389 
 408   0.0000       1.974192        53.7205 
 409   0.0000       1.976451        53.7820 
 410   0.0000       2.011638        54.7395 
 411   0.0000       2.023120        55.0519 
 412   0.0000       2.037911        55.4544 
 413   0.0000       2.041072        55.5404 
 414   0.0000       2.043933        55.6182 
 415   0.0000       2.056650        55.9643 
 416   0.0000       2.078090        56.5477 
 417   0.0000       2.087085        56.7925 
 418   0.0000       2.103397        57.2363 
 419   0.0000       2.110769        57.4369 
 420   0.0000       2.117069        57.6084 
 421   0.0000       2.129522        57.9472 
 422   0.0000       2.143826        58.3365 
 423   0.0000       2.144001        58.3412 
 424   0.0000       2.154148        58.6174 
 425   0.0000       2.187648        59.5289 
 426   0.0000       2.200846        59.8881 
 427   0.0000       2.200972        59.8915 
 428   0.0000       2.214652        60.2638 
 429   0.0000       2.215336        60.2824 
 430   0.0000       2.227033        60.6007 
 431   0.0000       2.243246        61.0418 
 432   0.0000       2.256659        61.4068 
 433   0.0000       2.257450        61.4283 
 434   0.0000       2.271096        61.7997 
 435   0.0000       2.278721        62.0072 
 436   0.0000       2.307083        62.7789 
 437   0.0000       2.313583        62.9558 
 438   0.0000       2.317539        63.0634 
 439   0.0000       2.324570        63.2548 
 440   0.0000       2.331445        63.4419 
 441   0.0000       2.353482        64.0415 
 442   0.0000       2.373711        64.5920 
 443   0.0000       2.385500        64.9127 
 444   0.0000       2.398799        65.2746 
 445   0.0000       2.407426        65.5094 
 446   0.0000       2.412574        65.6495 
 447   0.0000       2.414166        65.6928 
 448   0.0000       2.428770        66.0902 
 449   0.0000       2.443019        66.4779 
 450   0.0000       2.454726        66.7965 
 451   0.0000       2.461134        66.9709 
 452   0.0000       2.465154        67.0802 
 453   0.0000       2.470828        67.2346 
 454   0.0000       2.474867        67.3446 
 455   0.0000       2.483586        67.5818 
 456   0.0000       2.505471        68.1773 
 457   0.0000       2.511590        68.3438 
 458   0.0000       2.520004        68.5728 
 459   0.0000       2.523298        68.6624 
 460   0.0000       2.536899        69.0325 
 461   0.0000       2.538388        69.0731 
 462   0.0000       2.547394        69.3181 
 463   0.0000       2.560585        69.6771 
 464   0.0000       2.567639        69.8690 
 465   0.0000       2.569792        69.9276 
 466   0.0000       2.582512        70.2737 
 467   0.0000       2.583634        70.3042 
 468   0.0000       2.601439        70.7888 
 469   0.0000       2.614679        71.1490 
 470   0.0000       2.615308        71.1661 
 471   0.0000       2.630287        71.5737 
 472   0.0000       2.658335        72.3370 
 473   0.0000       2.709883        73.7397 
 474   0.0000       2.751745        74.8788 
 475   0.0000       2.775719        75.5311 
 476   0.0000       2.794916        76.0535 
 477   0.0000       2.795996        76.0829 
 478   0.0000       2.862125        77.8824 
 479   0.0000       2.943284        80.0908 
 480   0.0000       2.957712        80.4834 
 481   0.0000       2.971638        80.8624 
 482   0.0000       3.071343        83.5755 
 483   0.0000       3.296292        89.6967 
 484   0.0000       3.431195        93.3676 
 485   0.0000       4.978779       135.4795 
 486   0.0000       4.985338       135.6579 
 487   0.0000       5.003500       136.1522 
 488   0.0000       5.010434       136.3408 
 489   0.0000       5.010836       136.3518 
 490   0.0000       5.020926       136.6263 
 491   0.0000       5.024628       136.7271 
 492   0.0000       5.025324       136.7460 
 493   0.0000       5.034524       136.9964 
 494   0.0000       5.047143       137.3397 
 495   0.0000       5.090165       138.5104 
 496   0.0000       5.096562       138.6845 
 497   0.0000       5.170564       140.6982 
 498   0.0000       5.199252       141.4788 
 499   0.0000       5.215317       141.9160 
 500   0.0000       5.227503       142.2476 
 501   0.0000       5.247556       142.7932 
 502   0.0000       5.248646       142.8229 
 503   0.0000       5.262159       143.1906 
 504   0.0000       5.283880       143.7817 
 505   0.0000       5.290251       143.9551 
 506   0.0000       5.298545       144.1808 
 507   0.0000       5.309076       144.4673 
 508   0.0000       5.316721       144.6753 
 509   0.0000       5.351461       145.6207 
 510   0.0000       5.367370       146.0536 
 511   0.0000       5.371085       146.1547 
 512   0.0000       5.380249       146.4040 
 513   0.0000       5.400516       146.9555 
 514   0.0000       5.445545       148.1808 
 515   0.0000       5.455457       148.4505 
 516   0.0000       5.479109       149.0941 
 517   0.0000       5.559117       151.2713 
 518   0.0000       5.563707       151.3962 
 519   0.0000       5.592545       152.1809 
 520   0.0000       5.632639       153.2719 
 521   0.0000       5.646071       153.6374 
 522   0.0000       5.652688       153.8175 
 523   0.0000       5.677905       154.5037 
 524   0.0000       5.738949       156.1647 
 525   0.0000       5.746195       156.3619 
 526   0.0000       5.782514       157.3502 
 527   0.0000       5.835610       158.7950 
 528   0.0000       5.853452       159.2805 
 529   0.0000       5.879866       159.9993 
 530   0.0000       5.929281       161.3439 
 531   0.0000       6.105721       166.1451 
 532   0.0000       6.280722       170.9071 
 533   0.0000       6.359915       173.0621 
 534   0.0000      29.617238       805.9260 
 535   0.0000      29.737535       809.1995 
 536   0.0000      29.810726       811.1911 
 537   0.0000      29.839622       811.9774 
 538   0.0000      29.855356       812.4055 
 539   0.0000      29.860380       812.5423 
 540   0.0000      29.956737       815.1642 
 541   0.0000      29.978707       815.7621 
 542   0.0000      29.999130       816.3178 
 543   0.0000      30.039089       817.4052 
 544   0.0000      30.075992       818.4093 
 545   0.0000      30.098521       819.0224 
 546   0.0000      30.105685       819.2174 
 547   0.0000      30.124223       819.7218 
 548   0.0000      30.133940       819.9862 
 549   0.0000      30.176205       821.1363 
 550   0.0000      30.222181       822.3874 
 551   0.0000      30.251080       823.1737 
 552   0.0000      30.257959       823.3609 
 553   0.0000      30.277240       823.8856 
 554   0.0000      30.298591       824.4666 
 555   0.0000      30.400931       827.2514 
 556   0.0000      30.507012       830.1380 
 557   0.0000      30.581030       832.1521 
 558   0.0000      36.604529       996.0599 
 559   0.0000      36.613363       996.3003 
 560   0.0000      36.628910       996.7233 
 561   0.0000      36.635589       996.9050 
 562   0.0000      36.639592       997.0140 
 563   0.0000      36.646554       997.2034 
 564   0.0000      36.651122       997.3277 
 565   0.0000      36.661052       997.5980 
 566   0.0000      36.672107       997.8988 
 567   0.0000      36.703452       998.7517 
 568   0.0000      36.717685       999.1390 
 569   0.0000      36.787993      1001.0522 
 570   0.0000      36.817990      1001.8684 
 571   0.0000      36.825609      1002.0758 
 572   0.0000      36.836119      1002.3617 
 573   0.0000      36.857705      1002.9491 
 574   0.0000      36.870362      1003.2936 
 575   0.0000      36.875914      1003.4446 
 576   0.0000      36.885186      1003.6969 
 577   0.0000      36.917931      1004.5880 
 578   0.0000      36.933904      1005.0226 
 579   0.0000      36.937377      1005.1171 
 580   0.0000      36.969966      1006.0039 
 581   0.0000      37.017672      1007.3021 
 582   0.0000      37.041732      1007.9568 

                 SPIN DOWN ORBITALS
  NO   OCC          E(Eh)            E(eV) 
   0   1.0000     -10.227786      -278.3122 
   1   1.0000     -10.223132      -278.1856 
   2   1.0000     -10.220042      -278.1015 
   3   1.0000     -10.210845      -277.8512 
   4   1.0000     -10.207542      -277.7613 
   5   1.0000     -10.205849      -277.7153 
   6   1.0000     -10.205740      -277.7123 
   7   1.0000     -10.205555      -277.7073 
   8   1.0000     -10.204620      -277.6818 
   9   1.0000     -10.204459      -277.6774 
  10   1.0000     -10.204249      -277.6717 
  11   1.0000     -10.202671      -277.6288 
  12   1.0000     -10.200006      -277.5563 
  13   1.0000     -10.198642      -277.5192 
  14   1.0000     -10.197946      -277.5002 
  15   1.0000     -10.194541      -277.4076 
  16   1.0000     -10.190323      -277.2928 
  17   1.0000     -10.188207      -277.2352 
  18   1.0000     -10.187902      -277.2269 
  19   1.0000     -10.184642      -277.1382 
  20   1.0000     -10.182754      -277.0868 
  21   1.0000     -10.182400      -277.0772 
  22   1.0000     -10.174930      -276.8739 
  23   1.0000     -10.173245      -276.8281 
  24   1.0000      -0.870060       -23.6755 
  25   1.0000      -0.863795       -23.5050 
  26   1.0000      -0.814242       -22.1566 
  27   1.0000      -0.796351       -21.6698 
  28   1.0000      -0.792662       -21.5694 
  29   1.0000      -0.778446       -21.1826 
  30   1.0000      -0.764689       -20.8082 
  31   1.0000      -0.751899       -20.4602 
  32   1.0000      -0.743992       -20.2450 
  33   1.0000      -0.725384       -19.7387 
  34   1.0000      -0.713191       -19.4069 
  35   1.0000      -0.694278       -18.8923 
  36   1.0000      -0.652592       -17.7579 
  37   1.0000      -0.642421       -17.4812 
  38   1.0000      -0.617534       -16.8039 
  39   1.0000      -0.610240       -16.6055 
  40   1.0000      -0.608383       -16.5550 
  41   1.0000      -0.591194       -16.0872 
  42   1.0000      -0.577661       -15.7190 
  43   1.0000      -0.558682       -15.2025 
  44   1.0000      -0.541953       -14.7473 
  45   1.0000      -0.529456       -14.4072 
  46   1.0000      -0.504319       -13.7232 
  47   1.0000      -0.489316       -13.3150 
  48   1.0000      -0.480455       -13.0739 
  49   1.0000      -0.475146       -12.9294 
  50   1.0000      -0.469617       -12.7789 
  51   1.0000      -0.458612       -12.4795 
  52   1.0000      -0.457705       -12.4548 
  53   1.0000      -0.438079       -11.9207 
  54   1.0000      -0.430254       -11.7078 
  55   1.0000      -0.427318       -11.6279 
  56   1.0000      -0.425978       -11.5914 
  57   1.0000      -0.424224       -11.5437 
  58   1.0000      -0.419267       -11.4088 
  59   1.0000      -0.410919       -11.1817 
  60   1.0000      -0.396222       -10.7817 
  61   1.0000      -0.390679       -10.6309 
  62   1.0000      -0.383159       -10.4263 
  63   1.0000      -0.376044       -10.2327 
  64   1.0000      -0.374165       -10.1815 
  65   1.0000      -0.363432        -9.8895 
  66   1.0000      -0.362904        -9.8751 
  67   1.0000      -0.355654        -9.6778 
  68   1.0000      -0.352311        -9.5869 
  69   1.0000      -0.351205        -9.5568 
  70   1.0000      -0.337169        -9.1748 
  71   1.0000      -0.331547        -9.0219 
  72   1.0000      -0.330949        -9.0056 
  73   1.0000      -0.328130        -8.9289 
  74   1.0000      -0.326814        -8.8931 
  75   1.0000      -0.322398        -8.7729 
  76   1.0000      -0.321040        -8.7359 
  77   1.0000      -0.294976        -8.0267 
  78   1.0000      -0.274743        -7.4761 
  79   1.0000      -0.269461        -7.3324 
  80   1.0000      -0.261723        -7.1218 
  81   1.0000      -0.259942        -7.0734 
  82   1.0000      -0.253110        -6.8875 
  83   1.0000      -0.208431        -5.6717 
  84   0.0000      -0.084136        -2.2895 
  85   0.0000      -0.054474        -1.4823 
  86   0.0000      -0.015098        -0.4108 
  87   0.0000      -0.010771        -0.2931 
  88   0.0000       0.014262         0.3881 
  89   0.0000       0.021279         0.5790 
  90   0.0000       0.022254         0.6055 
  91   0.0000       0.030121         0.8196 
  92   0.0000       0.031833         0.8662 
  93   0.0000       0.033575         0.9136 
  94   0.0000       0.035744         0.9726 
  95   0.0000       0.040150         1.0925 
  96   0.0000       0.045461         1.2370 
  97   0.0000       0.048239         1.3127 
  98   0.0000       0.050685         1.3792 
[...]
  Y           0.6002123           -0.0003844            0.7998406
  Z          -0.0002281           -0.9999999           -0.0003095

Notes:  (1) The A matrix conforms to the "SAI" spin Hamiltonian convention.
        (2) Tensor is right-handed.

 -----------------------------------------------------------
 Nucleus  46H : A:ISTP=    1 I=  0.5 P=533.5514 MHz/au**3
                Q:ISTP=    2 I=  1.0 Q=  0.0029 barn     
 -----------------------------------------------------------
 Solving for nuclear perturbation:
Forming RHS of the CP-SCF equations         ... 
Calc. nucleus orbit integrals (SHARK)       ... done

------------------------------------------------------------------------------
                           ORCA CP-SCF CALCULATION
------------------------------------------------------------------------------

Input orbitals are from        ... EPRII.gbw
Input Perturbation             ... EPRII.pin.tmp
Wavefunction output            ... EPRII.pout.tmp
Perturbation mode              ... Imaginary perturbation
Solver                         ... POPLE
Max. number of iterations      ... 64
Convergence tolerance          ... 1.000e-03
Integral handling              ... Direct
DFT GridXC                     ... 1
COSX GridX                     ... 1
COSX IntAccX                   ... 3.067
COSX Algorithm                 ... Auto
Number of perturbations        ... 3
Number of operators            ... 2
Orbital ranges used for CP-SCF:
 Operator 0:  Orbitals   0... 84  to  85...582
 Operator 1:  Orbitals   0... 83  to  84...582
Variables per perturbation     ... 84246
DFT calculation                         ... on
XC functional terms                     ... off
Hybrid DFT                              ... on
   Exchange mixing (SCF)                ...  0.200
   Exchange mixing (CP-SCF)             ...  0.200
   GGA exch. scaling(SCF)               ...  0.720
   GGA exch. scaling (CP-SCF)           ...  0.720
   GGA corr. scaling (SCF)              ...  0.810
   GGA corr. scaling (CP-SCF)           ...  0.810

CP-SCF GRID
-----------

General Integration Accuracy     IntAcc      ... 3.467
Radial Grid Type                 RadialGrid  ... OptM3 with GC (2021)
Angular Grid (max. ang.)         AngularGrid ... 1 (Lebedev-50)
Angular grid pruning method      GridPruning ... 4 (adaptive)
Weight generation scheme         WeightScheme... Becke
Basis function cutoff            BFCut       ... 1.0000e-10
Integration weight cutoff        WCut        ... 1.0000e-14
Angular grids for H and He will be reduced by one unit
Partially contracted basis set               ... off
Rotationally invariant grid construction     ... off

Total number of grid points                  ...    31887
Total number of batches                      ...      520
Average number of points per batch           ...       61
Average number of grid points per atom       ...      651

CP-SCF GRIDX
------------

General Integration Accuracy     IntAcc      ... 3.067
Radial Grid Type                 RadialGrid  ... OptM3 with GC (2021)
Angular Grid (max. ang.)         AngularGrid ... 1 (Lebedev-50)
Angular grid pruning method      GridPruning ... 4 (adaptive)
Weight generation scheme         WeightScheme... Becke
Basis function cutoff            BFCut       ... 1.0000e-10
Integration weight cutoff        WCut        ... 1.0000e-14
Angular grids for H and He will be reduced by one unit
Partially contracted basis set               ... on
Rotationally invariant grid construction     ... off

Total number of grid points                  ...    14950
Total number of batches                      ...      265
Average number of points per batch           ...       56
Average number of grid points per atom       ...      305

Memory available               ... 850.4 MB
Memory needed per perturbation ...  20.0 MB
Perturbations treated per batch... 3
Number of batches              ... 1
     CP-SCF ITERATION   0:   4.5629e-02 (   2.4 sec   0/  3 done)
     CP-SCF ITERATION   1:   1.9282e-03 (   2.4 sec   0/  3 done)
     CP-SCF ITERATION   2:   1.3341e-04 (   2.3 sec   3/  3 done)
                    *** THE CP-SCF HAS CONVERGED ***

Forming final perturbed densities           ... done
Transforming perturbed density to AO basis  ... done

 Raw HFC matrix (all values in MHz): 
 -----------------------------------
                 1.3534              -0.2966              -0.0001
                -0.2964               0.1973               0.0000
                -0.0001               0.0000               0.5353

 A(FC)           0.6954               0.6954               0.6954
 A(SD)          -0.5696              -0.1601               0.7297
 A(ORB+DIA)     -0.0001               0.0001              -0.0001    A(PC) =  -0.0000
 A(ORB)         -0.0001              -0.0000              -0.0001    A(PC) =  -0.0001
 A(DIA)         -0.0000               0.0001               0.0000    A(PC) =   0.0000
             ----------           ----------           ----------
 A(Tot)          0.1257               0.5353               1.4250    A(iso)=    0.6953
 Orientation: 
  X           0.2347982           -0.0000988           -0.9720441
  Y           0.9720441            0.0000001            0.2347982
  Z          -0.0000232           -1.0000000            0.0000961

Notes:  (1) The A matrix conforms to the "SAI" spin Hamiltonian convention.
        (2) Tensor is right-handed.

 -----------------------------------------------------------
 Nucleus  47H : A:ISTP=    1 I=  0.5 P=533.5514 MHz/au**3
                Q:ISTP=    2 I=  1.0 Q=  0.0029 barn     
 -----------------------------------------------------------
 Solving for nuclear perturbation:
Forming RHS of the CP-SCF equations         ... 
Calc. nucleus orbit integrals (SHARK)       ... done

------------------------------------------------------------------------------
                           ORCA CP-SCF CALCULATION
------------------------------------------------------------------------------

Input orbitals are from        ... EPRII.gbw
Input Perturbation             ... EPRII.pin.tmp
Wavefunction output            ... EPRII.pout.tmp
Perturbation mode              ... Imaginary perturbation
Solver                         ... POPLE
Max. number of iterations      ... 64
Convergence tolerance          ... 1.000e-03
Integral handling              ... Direct
DFT GridXC                     ... 1
COSX GridX                     ... 1
COSX IntAccX                   ... 3.067
COSX Algorithm                 ... Auto
Number of perturbations        ... 3
Number of operators            ... 2
Orbital ranges used for CP-SCF:
 Operator 0:  Orbitals   0... 84  to  85...582
 Operator 1:  Orbitals   0... 83  to  84...582
Variables per perturbation     ... 84246
DFT calculation                         ... on
XC functional terms                     ... off
Hybrid DFT                              ... on
   Exchange mixing (SCF)                ...  0.200
   Exchange mixing (CP-SCF)             ...  0.200
   GGA exch. scaling(SCF)               ...  0.720
   GGA exch. scaling (CP-SCF)           ...  0.720
   GGA corr. scaling (SCF)              ...  0.810
   GGA corr. scaling (CP-SCF)           ...  0.810

CP-SCF GRID
-----------

General Integration Accuracy     IntAcc      ... 3.467
Radial Grid Type                 RadialGrid  ... OptM3 with GC (2021)
Angular Grid (max. ang.)         AngularGrid ... 1 (Lebedev-50)
Angular grid pruning method      GridPruning ... 4 (adaptive)
Weight generation scheme         WeightScheme... Becke
Basis function cutoff            BFCut       ... 1.0000e-10
Integration weight cutoff        WCut        ... 1.0000e-14
Angular grids for H and He will be reduced by one unit
Partially contracted basis set               ... off
Rotationally invariant grid construction     ... off

Total number of grid points                  ...    31887
Total number of batches                      ...      520
Average number of points per batch           ...       61
Average number of grid points per atom       ...      651

CP-SCF GRIDX
------------

General Integration Accuracy     IntAcc      ... 3.067
Radial Grid Type                 RadialGrid  ... OptM3 with GC (2021)
Angular Grid (max. ang.)         AngularGrid ... 1 (Lebedev-50)
Angular grid pruning method      GridPruning ... 4 (adaptive)
Weight generation scheme         WeightScheme... Becke
Basis function cutoff            BFCut       ... 1.0000e-10
Integration weight cutoff        WCut        ... 1.0000e-14
Angular grids for H and He will be reduced by one unit
Partially contracted basis set               ... on
Rotationally invariant grid construction     ... off

Total number of grid points                  ...    14950
Total number of batches                      ...      265
Average number of points per batch           ...       56
Average number of grid points per atom       ...      305

Memory available               ... 849.7 MB
Memory needed per perturbation ...  20.0 MB
Perturbations treated per batch... 3
Number of batches              ... 1
     CP-SCF ITERATION   0:   4.5646e-02 (   2.3 sec   0/  3 done)
     CP-SCF ITERATION   1:   1.9266e-03 (   2.4 sec   0/  3 done)
     CP-SCF ITERATION   2:   1.3618e-04 (   2.5 sec   3/  3 done)
                    *** THE CP-SCF HAS CONVERGED ***

Forming final perturbed densities           ... done
Transforming perturbed density to AO basis  ... done

 Raw HFC matrix (all values in MHz): 
 -----------------------------------
                 1.2279               0.3830              -0.0001
                 0.3828               0.2749               0.0001
                -0.0001               0.0001               0.5812

 A(FC)           0.6947               0.6947               0.6947
 A(SD)          -0.5545              -0.1136               0.6681
 A(ORB+DIA)     -0.0001               0.0001              -0.0002    A(PC) =  -0.0001
 A(ORB)         -0.0001              -0.0000              -0.0002    A(PC) =  -0.0001
 A(DIA)         -0.0000               0.0001               0.0000    A(PC) =   0.0000
             ----------           ----------           ----------
 A(Tot)          0.1401               0.5812               1.3627    A(iso)=    0.6947
 Orientation: 
  X          -0.3320468           -0.0000020            0.9432629
  Y           0.9432629            0.0001834            0.3320468
  Z          -0.0001737            1.0000000           -0.0000590

Notes:  (1) The A matrix conforms to the "SAI" spin Hamiltonian convention.
        (2) Tensor is right-handed.

 -----------------------------------------------------------
 Nucleus  48H : A:ISTP=    1 I=  0.5 P=533.5514 MHz/au**3
                Q:ISTP=    2 I=  1.0 Q=  0.0029 barn     
 -----------------------------------------------------------
 Solving for nuclear perturbation:
Forming RHS of the CP-SCF equations         ... 
Calc. nucleus orbit integrals (SHARK)       ... done

------------------------------------------------------------------------------
                           ORCA CP-SCF CALCULATION
------------------------------------------------------------------------------

Input orbitals are from        ... EPRII.gbw
Input Perturbation             ... EPRII.pin.tmp
Wavefunction output            ... EPRII.pout.tmp
Perturbation mode              ... Imaginary perturbation
Solver                         ... POPLE
Max. number of iterations      ... 64
Convergence tolerance          ... 1.000e-03
Integral handling              ... Direct
DFT GridXC                     ... 1
COSX GridX                     ... 1
COSX IntAccX                   ... 3.067
COSX Algorithm                 ... Auto
Number of perturbations        ... 3
Number of operators            ... 2
Orbital ranges used for CP-SCF:
 Operator 0:  Orbitals   0... 84  to  85...582
 Operator 1:  Orbitals   0... 83  to  84...582
Variables per perturbation     ... 84246
DFT calculation                         ... on
XC functional terms                     ... off
Hybrid DFT                              ... on
   Exchange mixing (SCF)                ...  0.200
   Exchange mixing (CP-SCF)             ...  0.200
   GGA exch. scaling(SCF)               ...  0.720
   GGA exch. scaling (CP-SCF)           ...  0.720
   GGA corr. scaling (SCF)              ...  0.810
   GGA corr. scaling (CP-SCF)           ...  0.810

CP-SCF GRID
-----------

General Integration Accuracy     IntAcc      ... 3.467
Radial Grid Type                 RadialGrid  ... OptM3 with GC (2021)
Angular Grid (max. ang.)         AngularGrid ... 1 (Lebedev-50)
Angular grid pruning method      GridPruning ... 4 (adaptive)
Weight generation scheme         WeightScheme... Becke
Basis function cutoff            BFCut       ... 1.0000e-10
Integration weight cutoff        WCut        ... 1.0000e-14
Angular grids for H and He will be reduced by one unit
Partially contracted basis set               ... off
Rotationally invariant grid construction     ... off

Total number of grid points                  ...    31887
Total number of batches                      ...      520
Average number of points per batch           ...       61
Average number of grid points per atom       ...      651

CP-SCF GRIDX
------------

General Integration Accuracy     IntAcc      ... 3.067
Radial Grid Type                 RadialGrid  ... OptM3 with GC (2021)
Angular Grid (max. ang.)         AngularGrid ... 1 (Lebedev-50)
Angular grid pruning method      GridPruning ... 4 (adaptive)
Weight generation scheme         WeightScheme... Becke
Basis function cutoff            BFCut       ... 1.0000e-10
Integration weight cutoff        WCut        ... 1.0000e-14
Angular grids for H and He will be reduced by one unit
Partially contracted basis set               ... on
Rotationally invariant grid construction     ... off

Total number of grid points                  ...    14950
Total number of batches                      ...      265
Average number of points per batch           ...       56
Average number of grid points per atom       ...      305

Memory available               ... 849.0 MB
Memory needed per perturbation ...  20.0 MB
Perturbations treated per batch... 3
Number of batches              ... 1
     CP-SCF ITERATION   0:   4.1801e-02 (   2.2 sec   0/  3 done)
     CP-SCF ITERATION   1:   1.6934e-03 (   2.2 sec   1/  3 done)
     CP-SCF ITERATION   2:   7.7870e-05 (   1.8 sec   3/  3 done)
                    *** THE CP-SCF HAS CONVERGED ***

Forming final perturbed densities           ... done
Transforming perturbed density to AO basis  ... done

 Raw HFC matrix (all values in MHz): 
 -----------------------------------
                -0.1941              -0.1033              -0.0001
                -0.1032              -0.3491              -0.0000
                -0.0001              -0.0000              -0.2963

 A(FC)          -0.2799              -0.2799              -0.2799
 A(SD)           0.1373              -0.0165              -0.1209
 A(ORB+DIA)      0.0001               0.0000               0.0001    A(PC) =   0.0000
 A(ORB)          0.0000               0.0000               0.0000    A(PC) =   0.0000
 A(DIA)          0.0000               0.0000               0.0000    A(PC) =   0.0000
             ----------           ----------           ----------
 A(Tot)         -0.1425              -0.2963              -0.4007    A(iso)=   -0.2798
 Orientation: 
  X           0.8945419           -0.0001196            0.4469841
  Y          -0.4469840            0.0004612            0.8945418
  Z          -0.0003132           -0.9999999            0.0003591

Notes:  (1) The A matrix conforms to the "SAI" spin Hamiltonian convention.
        (2) Tensor is right-handed.


--------------------------------------------------------------------------------
----------------------------------------------------------------------------
                           ORCA EULER ANGLE PROGRAM
----------------------------------------------------------------------------

Only g-tensor available        -->  using g-tensor as reference tensor

Reference tensor               ...  g

g-tensor ordering              ...  |g_min> --> |gx>
                                    |g_mid> --> |gy>
                                    |g_max> --> |gz>

A- and EFG-tensor ordering     ...  the axes |Ax>, |Qx>, |Ay>, etc. are assigned
                                    such that the Euler rotation is minimal. You
                                    can find the respective eigenvalues as Ax,
                                    EFGx, Ay, etc. in the tables below.
                                    The relation of |Ax>, |Ay>,  etc. to Amin, Amid, etc.
                                    (as printed in the ORCA EPR/NMR CALCULATION Output)
                                    is obtained in the detailed printout.

Euler rotation around          ...  z - y - z
   First rotation              -->  by alpha around z
   Second rotation             -->  by beta around y'
   Third rotation              -->  by gamma around z''
   Positive / Negative angle   -->  clockwise / counterclockwise rotation

Plot EFG-tensors                    (-)
Plot HFC-tensors                    (-)
Detailed Printout                   (-)

-------------------------------------------------------------------------
          Euler rotation of hyperfine tensor to g-tensor
-------------------------------------------------------------------------

-------------------------------------------------------------------
 Atom  |   Alpha    Beta    Gamma   |   Ax       Ay       Az 
       |          [degrees]         |           [MHz]         
-------------------------------------------------------------------
  9H      -89.9      8.5     89.9     -17.33    -8.06   -20.79
 10H      -90.0     11.2     90.0       4.49     5.20     9.99
 12H       90.0     41.3    -90.0     -49.52   -20.54   -74.67
 14H     -145.0     13.7    163.6      69.45    79.18    70.98
 15H      -35.2     13.6     16.7      69.29    79.01    70.82
 17H      161.5     24.3   -126.5      -3.38    -3.21     3.01
 18H       18.4     24.3    -53.5      -3.37    -3.21     3.01
 20H      -55.1     50.4     29.5      -0.02     2.35     0.10
 21H     -125.0     50.5    150.7      -0.02     2.35     0.10
 23H      -49.4     17.7     10.4      24.50    25.11    28.25
 24H     -130.6     17.7    169.6      24.49    25.10    28.25
 26H      -99.0     35.1     86.0      -1.06     0.94    -0.93
 27H      -81.0     35.1     94.1      -1.06     0.94    -0.93
 29H      102.1     25.5    -69.5      -0.09    -0.14     0.84
 30H       77.9     25.5   -110.5      -0.09    -0.14     0.84
 32H       84.5     42.6    -79.0      -0.12    -0.10     0.39
 33H       95.5     42.6   -100.9      -0.12    -0.10     0.39
 35H       90.2     35.4    -90.0      -8.91    -3.50   -11.83
 36H       89.4     33.9    -90.0      -0.84    -0.86     0.72
 37H       90.1     32.5    -90.0      -0.13    -0.14     0.24
 44H       90.0     39.9    -89.9       0.67     0.43     1.10
 45H      -90.0     10.0     90.1      -0.28    -0.44    -0.12
 46H       90.0     29.6    -89.9       0.54     1.43     0.13
 47H      -90.0     27.5     90.0       0.58     0.14     1.36
 48H       89.9     16.6    -89.9      -0.30    -0.14    -0.40
-------------------------------------------------------------------


Maximum memory used throughout the entire EPRNMR-calculation: 248.1 MB

Timings for individual modules:

Sum of individual times         ...     5413.036 sec (=  90.217 min)
GTO integral calculation        ...        7.493 sec (=   0.125 min)   0.1 %
Spin-Orbit-Coupling Matrices    ...       14.825 sec (=   0.247 min)   0.3 %
SCF iterations                  ...       38.785 sec (=   0.646 min)   0.7 %
EPR/NMR calculation             ...     5351.933 sec (=  89.199 min)  98.9 %
                             ****ORCA TERMINATED NORMALLY****
TOTAL RUN TIME: 0 days 1 hours 30 minutes 17 seconds 870 msec
