
                                 *****************
                                 * O   R   C   A *
                                 *****************

                                            #,                                       
                                            ###                                      
                                            ####                                     
                                            #####                                    
                                            ######                                   
                                           ########,                                 
                                     ,,################,,,,,                         
                               ,,#################################,,                 
                          ,,##########################################,,             
                       ,#########################################, ''#####,          
                    ,#############################################,,   '####,        
                  ,##################################################,,,,####,       
                ,###########''''           ''''###############################       
              ,#####''   ,,,,##########,,,,          '''####'''          '####       
            ,##' ,,,,###########################,,,                        '##       
           ' ,,###''''                  '''############,,,                           
         ,,##''                                '''############,,,,        ,,,,,,###''
      ,#''                                            '''#######################'''  
     '                                                          ''''####''''         
             ,#######,   #######,   ,#######,      ##                                
            ,#'     '#,  ##    ##  ,#'     '#,    #''#        ######   ,####,        
            ##       ##  ##   ,#'  ##            #'  '#       #        #'  '#        
            ##       ##  #######   ##           ,######,      #####,   #    #        
            '#,     ,#'  ##    ##  '#,     ,#' ,#      #,         ##   #,  ,#        
             '#######'   ##     ##  '#######'  #'      '#     #####' # '####'        



                  #######################################################
                  #                        -***-                        #
                  #          Department of theory and spectroscopy      #
                  #    Directorship and core code : Frank Neese         #
                  #        Max Planck Institute fuer Kohlenforschung    #
                  #                Kaiser Wilhelm Platz 1               #
                  #                 D-45470 Muelheim/Ruhr               #
                  #                      Germany                        #
                  #                                                     #
                  #                  All rights reserved                #
                  #                        -***-                        #
                  #######################################################


                         Program Version 5.0.4 -  RELEASE  -


 With contributions from (in alphabetic order):
   Daniel Aravena         : Magnetic Suceptibility
   Michael Atanasov       : Ab Initio Ligand Field Theory (pilot matlab implementation)
   Alexander A. Auer      : GIAO ZORA, VPT2 properties, NMR spectrum
   Ute Becker             : Parallelization
   Giovanni Bistoni       : ED, misc. LED, open-shell LED, HFLD
   Martin Brehm           : Molecular dynamics
   Dmytro Bykov           : SCF Hessian
   Vijay G. Chilkuri      : MRCI spin determinant printing, contributions to CSF-ICE
   Dipayan Datta          : RHF DLPNO-CCSD density
   Achintya Kumar Dutta   : EOM-CC, STEOM-CC
   Dmitry Ganyushin       : Spin-Orbit,Spin-Spin,Magnetic field MRCI
   Miquel Garcia          : C-PCM and meta-GGA Hessian, CC/C-PCM, Gaussian charge scheme
   Yang Guo               : DLPNO-NEVPT2, F12-NEVPT2, CIM, IAO-localization
   Andreas Hansen         : Spin unrestricted coupled pair/coupled cluster methods
   Benjamin Helmich-Paris : MC-RPA, TRAH-SCF, COSX integrals
   Lee Huntington         : MR-EOM, pCC
   Robert Izsak           : Overlap fitted RIJCOSX, COSX-SCS-MP3, EOM
   Marcus Kettner         : VPT2
   Christian Kollmar      : KDIIS, OOCD, Brueckner-CCSD(T), CCSD density, CASPT2, CASPT2-K
   Simone Kossmann        : Meta GGA functionals, TD-DFT gradient, OOMP2, MP2 Hessian
   Martin Krupicka        : Initial AUTO-CI
   Lucas Lang             : DCDCAS
   Marvin Lechner         : AUTO-CI (C++ implementation), FIC-MRCC
   Dagmar Lenk            : GEPOL surface, SMD
   Dimitrios Liakos       : Extrapolation schemes; Compound Job, initial MDCI parallelization
   Dimitrios Manganas     : Further ROCIS development; embedding schemes
   Dimitrios Pantazis     : SARC Basis sets
   Anastasios Papadopoulos: AUTO-CI, single reference methods and gradients
   Taras Petrenko         : DFT Hessian,TD-DFT gradient, ASA, ECA, R-Raman, ABS, FL, XAS/XES, NRVS
   Peter Pinski           : DLPNO-MP2, DLPNO-MP2 Gradient
   Christoph Reimann      : Effective Core Potentials
   Marius Retegan         : Local ZFS, SOC
   Christoph Riplinger    : Optimizer, TS searches, QM/MM, DLPNO-CCSD(T), (RO)-DLPNO pert. Triples
   Tobias Risthaus        : Range-separated hybrids, TD-DFT gradient, RPA, STAB
   Michael Roemelt        : Original ROCIS implementation
   Masaaki Saitow         : Open-shell DLPNO-CCSD energy and density
   Barbara Sandhoefer     : DKH picture change effects
   Avijit Sen             : IP-ROCIS
   Kantharuban Sivalingam : CASSCF convergence, NEVPT2, FIC-MRCI
   Bernardo de Souza      : ESD, SOC TD-DFT
   Georgi Stoychev        : AutoAux, RI-MP2 NMR, DLPNO-MP2 response
   Willem Van den Heuvel  : Paramagnetic NMR
   Boris Wezisla          : Elementary symmetry handling
   Frank Wennmohs         : Technical directorship


 We gratefully acknowledge several colleagues who have allowed us to
 interface, adapt or use parts of their codes:
   Stefan Grimme, W. Hujo, H. Kruse, P. Pracht,  : VdW corrections, initial TS optimization,
                  C. Bannwarth, S. Ehlert          DFT functionals, gCP, sTDA/sTD-DF
   Ed Valeev, F. Pavosevic, A. Kumar             : LibInt (2-el integral package), F12 methods
   Garnet Chan, S. Sharma, J. Yang, R. Olivares  : DMRG
   Ulf Ekstrom                                   : XCFun DFT Library
   Mihaly Kallay                                 : mrcc  (arbitrary order and MRCC methods)
   Jiri Pittner, Ondrej Demel                    : Mk-CCSD
   Frank Weinhold                                : gennbo (NPA and NBO analysis)
   Christopher J. Cramer and Donald G. Truhlar   : smd solvation model
   Lars Goerigk                                  : TD-DFT with DH, B97 family of functionals
   V. Asgeirsson, H. Jonsson                     : NEB implementation
   FAccTs GmbH                                   : IRC, NEB, NEB-TS, DLPNO-Multilevel, CI-OPT
                                                   MM, QMMM, 2- and 3-layer-ONIOM, Crystal-QMMM,
                                                   LR-CPCM, SF, NACMEs, symmetry and pop. for TD-DFT,
                                                   nearIR, NL-DFT gradient (VV10), updates on ESD,
                                                   ML-optimized integration grids
   S Lehtola, MJT Oliveira, MAL Marques          : LibXC Library
   Liviu Ungur et al                             : ANISO software


 Your calculation uses the libint2 library for the computation of 2-el integrals
 For citations please refer to: http://libint.valeyev.net

 Your ORCA version has been built with support for libXC version: 5.1.0
 For citations please refer to: https://tddft.org/programs/libxc/

 This ORCA versions uses:
   CBLAS   interface :  Fast vector & matrix operations
   LAPACKE interface :  Fast linear algebra routines
   SCALAPACK package :  Parallel linear algebra routines
   Shared memory     :  Shared parallel matrices
   BLAS/LAPACK       :  OpenBLAS 0.3.15  USE64BITINT DYNAMIC_ARCH NO_AFFINITY SkylakeX SINGLE_THREADED
        Core in use  :  SkylakeX
   Copyright (c) 2011-2014, The OpenBLAS Project




***************************************
The coordinates will be read from file: opt.xyz
***************************************


================================================================================

----- Orbital basis set information -----
Your calculation utilizes the basis: EPR-II
   V. Barone, in Recent Advances in Density Functional Methods, Part 1 (ed. D. P. Chong), World Scientific, Singapore, 1995, p. 287.

----- AuxJ basis set information -----
Your calculation utilizes the AutoAux generation procedure.
  G. L. Stoychev, A. A. Auer, F. Neese, J. Chem. Theory Comput. 13, 554 (2017)

----- AuxC basis set information -----
Your calculation utilizes the AutoAux generation procedure.
  G. L. Stoychev, A. A. Auer, F. Neese, J. Chem. Theory Comput. 13, 554 (2017)

----- AuxJK basis set information -----
Your calculation utilizes the AutoAux generation procedure.
  G. L. Stoychev, A. A. Auer, F. Neese, J. Chem. Theory Comput. 13, 554 (2017)

================================================================================
                                        WARNINGS
                       Please study these warnings very carefully!
================================================================================


WARNING: your system is open-shell and RHF/RKS was chosen
  ===> : WILL SWITCH to UHF/UKS


INFO   : the flag for use of the SHARK integral package has been found!

================================================================================
                                       INPUT FILE
================================================================================
NAME = EPRII.inp
|  1> ! B3LYP EPR-II AUTOAUX
|  2> %pal nprocs 16 end
|  3> *XYZFile 0 2 opt.xyz
|  4> %EPRNMR
|  5>         GTENSOR   TRUE
|  6>         NUCLEI    = ALL H {SHIFT, AISO, ADIP, AORB}
|  7>         ORI       GIAO
|  8> END
|  9> 
| 10>                          ****END OF INPUT****
================================================================================

                       ****************************
                       * Single Point Calculation *
                       ****************************

---------------------------------
CARTESIAN COORDINATES (ANGSTROEM)
---------------------------------
  C     -4.052268    0.115614   -0.001692
  C     -2.836565    0.052160   -0.003421
  C      2.842829   -0.004216   -0.002352
  C     -1.410014    0.002656   -0.003149
  C     -0.708139   -1.258090   -0.002726
  C      0.713185   -1.192512   -0.002392
  C      1.414143    0.016922   -0.002570
  C      0.706182    1.260759   -0.003012
  C     -0.689438    1.209567   -0.003370
  H      1.288191   -2.118709   -0.002058
  H     -1.263059    2.136269   -0.003793
  C     -1.396801   -2.492011   -0.002645
  H     -2.489358   -2.454708   -0.003064
  C     -0.741126   -3.840380   -0.002172
  H     -0.069922   -3.936290   -0.880793
  H     -0.068807   -3.935156    0.875698
  C     -1.739120   -5.005603   -0.000787
  H     -2.397379   -4.914277    0.882428
  H     -2.398569   -4.915385   -0.883231
  C     -1.061646   -6.377131   -0.000385
  H     -0.420496   -6.507557    0.888639
  H     -0.421640   -6.508641   -0.890074
  C      1.479774    2.562726   -0.003141
  H      2.157489    2.561725    0.871211
  H      2.158029    2.561237   -0.877070
  C      0.660782    3.856198   -0.003729
  H     -0.002282    3.880554   -0.888104
  H     -0.002671    3.881100    0.880341
  C      1.541048    5.111788   -0.003930
  H      2.207161    5.089300    0.878622
  H      2.207254    5.088941   -0.886402
  C      0.734674    6.412803   -0.004240
  H      0.084530    6.481508    0.885049
  H      0.084510    6.481072   -0.893549
  C      4.064589   -0.029084   -0.003390
  H     -5.122850    0.176841    0.002017
  H     -1.802776   -7.192512    0.000594
  H      1.393262    7.296517   -0.004468
  C      5.492574   -0.059283   -0.003026
  C      6.185759   -1.289431   -0.002819
  C      7.580089   -1.313817   -0.002390
  C      8.308273   -0.118677   -0.002188
  C      7.631219    1.106277   -0.002419
  C      6.237203    1.140549   -0.002850
  H      9.400533   -0.141833   -0.001853
  H      8.194107    2.042827   -0.002269
  H      5.615401   -2.220203   -0.002988
  H      5.707015    2.094785   -0.003040
  H      8.103468   -2.273007   -0.002217

----------------------------
CARTESIAN COORDINATES (A.U.)
----------------------------
  NO LB      ZA    FRAG     MASS         X           Y           Z
   0 C     6.0000    0    12.011   -7.657677    0.218479   -0.003198
   1 C     6.0000    0    12.011   -5.360331    0.098568   -0.006465
   2 C     6.0000    0    12.011    5.372169   -0.007967   -0.004444
   3 C     6.0000    0    12.011   -2.664541    0.005019   -0.005951
   4 C     6.0000    0    12.011   -1.338189   -2.377445   -0.005152
   5 C     6.0000    0    12.011    1.347725   -2.253522   -0.004520
   6 C     6.0000    0    12.011    2.672344    0.031979   -0.004857
   7 C     6.0000    0    12.011    1.334492    2.382489   -0.005692
   8 C     6.0000    0    12.011   -1.302849    2.285750   -0.006369
   9 H     1.0000    0     1.008    2.434329   -4.003780   -0.003889
  10 H     1.0000    0     1.008   -2.386836    4.036963   -0.007168
  11 C     6.0000    0    12.011   -2.639571   -4.709218   -0.004998
  12 H     1.0000    0     1.008   -4.704205   -4.638725   -0.005790
  13 C     6.0000    0    12.011   -1.400526   -7.257266   -0.004105
  14 H     1.0000    0     1.008   -0.132134   -7.438510   -1.664458
  15 H     1.0000    0     1.008   -0.130026   -7.436367    1.654830
  16 C     6.0000    0    12.011   -3.286461   -9.459219   -0.001488
  17 H     1.0000    0     1.008   -4.530390   -9.286638    1.667547
  18 H     1.0000    0     1.008   -4.532639   -9.288732   -1.669064
  19 C     6.0000    0    12.011   -2.006221  -12.051031   -0.000728
  20 H     1.0000    0     1.008   -0.794621  -12.297500    1.679284
  21 H     1.0000    0     1.008   -0.796784  -12.299549   -1.681996
  22 C     6.0000    0    12.011    2.796368    4.842850   -0.005935
  23 H     1.0000    0     1.008    4.077063    4.840958    1.646350
  24 H     1.0000    0     1.008    4.078084    4.840037   -1.657422
  25 C     6.0000    0    12.011    1.248696    7.287158   -0.007047
  26 H     1.0000    0     1.008   -0.004313    7.333185   -1.678274
  27 H     1.0000    0     1.008   -0.005048    7.334215    1.663603
  28 C     6.0000    0    12.011    2.912159    9.659880   -0.007426
  29 H     1.0000    0     1.008    4.170930    9.617383    1.660355
  30 H     1.0000    0     1.008    4.171105    9.616705   -1.675058
  31 C     6.0000    0    12.011    1.388332   12.118442   -0.008013
  32 H     1.0000    0     1.008    0.159738   12.248276    1.672501
  33 H     1.0000    0     1.008    0.159700   12.247452   -1.688563
  34 C     6.0000    0    12.011    7.680960   -0.054961   -0.006406
  35 H     1.0000    0     1.008   -9.680783    0.334181    0.003811
  36 H     1.0000    0     1.008   -3.406754  -13.591879    0.001122
  37 H     1.0000    0     1.008    2.632883   13.788418   -0.008442
  38 C     6.0000    0    12.011   10.379460   -0.112029   -0.005718
  39 C     6.0000    0    12.011   11.689391   -2.436671   -0.005326
  40 C     6.0000    0    12.011   14.324292   -2.482754   -0.004516
  41 C     6.0000    0    12.011   15.700361   -0.224267   -0.004135
  42 C     6.0000    0    12.011   14.420914    2.090561   -0.004572
  43 C     6.0000    0    12.011   11.786606    2.155326   -0.005386
  44 H     1.0000    0     1.008   17.764432   -0.268026   -0.003502
  45 H     1.0000    0     1.008   15.484619    3.860384   -0.004288
  46 H     1.0000    0     1.008   10.611570   -4.195575   -0.005647
  47 H     1.0000    0     1.008   10.784695    3.958571   -0.005746
  48 H     1.0000    0     1.008   15.313335   -4.295361   -0.004190

--------------------------------
INTERNAL COORDINATES (ANGSTROEM)
--------------------------------
 C      0   0   0     0.000000000000     0.00000000     0.00000000
 C      1   0   0     1.217359260364     0.00000000     0.00000000
 C      2   1   0     5.679674327504   177.57909499     0.00000000
 C      2   1   3     1.427409552105   178.99534651     3.08808618
 C      4   2   1     1.442951425572   121.09278371   174.71811389
 C      5   4   2     1.422836285811   116.46367031   180.00407821
 C      6   5   4     1.397882258686   122.73715019     0.00000000
 C      7   6   5     1.431201738527   120.25703922     0.00000000
 C      8   7   6     1.396559095721   117.54676217     0.00000000
 H      6   5   4     1.090170958943   119.19138482   179.99948449
 H      9   8   7     1.089870544167   119.65647988   180.00493673
 C      5   4   2     1.413087871575   121.72841724     0.00000000
 H     12   5   4     1.093193664881   117.21076493     0.00000000
 C     12   5   4     1.499335667753   124.90135308   180.00200593
 H     14  12   5     1.109814590441   109.99569207   302.57756505
 H     14  12   5     1.109798677346   109.99718402    57.30659809
 C     14  12   5     1.534190058153   113.48814276   179.94286128
 H     17  14  12     1.105312120549   108.98789398   302.35921625
 H     17  14  12     1.105313671011   108.98908084    57.63428164
 C     17  14  12     1.529725173464   113.13319790   179.99705768
 H     20  17  14     1.103833908636   111.30840897    59.86326630
 H     20  17  14     1.103833841714   111.30827615   300.13931194
 C      8   7   6     1.514450838400   119.63497019   179.99741455
 H     23   8   7     1.106250292653   108.18504701   303.71758795
 H     23   8   7     1.106247903877   108.18538127    56.27063565
 C     23   8   7     1.530953628554   116.94152217   179.99536478
 H     26  23   8     1.105606971055   109.86150781   301.75578256
 H     26  23   8     1.105607966662   109.86090980    58.25344213
 C     26  23   8     1.533419801342   112.62564205   180.00467961
 H     29  26  23     1.105942745177   109.20811490   302.33823521
 H     29  26  23     1.105942536750   109.20759569    57.68502110
 C     29  26  23     1.530647016941   113.17574209   180.01128968
 H     32  29  26     1.103740707934   111.28832870    59.85524771
 H     32  29  26     1.103740858252   111.28837505   300.15428281
 C      3   2   1     1.222013211744   179.39972339   183.50339480
 H      1   2   4     1.072337309213   179.69168392   343.00096738
 H     20  17  14     1.101871872811   111.44384015   180.00101100
 H     32  29  26     1.102128421739   111.51385020   180.00492423
 C     35   3   7     1.428304078639   179.92207852   295.47244443
 C     39  35   3     1.412008938125   120.61267562    54.30194255
 C     40  39  35     1.394543110631   120.40313695   180.00350810
 C     41  40  39     1.399504386554   120.35146742     0.00000000
 C     42  41  40     1.399612460365   119.71634157     0.00000000
 C     43  42  41     1.394437327793   120.33855062     0.00000000
 H     42  41  40     1.092504659132   120.13892208   180.00005377
 H     43  42  41     1.092688694510   120.06294536   180.00032209
 H     40  39  35     1.091624690355   119.09971744     0.00000000
 H     44  43  42     1.091634750457   120.46557739   180.00056615
 H     41  40  39     1.092689909688   119.62092764   179.99904039

---------------------------
INTERNAL COORDINATES (A.U.)
---------------------------
 C      0   0   0     0.000000000000     0.00000000     0.00000000
 C      1   0   0     2.300475608681     0.00000000     0.00000000
 C      2   1   0    10.733029008846   177.57909499     0.00000000
 C      2   1   3     2.697413134421   178.99534651     3.08808618
 C      4   2   1     2.726783018883   121.09278371   174.71811389
 C      5   4   2     2.688770913588   116.46367031   180.00407821
 C      6   5   4     2.641614636385   122.73715019     0.00000000
 C      7   6   5     2.704579328209   120.25703922     0.00000000
 C      8   7   6     2.639114220749   117.54676217     0.00000000
 H      6   5   4     2.060124551556   119.19138482   179.99948449
 H      9   8   7     2.059556849904   119.65647988   180.00493673
 C      5   4   2     2.670349080442   121.72841724     0.00000000
 H     12   5   4     2.065836637963   117.21076493     0.00000000
 C     12   5   4     2.833333794873   124.90135308   180.00200593
 H     14  12   5     2.097245635363   109.99569207   302.57756505
 H     14  12   5     2.097215563971   109.99718402    57.30659809
 C     14  12   5     2.899199047294   113.48814276   179.94286128
 H     17  14  12     2.088737200342   108.98789398   302.35921625
 H     17  14  12     2.088740130290   108.98908084    57.63428164
 C     17  14  12     2.890761638011   113.13319790   179.99705768
 H     20  17  14     2.085943784658   111.30840897    59.86326630
 H     20  17  14     2.085943658193   111.30827615   300.13931194
 C      8   7   6     2.861897327863   119.63497019   179.99741455
 H     23   8   7     2.090510088684   108.18504701   303.71758795
 H     23   8   7     2.090505574553   108.18538127    56.27063565
 C     23   8   7     2.893083081700   116.94152217   179.99536478
 H     26  23   8     2.089294387049   109.86150781   301.75578256
 H     26  23   8     2.089296268473   109.86090980    58.25344213
 C     26  23   8     2.897743472868   112.62564205   180.00467961
 H     29  26  23     2.089928908181   109.20811490   302.33823521
 H     29  26  23     2.089928514311   109.20759569    57.68502110
 C     29  26  23     2.892503669722   113.17574209   180.01128968
 H     32  29  26     2.085767660856   111.28832870    59.85524771
 H     32  29  26     2.085767944915   111.28837505   300.15428281
 C      3   2   1     2.309270302229   179.39972339   183.50339480
 H      1   2   4     2.026423837598   179.69168392   343.00096738
 H     20  17  14     2.082236074284   111.44384015   180.00101100
 H     32  29  26     2.082720881497   111.51385020   180.00492423
 C     35   3   7     2.699103544590   179.92207852   295.47244443
 C     39  35   3     2.668310191706   120.61267562    54.30194255
 C     40  39  35     2.635304561040   120.40313695   180.00350810
 C     41  40  39     2.644680013809   120.35146742     0.00000000
 C     42  41  40     2.644884243713   119.71634157     0.00000000
 C     43  42  41     2.635104660446   120.33855062     0.00000000
 H     42  41  40     2.064534605792   120.13892208   180.00005377
 H     43  42  41     2.064882382255   120.06294536   180.00032209
 H     40  39  35     2.062871705797   119.09971744     0.00000000
 H     44  43  42     2.062890716636   120.46557739   180.00056615
 H     41  40  39     2.064884678610   119.62092764   179.99904039

---------------------
BASIS SET INFORMATION
---------------------
There are 2 groups of distinct atoms

 Group   1 Type C   : 10s5p1d contracted to 6s2p1d pattern {511111/41/1}
 Group   2 Type H   : 6s1p contracted to 4s1p pattern {3111/1}

Atom   0C    basis set group =>   1
Atom   1C    basis set group =>   1
Atom   2C    basis set group =>   1
Atom   3C    basis set group =>   1
Atom   4C    basis set group =>   1
Atom   5C    basis set group =>   1
Atom   6C    basis set group =>   1
Atom   7C    basis set group =>   1
Atom   8C    basis set group =>   1
Atom   9H    basis set group =>   2
Atom  10H    basis set group =>   2
Atom  11C    basis set group =>   1
Atom  12H    basis set group =>   2
Atom  13C    basis set group =>   1
Atom  14H    basis set group =>   2
Atom  15H    basis set group =>   2
Atom  16C    basis set group =>   1
Atom  17H    basis set group =>   2
Atom  18H    basis set group =>   2
Atom  19C    basis set group =>   1
Atom  20H    basis set group =>   2
Atom  21H    basis set group =>   2
Atom  22C    basis set group =>   1
Atom  23H    basis set group =>   2
Atom  24H    basis set group =>   2
Atom  25C    basis set group =>   1
Atom  26H    basis set group =>   2
Atom  27H    basis set group =>   2
Atom  28C    basis set group =>   1
Atom  29H    basis set group =>   2
Atom  30H    basis set group =>   2
Atom  31C    basis set group =>   1
Atom  32H    basis set group =>   2
Atom  33H    basis set group =>   2
Atom  34C    basis set group =>   1
Atom  35H    basis set group =>   2
Atom  36H    basis set group =>   2
Atom  37H    basis set group =>   2
Atom  38C    basis set group =>   1
Atom  39C    basis set group =>   1
Atom  40C    basis set group =>   1
Atom  41C    basis set group =>   1
Atom  42C    basis set group =>   1
Atom  43C    basis set group =>   1
Atom  44H    basis set group =>   2
Atom  45H    basis set group =>   2
Atom  46H    basis set group =>   2
Atom  47H    basis set group =>   2
Atom  48H    basis set group =>   2
---------------------------------
AUXILIARY/J BASIS SET INFORMATION
---------------------------------
There are 2 groups of distinct atoms

 Group   1 Type C   : 17s13p12d2f contracted to 17s13p12d2f pattern {11111111111111111/1111111111111/111111111111/11}
 Group   2 Type H   : 15s6p1d contracted to 15s6p1d pattern {111111111111111/111111/1}

Atom   0C    basis set group =>   1
Atom   1C    basis set group =>   1
Atom   2C    basis set group =>   1
Atom   3C    basis set group =>   1
Atom   4C    basis set group =>   1
Atom   5C    basis set group =>   1
Atom   6C    basis set group =>   1
Atom   7C    basis set group =>   1
Atom   8C    basis set group =>   1
Atom   9H    basis set group =>   2
Atom  10H    basis set group =>   2
Atom  11C    basis set group =>   1
Atom  12H    basis set group =>   2
Atom  13C    basis set group =>   1
Atom  14H    basis set group =>   2
Atom  15H    basis set group =>   2
Atom  16C    basis set group =>   1
Atom  17H    basis set group =>   2
Atom  18H    basis set group =>   2
Atom  19C    basis set group =>   1
Atom  20H    basis set group =>   2
Atom  21H    basis set group =>   2
Atom  22C    basis set group =>   1
Atom  23H    basis set group =>   2
Atom  24H    basis set group =>   2
Atom  25C    basis set group =>   1
Atom  26H    basis set group =>   2
Atom  27H    basis set group =>   2
Atom  28C    basis set group =>   1
Atom  29H    basis set group =>   2
Atom  30H    basis set group =>   2
Atom  31C    basis set group =>   1
Atom  32H    basis set group =>   2
Atom  33H    basis set group =>   2
Atom  34C    basis set group =>   1
Atom  35H    basis set group =>   2
Atom  36H    basis set group =>   2
Atom  37H    basis set group =>   2
Atom  38C    basis set group =>   1
Atom  39C    basis set group =>   1
Atom  40C    basis set group =>   1
Atom  41C    basis set group =>   1
Atom  42C    basis set group =>   1
Atom  43C    basis set group =>   1
Atom  44H    basis set group =>   2
Atom  45H    basis set group =>   2
Atom  46H    basis set group =>   2
Atom  47H    basis set group =>   2
Atom  48H    basis set group =>   2
---------------------------------
AUXILIARY/C BASIS SET INFORMATION
---------------------------------
There are 2 groups of distinct atoms

 Group   1 Type C   : 17s13p12d2f contracted to 17s13p12d2f pattern {11111111111111111/1111111111111/111111111111/11}
 Group   2 Type H   : 15s6p1d contracted to 15s6p1d pattern {111111111111111/111111/1}

Atom   0C    basis set group =>   1
Atom   1C    basis set group =>   1
Atom   2C    basis set group =>   1
Atom   3C    basis set group =>   1
Atom   4C    basis set group =>   1
Atom   5C    basis set group =>   1
Atom   6C    basis set group =>   1
Atom   7C    basis set group =>   1
Atom   8C    basis set group =>   1
Atom   9H    basis set group =>   2
Atom  10H    basis set group =>   2
Atom  11C    basis set group =>   1
Atom  12H    basis set group =>   2
Atom  13C    basis set group =>   1
Atom  14H    basis set group =>   2
Atom  15H    basis set group =>   2
Atom  16C    basis set group =>   1
Atom  17H    basis set group =>   2
Atom  18H    basis set group =>   2
Atom  19C    basis set group =>   1
Atom  20H    basis set group =>   2
Atom  21H    basis set group =>   2
Atom  22C    basis set group =>   1
Atom  23H    basis set group =>   2
Atom  24H    basis set group =>   2
Atom  25C    basis set group =>   1
Atom  26H    basis set group =>   2
Atom  27H    basis set group =>   2
Atom  28C    basis set group =>   1
Atom  29H    basis set group =>   2
Atom  30H    basis set group =>   2
Atom  31C    basis set group =>   1
Atom  32H    basis set group =>   2
Atom  33H    basis set group =>   2
Atom  34C    basis set group =>   1
Atom  35H    basis set group =>   2
Atom  36H    basis set group =>   2
Atom  37H    basis set group =>   2
Atom  38C    basis set group =>   1
Atom  39C    basis set group =>   1
Atom  40C    basis set group =>   1
Atom  41C    basis set group =>   1
Atom  42C    basis set group =>   1
Atom  43C    basis set group =>   1
Atom  44H    basis set group =>   2
Atom  45H    basis set group =>   2
Atom  46H    basis set group =>   2
Atom  47H    basis set group =>   2
Atom  48H    basis set group =>   2
----------------------------------
AUXILIARY/JK BASIS SET INFORMATION
----------------------------------
There are 2 groups of distinct atoms

 Group   1 Type C   : 17s13p12d2f contracted to 17s13p12d2f pattern {11111111111111111/1111111111111/111111111111/11}
 Group   2 Type H   : 15s6p1d contracted to 15s6p1d pattern {111111111111111/111111/1}

Atom   0C    basis set group =>   1
Atom   1C    basis set group =>   1
Atom   2C    basis set group =>   1
Atom   3C    basis set group =>   1
Atom   4C    basis set group =>   1
Atom   5C    basis set group =>   1
Atom   6C    basis set group =>   1
Atom   7C    basis set group =>   1
Atom   8C    basis set group =>   1
Atom   9H    basis set group =>   2
Atom  10H    basis set group =>   2
Atom  11C    basis set group =>   1
Atom  12H    basis set group =>   2
Atom  13C    basis set group =>   1
Atom  14H    basis set group =>   2
Atom  15H    basis set group =>   2
Atom  16C    basis set group =>   1
Atom  17H    basis set group =>   2
Atom  18H    basis set group =>   2
Atom  19C    basis set group =>   1
Atom  20H    basis set group =>   2
Atom  21H    basis set group =>   2
Atom  22C    basis set group =>   1
Atom  23H    basis set group =>   2
Atom  24H    basis set group =>   2
Atom  25C    basis set group =>   1
Atom  26H    basis set group =>   2
Atom  27H    basis set group =>   2
Atom  28C    basis set group =>   1
Atom  29H    basis set group =>   2
Atom  30H    basis set group =>   2
Atom  31C    basis set group =>   1
Atom  32H    basis set group =>   2
Atom  33H    basis set group =>   2
Atom  34C    basis set group =>   1
Atom  35H    basis set group =>   2
Atom  36H    basis set group =>   2
Atom  37H    basis set group =>   2
Atom  38C    basis set group =>   1
Atom  39C    basis set group =>   1
Atom  40C    basis set group =>   1
Atom  41C    basis set group =>   1
Atom  42C    basis set group =>   1
Atom  43C    basis set group =>   1
Atom  44H    basis set group =>   2
Atom  45H    basis set group =>   2
Atom  46H    basis set group =>   2
Atom  47H    basis set group =>   2
Atom  48H    basis set group =>   2


           ************************************************************
           *        Program running with 16 parallel MPI-processes    *
           *              working on a common directory               *
           ************************************************************
------------------------------------------------------------------------------
                           ORCA GTO INTEGRAL CALCULATION
                           -- RI-GTO INTEGRALS CHOSEN --
------------------------------------------------------------------------------
------------------------------------------------------------------------------
                   ___                                                        
                  /   \      - P O W E R E D   B Y -                         
                 /     \                                                     
                 |  |  |   _    _      __       _____    __    __             
                 |  |  |  | |  | |    /  \     |  _  \  |  |  /  |          
                  \  \/   | |  | |   /    \    | | | |  |  | /  /          
                 / \  \   | |__| |  /  /\  \   | |_| |  |  |/  /          
                |  |  |   |  __  | /  /__\  \  |    /   |      \           
                |  |  |   | |  | | |   __   |  |    \   |  |\   \          
                \     /   | |  | | |  |  |  |  | |\  \  |  | \   \       
                 \___/    |_|  |_| |__|  |__|  |_| \__\ |__|  \__/        
                                                                              
                      - O R C A' S   B I G   F R I E N D -                    
                                      &                                       
                       - I N T E G R A L  F E E D E R -                       
                                                                              
 v1 FN, 2020, v2 2021                                                         
------------------------------------------------------------------------------


Reading SHARK input file EPRII.SHARKINP.tmp ... ok
----------------------
SHARK INTEGRAL PACKAGE
----------------------

Number of atoms                             ...     49
Number of basis functions                   ...    583
Number of shells                            ...    341
Maximum angular momentum                    ...      2
Integral batch strategy                     ... SHARK/LIBINT Hybrid
RI-J (if used) integral strategy            ... SPLIT-RIJ (Revised 2003 algorithm where possible)
Printlevel                                  ...      1
Contraction scheme used                     ... SEGMENTED contraction
Coulomb Range Separation                    ... NOT USED
Exchange Range Separation                   ... NOT USED
Finite Nucleus Model                        ... NOT USED
Auxiliary Coulomb fitting basis             ... AVAILABLE
   # of basis functions in Aux-J            ...   4070
   # of shells in Aux-J                     ...   1606
   Maximum angular momentum in Aux-J        ...      3
Auxiliary J/K fitting basis                 ... AVAILABLE
   # of basis functions in Aux-JK           ...   4070
   # of shells in Aux-JK                    ...   1606
   Maximum angular momentum in Aux-JK       ...      3
Auxiliary Correlation fitting basis         ... AVAILABLE
   # of basis functions in Aux-C            ...   4070
   # of shells in Aux-C                     ...   1606
   Maximum angular momentum in Aux-C        ...      3
Auxiliary 'external' fitting basis          ... NOT available
Integral threshold                          ...     1.000000e-10
Primitive cut-off                           ...     1.000000e-11
Primitive pair pre-selection threshold      ...     1.000000e-11

Calculating pre-screening integrals         ... done (  0.0 sec) Dimension = 341
Organizing shell pair data                  ... done (  0.2 sec)
Shell pair information
Total number of shell pairs                 ...     58311
Shell pairs after pre-screening             ...     29321
Total number of primitive shell pairs       ...    156979
Primitive shell pairs kept                  ...     55227
          la=0 lb=0:  13439 shell pairs
          la=1 lb=0:  10071 shell pairs
          la=1 lb=1:   1816 shell pairs
          la=2 lb=0:   2778 shell pairs
          la=2 lb=1:   1054 shell pairs
          la=2 lb=2:    163 shell pairs

Calculating one electron integrals          ... done (  0.0 sec)
Calculating RI/J V-Matrix + Cholesky decomp.... done (  1.0 sec)
Calculating RI/JK V-Matrix + Cholesky decomp... done (  1.0 sec)
Calculating RI/C V-Matrix + Cholesky decomp.... done (  1.0 sec)
Calculating Nuclear repulsion               ... done (  0.0 sec) ENN=   1724.022777785751 Eh

SHARK setup successfully completed in   3.6 seconds

Maximum memory used throughout the entire GTOINT-calculation: 59.3 MB


           ************************************************************
           *        Program running with 16 parallel MPI-processes    *
           *              working on a common directory               *
           ************************************************************
-------------------------------------------------------------------------------
                                 ORCA SCF
-------------------------------------------------------------------------------

------------
SCF SETTINGS
------------
Hamiltonian:
 Density Functional     Method          .... DFT(GTOs)
 Exchange Functional    Exchange        .... B88
   X-Alpha parameter    XAlpha          ....  0.666667
   Becke's b parameter  XBeta           ....  0.004200
 Correlation Functional Correlation     .... LYP
 LDA part of GGA corr.  LDAOpt          .... VWN-5
 Gradients option       PostSCFGGA      .... off
 Hybrid DFT is turned on
   Fraction HF Exchange ScalHFX         ....  0.200000
   Scaling of DF-GGA-X  ScalDFX         ....  0.720000
   Scaling of DF-GGA-C  ScalDFC         ....  0.810000
   Scaling of DF-LDA-C  ScalLDAC        ....  1.000000
   Perturbative correction              ....  0.000000
   Density functional embedding theory  .... OFF
   NL short-range parameter             ....  4.800000
 RI-approximation to the Coulomb term is turned on
   Number of AuxJ basis functions       .... 4070
   RIJ-COSX (HFX calculated with COS-X)).... on


General Settings:
 Integral files         IntName         .... EPRII
 Hartree-Fock type      HFTyp           .... UHF
 Total Charge           Charge          ....    0
 Multiplicity           Mult            ....    2
 Number of Electrons    NEL             ....  169
 Basis Dimension        Dim             ....  583
 Nuclear Repulsion      ENuc            ....   1724.0227777858 Eh

Convergence Acceleration:
 DIIS                   CNVDIIS         .... on
   Start iteration      DIISMaxIt       ....    12
   Startup error        DIISStart       ....  0.200000
   # of expansion vecs  DIISMaxEq       ....     5
   Bias factor          DIISBfac        ....   1.050
   Max. coefficient     DIISMaxC        ....  10.000
 Trust-Rad. Augm. Hess. CNVTRAH         .... auto
   Auto Start mean grad. ratio tolernc. ....  1.125000
   Auto Start start iteration           ....    20
   Auto Start num. interpolation iter.  ....    10
   Max. Number of Micro iterations      ....    16
   Max. Number of Macro iterations      .... Maxiter - #DIIS iter
   Number of Davidson start vectors     ....     2
   Converg. threshold I  (grad. norm)   ....   5.000e-05
   Converg. threshold II (energy diff.) ....   1.000e-06
   Grad. Scal. Fac. for Micro threshold ....   0.100
   Minimum threshold for Micro iter.    ....   0.010
   NR start threshold (gradient norm)   ....   0.001
   Initial trust radius                 ....   0.400
   Minimum AH scaling param. (alpha)    ....   1.000
   Maximum AH scaling param. (alpha)    .... 1000.000
   Orbital update algorithm             .... Taylor
   White noise on init. David. guess    .... on
   Maximum white noise                  ....   0.010
   Quad. conv. algorithm                .... NR
 SOSCF                  CNVSOSCF        .... off
 Level Shifting         CNVShift        .... on
   Level shift para.    LevelShift      ....    0.2500
   Turn off err/grad.   ShiftErr        ....    0.0010
 Zerner damping         CNVZerner       .... off
 Static damping         CNVDamp         .... on
   Fraction old density DampFac         ....    0.7000
   Max. Damping (<1)    DampMax         ....    0.9800
   Min. Damping (>=0)   DampMin         ....    0.0000
   Turn off err/grad.   DampErr         ....    0.1000
 Fernandez-Rico         CNVRico         .... off

SCF Procedure:
 Maximum # iterations   MaxIter         ....   125
 SCF integral mode      SCFMode         .... Direct
   Integral package                     .... SHARK and LIBINT hybrid scheme
 Reset frequency        DirectResetFreq ....    20
 Integral Threshold     Thresh          ....  1.000e-10 Eh
 Primitive CutOff       TCut            ....  1.000e-11 Eh

Convergence Tolerance:
 Convergence Check Mode ConvCheckMode   .... Total+1el-Energy
 Convergence forced     ConvForced      .... 0
 Energy Change          TolE            ....  1.000e-06 Eh
 1-El. energy change                    ....  1.000e-03 Eh
 DIIS Error             TolErr          ....  1.000e-06


Diagonalization of the overlap matrix:
Smallest eigenvalue                        ... 7.283e-05
Time for diagonalization                   ...    0.065 sec
Threshold for overlap eigenvalues          ... 1.000e-08
Number of eigenvalues below threshold      ... 0
Time for construction of square roots      ...    0.052 sec
Total time needed                          ...    0.118 sec

Time for model grid setup =    0.362 sec

------------------------------
INITIAL GUESS: MODEL POTENTIAL
------------------------------
Loading Hartree-Fock densities                     ... done
Calculating cut-offs                               ... done
Initializing the effective Hamiltonian             ... done
Setting up the integral package (SHARK)            ... done
Starting the Coulomb interaction                   ... done (   0.3 sec)
Reading the grid                                   ... done
Mapping shells                                     ... done
Starting the XC term evaluation                    ... done (   0.1 sec)
  promolecular density results
     # of electrons  =    168.989217229
     EX              =   -130.677553653
     EC              =     -5.564730708
     EX+EC           =   -136.242284361
Transforming the Hamiltonian                       ... done (   0.0 sec)
Diagonalizing the Hamiltonian                      ... done (   0.1 sec)
Back transforming the eigenvectors                 ... done (   0.0 sec)
Now organizing SCF variables                       ... done
                      ------------------
                      INITIAL GUESS DONE (   1.1 sec)
                      ------------------
-------------------
DFT GRID GENERATION
-------------------

General Integration Accuracy     IntAcc      ... 4.388
Radial Grid Type                 RadialGrid  ... OptM3 with GC (2021)
Angular Grid (max. ang.)         AngularGrid ... 4 (Lebedev-302)
Angular grid pruning method      GridPruning ... 4 (adaptive)
Weight generation scheme         WeightScheme... Becke
Basis function cutoff            BFCut       ... 1.0000e-10
Integration weight cutoff        WCut        ... 1.0000e-14
Angular grids for H and He will be reduced by one unit
Partially contracted basis set               ... off
Rotationally invariant grid construction     ... off

Total number of grid points                  ...   223167
Total number of batches                      ...     3511
Average number of points per batch           ...       63
Average number of grid points per atom       ...     4554
Time for grid setup =    1.476 sec

--------------------
COSX GRID GENERATION
--------------------

GRIDX 1
-------
General Integration Accuracy     IntAcc      ... 3.816
Radial Grid Type                 RadialGrid  ... OptM3 with GC (2021)
Angular Grid (max. ang.)         AngularGrid ... 1 (Lebedev-50)
Angular grid pruning method      GridPruning ... 4 (adaptive)
Weight generation scheme         WeightScheme... Becke
Basis function cutoff            BFCut       ... 1.0000e-10
Integration weight cutoff        WCut        ... 1.0000e-14
Angular grids for H and He will be reduced by one unit
Partially contracted basis set               ... on
Rotationally invariant grid construction     ... off

Total number of grid points                  ...    28454
Total number of batches                      ...      471
Average number of points per batch           ...       60
Average number of grid points per atom       ...      581
UseSFitting                                  ... on

GRIDX 2
-------
General Integration Accuracy     IntAcc      ... 4.020
Radial Grid Type                 RadialGrid  ... OptM3 with GC (2021)
Angular Grid (max. ang.)         AngularGrid ... 2 (Lebedev-110)
Angular grid pruning method      GridPruning ... 4 (adaptive)
Weight generation scheme         WeightScheme... Becke
Basis function cutoff            BFCut       ... 1.0000e-10
Integration weight cutoff        WCut        ... 1.0000e-14
Angular grids for H and He will be reduced by one unit
Partially contracted basis set               ... on
Rotationally invariant grid construction     ... off

Total number of grid points                  ...    60638
Total number of batches                      ...      972
Average number of points per batch           ...       62
Average number of grid points per atom       ...     1238
UseSFitting                                  ... on

GRIDX 3
-------
General Integration Accuracy     IntAcc      ... 4.338
Radial Grid Type                 RadialGrid  ... OptM3 with GC (2021)
Angular Grid (max. ang.)         AngularGrid ... 3 (Lebedev-194)
Angular grid pruning method      GridPruning ... 4 (adaptive)
Weight generation scheme         WeightScheme... Becke
Basis function cutoff            BFCut       ... 1.0000e-10
Integration weight cutoff        WCut        ... 1.0000e-14
Angular grids for H and He will be reduced by one unit
Partially contracted basis set               ... on
Rotationally invariant grid construction     ... off

Total number of grid points                  ...   132616
Total number of batches                      ...     2098
Average number of points per batch           ...       63
Average number of grid points per atom       ...     2706
UseSFitting                                  ... on

Time for X-Grid setup             =    2.593 sec

--------------
SCF ITERATIONS
--------------
ITER       Energy         Delta-E        Max-DP      RMS-DP      [F,P]     Damp
               ***  Starting incremental Fock matrix formation  ***
  0   -928.4446066463   0.000000000000 0.07596310  0.00086782  0.0796141 0.7000
  1   -928.6759902162  -0.231383569927 0.05068812  0.00061751  0.0426143 0.7000
                               ***Turning on DIIS***
  2   -928.7811436732  -0.105153456965 0.12658953  0.00129473  0.0165446 0.0000
  3   -928.9294659770  -0.148322303792 0.03043945  0.00035731  0.0233565 0.0000
  4   -928.9689347083  -0.039468731341 0.02975818  0.00019806  0.0050517 0.0000
  5   -928.9708737042  -0.001938995885 0.01614308  0.00009794  0.0029493 0.0000
  6   -928.9711791385  -0.000305434245 0.00631974  0.00004090  0.0021712 0.0000
  7   -928.9712947958  -0.000115657328 0.00291100  0.00002080  0.0015142 0.0000
  8   -928.9713599993  -0.000065203522 0.00454375  0.00002453  0.0009571 0.0000
               *** Restarting incremental Fock matrix formation ***
                                   *** Resetting DIIS ***
  9   -928.9716994193  -0.000339420023 0.00271426  0.00002170  0.0008503 0.0000
 10   -928.9716907481   0.000008671278 0.00077542  0.00000468  0.0018876 0.0000
 11   -928.9717106263  -0.000019878285 0.00068159  0.00000462  0.0006532 0.0000
 12   -928.9717155447  -0.000004918344 0.00080324  0.00000424  0.0002033 0.0000
 13   -928.9717177647  -0.000002220031 0.00038756  0.00000232  0.0001910 0.0000
                 **** Energy Check signals convergence ****

               *****************************************************
               *                     SUCCESS                       *
               *           SCF CONVERGED AFTER  14 CYCLES          *
               *****************************************************

Old exchange energy                            =    -26.605887372 Eh
New exchange energy                            =    -26.605903535 Eh
Exchange energy change after final integration =     -0.000016163 Eh
Total energy after final integration           =   -928.971734812 Eh
Final COS-X integration done in                =    10.361 sec

----------------
TOTAL SCF ENERGY
----------------

Total Energy       :         -928.97173481 Eh          -25278.60604 eV

Components:
Nuclear Repulsion  :         1724.02277779 Eh           46913.04480 eV
Electronic Energy  :        -2652.99451260 Eh          -72191.65084 eV
One Electron Energy:        -4676.89605866 Eh         -127264.81177 eV
Two Electron Energy:         2023.90154606 Eh           55073.16093 eV
Max COSX asymmetry :            0.00000330 Eh               0.00009 eV

Virial components:
Potential Energy   :        -1850.51815964 Eh          -50355.15913 eV
Kinetic Energy     :          921.54642483 Eh           25076.55309 eV
Virial Ratio       :            2.00805745


DFT components:
N(Alpha)           :       85.000160580336 electrons
N(Beta)            :       84.000150185006 electrons
N(Total)           :      169.000310765343 electrons
E(X)               :     -105.549605600706 Eh       
E(C)               :       -6.576861751123 Eh       
E(XC)              :     -112.126467351829 Eh       
DFET-embed. en.    :        0.000000000000 Eh       

---------------
SCF CONVERGENCE
---------------

  Last Energy change         ...   -8.8381e-07  Tolerance :   1.0000e-06
  Last MAX-Density change    ...    0.0000e+00  Tolerance :   1.0000e-05
  Last RMS-Density change    ...    0.0000e+00  Tolerance :   1.0000e-06
  Last DIIS Error            ...    1.0378e-04  Tolerance :   1.0000e-06

             **** THE GBW FILE WAS UPDATED (EPRII.gbw) ****
             **** DENSITY EPRII.scfp WAS UPDATED ****
             **** ENERGY FILE WAS UPDATED (EPRII.en.tmp) ****
----------------------
UHF SPIN CONTAMINATION
----------------------

Warning: in a DFT calculation there is little theoretical justification to 
         calculate <S**2> as in Hartree-Fock theory. We will do it anyways
         but you should keep in mind that the values have only limited relevance

Expectation value of <S**2>     :     0.786432
Ideal value S*(S+1) for S=0.5   :     0.750000
Deviation                       :     0.036432

             **** THE GBW FILE WAS UPDATED (EPRII.gbw) ****
             **** DENSITY EPRII.scfp WAS UPDATED ****
----------------
ORBITAL ENERGIES
----------------
                 SPIN UP ORBITALS
  NO   OCC          E(Eh)            E(eV) 
   0   1.0000     -10.227890      -278.3150 
   1   1.0000     -10.223400      -278.1929 
   2   1.0000     -10.221682      -278.1461 
   3   1.0000     -10.211057      -277.8570 
   4   1.0000     -10.208399      -277.7847 
   5   1.0000     -10.205723      -277.7118 
   6   1.0000     -10.205611      -277.7088 
   7   1.0000     -10.205414      -277.7034 
   8   1.0000     -10.204666      -277.6831 
   9   1.0000     -10.204481      -277.6780 
  10   1.0000     -10.203392      -277.6484 
  11   1.0000     -10.202352      -277.6201 
  12   1.0000     -10.201063      -277.5850 
  13   1.0000     -10.200196      -277.5615 
  14   1.0000     -10.197792      -277.4960 
  15   1.0000     -10.197077      -277.4766 
  16   1.0000     -10.195863      -277.4435 
  17   1.0000     -10.189656      -277.2746 
  18   1.0000     -10.188042      -277.2307 
  19   1.0000     -10.184684      -277.1393 
  20   1.0000     -10.182755      -277.0868 
  21   1.0000     -10.182405      -277.0773 
  22   1.0000     -10.174927      -276.8738 
  23   1.0000     -10.173241      -276.8280 
  24   1.0000      -0.873429       -23.7672 
  25   1.0000      -0.863734       -23.5034 
  26   1.0000      -0.819129       -22.2896 
  27   1.0000      -0.797915       -21.7124 
  28   1.0000      -0.794963       -21.6320 
  29   1.0000      -0.778824       -21.1929 
  30   1.0000      -0.766743       -20.8641 
  31   1.0000      -0.751752       -20.4562 
  32   1.0000      -0.745024       -20.2731 
  33   1.0000      -0.729128       -19.8406 
  34   1.0000      -0.714861       -19.4524 
  35   1.0000      -0.696602       -18.9555 
  36   1.0000      -0.655657       -17.8413 
  37   1.0000      -0.644154       -17.5283 
  38   1.0000      -0.619979       -16.8705 
  39   1.0000      -0.611665       -16.6442 
  40   1.0000      -0.610139       -16.6027 
  41   1.0000      -0.592143       -16.1130 
  42   1.0000      -0.579287       -15.7632 
  43   1.0000      -0.561616       -15.2823 
  44   1.0000      -0.542604       -14.7650 
  45   1.0000      -0.531154       -14.4534 
  46   1.0000      -0.507356       -13.8059 
  47   1.0000      -0.490940       -13.3592 
  48   1.0000      -0.481061       -13.0903 
  49   1.0000      -0.476318       -12.9613 
  50   1.0000      -0.470492       -12.8027 
  51   1.0000      -0.462086       -12.5740 
  52   1.0000      -0.457634       -12.4529 
  53   1.0000      -0.438341       -11.9279 
  54   1.0000      -0.431784       -11.7494 
  55   1.0000      -0.429131       -11.6773 
  56   1.0000      -0.425970       -11.5912 
  57   1.0000      -0.425408       -11.5759 
  58   1.0000      -0.421899       -11.4804 
  59   1.0000      -0.411410       -11.1950 
  60   1.0000      -0.398263       -10.8373 
  61   1.0000      -0.397370       -10.8130 
  62   1.0000      -0.383717       -10.4415 
  63   1.0000      -0.378402       -10.2969 
  64   1.0000      -0.377435       -10.2705 
  65   1.0000      -0.364623        -9.9219 
  66   1.0000      -0.362874        -9.8743 
  67   1.0000      -0.356553        -9.7023 
  68   1.0000      -0.354333        -9.6419 
  69   1.0000      -0.352284        -9.5861 
  70   1.0000      -0.339522        -9.2389 
  71   1.0000      -0.332399        -9.0450 
  72   1.0000      -0.332069        -9.0360 
  73   1.0000      -0.330381        -8.9901 
  74   1.0000      -0.327196        -8.9035 
  75   1.0000      -0.323164        -8.7937 
  76   1.0000      -0.321372        -8.7450 
  77   1.0000      -0.298079        -8.1111 
  78   1.0000      -0.275369        -7.4932 
  79   1.0000      -0.275349        -7.4926 
  80   1.0000      -0.269659        -7.3378 
  81   1.0000      -0.259540        -7.0624 
  82   1.0000      -0.256631        -6.9833 
  83   1.0000      -0.215619        -5.8673 
  84   1.0000      -0.173669        -4.7258 
  85   0.0000      -0.062154        -1.6913 
  86   0.0000      -0.014756        -0.4015 
  87   0.0000      -0.012351        -0.3361 
  88   0.0000       0.014101         0.3837 
  89   0.0000       0.014277         0.3885 
  90   0.0000       0.021087         0.5738 
  91   0.0000       0.021963         0.5977 
  92   0.0000       0.029805         0.8110 
  93   0.0000       0.033489         0.9113 
  94   0.0000       0.035576         0.9681 
  95   0.0000       0.040090         1.0909 
  96   0.0000       0.045234         1.2309 
  97   0.0000       0.048019         1.3067 
  98   0.0000       0.050255         1.3675 
  99   0.0000       0.055345         1.5060 
 100   0.0000       0.060820         1.6550 
 101   0.0000       0.061042         1.6610 
 102   0.0000       0.067525         1.8375 
 103   0.0000       0.076738         2.0881 
 104   0.0000       0.081033         2.2050 
 105   0.0000       0.083631         2.2757 
 106   0.0000       0.090483         2.4622 
 107   0.0000       0.106131         2.8880 
 108   0.0000       0.109853         2.9892 
 109   0.0000       0.113493         3.0883 
 110   0.0000       0.117470         3.1965 
 111   0.0000       0.127524         3.4701 
 112   0.0000       0.137708         3.7472 
 113   0.0000       0.153659         4.1813 
 114   0.0000       0.154067         4.1924 
 115   0.0000       0.158225         4.3055 
 116   0.0000       0.161095         4.3836 
 117   0.0000       0.172316         4.6890 
 118   0.0000       0.176072         4.7912 
 119   0.0000       0.181611         4.9419 
 120   0.0000       0.183598         4.9960 
 121   0.0000       0.192285         5.2323 
 122   0.0000       0.193389         5.2624 
 123   0.0000       0.199556         5.4302 
 124   0.0000       0.200235         5.4487 
 125   0.0000       0.200357         5.4520 
 126   0.0000       0.203188         5.5290 
 127   0.0000       0.206906         5.6302 
 128   0.0000       0.215457         5.8629 
 129   0.0000       0.217260         5.9120 
 130   0.0000       0.219165         5.9638 
 131   0.0000       0.221470         6.0265 
 132   0.0000       0.225077         6.1246 
 133   0.0000       0.235564         6.4100 
 134   0.0000       0.238628         6.4934 
 135   0.0000       0.244823         6.6620 
 136   0.0000       0.246898         6.7184 
 137   0.0000       0.251096         6.8327 
 138   0.0000       0.251734         6.8500 
 139   0.0000       0.253864         6.9080 
 140   0.0000       0.260114         7.0781 
 141   0.0000       0.265148         7.2150 
 142   0.0000       0.270759         7.3677 
 143   0.0000       0.274710         7.4752 
 144   0.0000       0.276726         7.5301 
 145   0.0000       0.277277         7.5451 
 146   0.0000       0.285059         7.7569 
 147   0.0000       0.285315         7.7638 
 148   0.0000       0.287353         7.8193 
 149   0.0000       0.291936         7.9440 
 150   0.0000       0.292818         7.9680 
 151   0.0000       0.297768         8.1027 
 152   0.0000       0.298972         8.1354 
 153   0.0000       0.303435         8.2569 
 154   0.0000       0.308415         8.3924 
 155   0.0000       0.309628         8.4254 
 156   0.0000       0.311326         8.4716 
 157   0.0000       0.312540         8.5046 
 158   0.0000       0.316837         8.6216 
 159   0.0000       0.317923         8.6511 
 160   0.0000       0.318794         8.6748 
 161   0.0000       0.323589         8.8053 
 162   0.0000       0.329303         8.9608 
 163   0.0000       0.334972         9.1151 
 164   0.0000       0.338564         9.2128 
 165   0.0000       0.344630         9.3779 
 166   0.0000       0.347521         9.4565 
 167   0.0000       0.348303         9.4778 
 168   0.0000       0.349593         9.5129 
 169   0.0000       0.356930         9.7126 
 170   0.0000       0.359854         9.7921 
 171   0.0000       0.370296        10.0763 
 172   0.0000       0.372104        10.1255 
 173   0.0000       0.376536        10.2461 
 174   0.0000       0.378156        10.2902 
 175   0.0000       0.383643        10.4395 
 176   0.0000       0.388882        10.5820 
 177   0.0000       0.397861        10.8263 
 178   0.0000       0.400926        10.9097 
 179   0.0000       0.404907        11.0181 
 180   0.0000       0.407888        11.0992 
 181   0.0000       0.414828        11.2881 
 182   0.0000       0.416932        11.3453 
 183   0.0000       0.420467        11.4415 
 184   0.0000       0.427281        11.6269 
 185   0.0000       0.428367        11.6564 
 186   0.0000       0.430325        11.7097 
 187   0.0000       0.439319        11.9545 
 188   0.0000       0.445005        12.1092 
 189   0.0000       0.447897        12.1879 
 190   0.0000       0.449911        12.2427 
 191   0.0000       0.455717        12.4007 
 192   0.0000       0.459621        12.5069 
 193   0.0000       0.468096        12.7376 
 194   0.0000       0.470926        12.8145 
 195   0.0000       0.473905        12.8956 
 196   0.0000       0.476140        12.9564 
 197   0.0000       0.481805        13.1106 
 198   0.0000       0.483933        13.1685 
 199   0.0000       0.488958        13.3052 
 200   0.0000       0.501785        13.6543 
 201   0.0000       0.502880        13.6841 
 202   0.0000       0.511944        13.9307 
 203   0.0000       0.517381        14.0787 
 204   0.0000       0.522550        14.2193 
 205   0.0000       0.524624        14.2757 
 206   0.0000       0.532063        14.4782 
 207   0.0000       0.534976        14.5574 
 208   0.0000       0.538264        14.6469 
 209   0.0000       0.546770        14.8784 
 210   0.0000       0.550924        14.9914 
 211   0.0000       0.554658        15.0930 
 212   0.0000       0.558552        15.1990 
 213   0.0000       0.570241        15.5171 
 214   0.0000       0.586544        15.9607 
 215   0.0000       0.587134        15.9767 
 216   0.0000       0.595129        16.1943 
 217   0.0000       0.595784        16.2121 
 218   0.0000       0.604098        16.4383 
 219   0.0000       0.606331        16.4991 
 220   0.0000       0.611764        16.6470 
 221   0.0000       0.627904        17.0861 
 222   0.0000       0.633826        17.2473 
 223   0.0000       0.647365        17.6157 
 224   0.0000       0.648110        17.6360 
 225   0.0000       0.667055        18.1515 
 226   0.0000       0.672071        18.2880 
 227   0.0000       0.673428        18.3249 
 228   0.0000       0.678180        18.4542 
 229   0.0000       0.683356        18.5951 
 230   0.0000       0.706619        19.2281 
 231   0.0000       0.725615        19.7450 
 232   0.0000       0.727813        19.8048 
 233   0.0000       0.763852        20.7855 
 234   0.0000       0.769690        20.9443 
 235   0.0000       0.776823        21.1384 
 236   0.0000       0.791277        21.5317 
 237   0.0000       0.795285        21.6408 
 238   0.0000       0.813213        22.1286 
 239   0.0000       0.830082        22.5877 
 240   0.0000       0.836529        22.7631 
 241   0.0000       0.840166        22.8621 
 242   0.0000       0.847464        23.0607 
 243   0.0000       0.850364        23.1396 
 244   0.0000       0.853137        23.2150 
 245   0.0000       0.857214        23.3260 
 246   0.0000       0.861491        23.4424 
 247   0.0000       0.867505        23.6060 
 248   0.0000       0.867833        23.6149 
 249   0.0000       0.870638        23.6913 
 250   0.0000       0.884296        24.0629 
 251   0.0000       0.892056        24.2741 
 252   0.0000       0.895430        24.3659 
 253   0.0000       0.901931        24.5428 
 254   0.0000       0.910655        24.7802 
 255   0.0000       0.912281        24.8244 
 256   0.0000       0.915711        24.9178 
 257   0.0000       0.926572        25.2133 
 258   0.0000       0.927006        25.2251 
 259   0.0000       0.929607        25.2959 
 260   0.0000       0.935448        25.4548 
 261   0.0000       0.935735        25.4626 
 262   0.0000       0.940366        25.5886 
 263   0.0000       0.946586        25.7579 
 264   0.0000       0.956891        26.0383 
 265   0.0000       0.958477        26.0815 
 266   0.0000       0.962430        26.1891 
 267   0.0000       0.970188        26.4002 
 268   0.0000       0.977284        26.5932 
 269   0.0000       0.978090        26.6152 
 270   0.0000       0.979129        26.6434 
 271   0.0000       0.992506        27.0074 
 272   0.0000       0.994394        27.0588 
 273   0.0000       0.997321        27.1385 
 274   0.0000       1.001664        27.2567 
 275   0.0000       1.003599        27.3093 
 276   0.0000       1.005605        27.3639 
 277   0.0000       1.013269        27.5725 
 278   0.0000       1.027274        27.9535 
 279   0.0000       1.029316        28.0091 
 280   0.0000       1.030035        28.0287 
 281   0.0000       1.034665        28.1547 
 282   0.0000       1.038106        28.2483 
 283   0.0000       1.042706        28.3735 
 284   0.0000       1.051890        28.6234 
 285   0.0000       1.058404        28.8006 
 286   0.0000       1.064650        28.9706 
 287   0.0000       1.066871        29.0310 
 288   0.0000       1.067469        29.0473 
 289   0.0000       1.094201        29.7747 
 290   0.0000       1.102115        29.9901 
 291   0.0000       1.113120        30.2895 
 292   0.0000       1.113827        30.3088 
 293   0.0000       1.114896        30.3379 
 294   0.0000       1.124280        30.5932 
 295   0.0000       1.130317        30.7575 
 296   0.0000       1.137991        30.9663 
 297   0.0000       1.150749        31.3135 
 298   0.0000       1.156221        31.4624 
 299   0.0000       1.172661        31.9097 
 300   0.0000       1.178903        32.0796 
 301   0.0000       1.179311        32.0907 
 302   0.0000       1.187126        32.3033 
 303   0.0000       1.190405        32.3926 
 304   0.0000       1.201785        32.7022 
 305   0.0000       1.203587        32.7513 
 306   0.0000       1.219037        33.1717 
 307   0.0000       1.221456        33.2375 
 308   0.0000       1.241915        33.7942 
 309   0.0000       1.242595        33.8127 
 310   0.0000       1.253825        34.1183 
 311   0.0000       1.257133        34.2083 
 312   0.0000       1.264137        34.3989 
 313   0.0000       1.274441        34.6793 
 314   0.0000       1.288490        35.0616 
 315   0.0000       1.299706        35.3668 
 316   0.0000       1.307578        35.5810 
 317   0.0000       1.313044        35.7297 
 318   0.0000       1.320414        35.9303 
 319   0.0000       1.321683        35.9648 
 320   0.0000       1.331569        36.2338 
 321   0.0000       1.340724        36.4830 
 322   0.0000       1.349924        36.7333 
 323   0.0000       1.353011        36.8173 
 324   0.0000       1.368010        37.2254 
 325   0.0000       1.381468        37.5917 
 326   0.0000       1.385094        37.6903 
 327   0.0000       1.398808        38.0635 
 328   0.0000       1.401608        38.1397 
 329   0.0000       1.407748        38.3068 
 330   0.0000       1.424210        38.7547 
 331   0.0000       1.427152        38.8348 
 332   0.0000       1.429755        38.9056 
 333   0.0000       1.434178        39.0260 
 334   0.0000       1.440891        39.2086 
 335   0.0000       1.446672        39.3659 
 336   0.0000       1.448214        39.4079 
 337   0.0000       1.452109        39.5139 
 338   0.0000       1.461082        39.7581 
 339   0.0000       1.465418        39.8760 
 340   0.0000       1.478841        40.2413 
 341   0.0000       1.488359        40.5003 
 342   0.0000       1.498374        40.7728 
 343   0.0000       1.504488        40.9392 
 344   0.0000       1.508747        41.0551 
 345   0.0000       1.512971        41.1700 
 346   0.0000       1.518522        41.3211 
 347   0.0000       1.519357        41.3438 
 348   0.0000       1.541786        41.9541 
 349   0.0000       1.560662        42.4678 
 350   0.0000       1.561862        42.5004 
 351   0.0000       1.562959        42.5303 
 352   0.0000       1.563255        42.5383 
 353   0.0000       1.565535        42.6004 
 354   0.0000       1.578145        42.9435 
 355   0.0000       1.587140        43.1883 
 356   0.0000       1.589011        43.2392 
 357   0.0000       1.590614        43.2828 
 358   0.0000       1.600032        43.5391 
 359   0.0000       1.602364        43.6025 
 360   0.0000       1.603863        43.6433 
 361   0.0000       1.616875        43.9974 
 362   0.0000       1.619277        44.0628 
 363   0.0000       1.628367        44.3101 
 364   0.0000       1.638748        44.5926 
 365   0.0000       1.638925        44.5974 
 366   0.0000       1.643537        44.7229 
 367   0.0000       1.656828        45.0846 
 368   0.0000       1.657930        45.1146 
 369   0.0000       1.659441        45.1557 
 370   0.0000       1.678523        45.6749 
 371   0.0000       1.682488        45.7828 
 372   0.0000       1.686285        45.8861 
 373   0.0000       1.692696        46.0606 
 374   0.0000       1.693343        46.0782 
 375   0.0000       1.698032        46.2058 
 376   0.0000       1.704841        46.3911 
 377   0.0000       1.705134        46.3990 
 378   0.0000       1.717157        46.7262 
 379   0.0000       1.726222        46.9729 
 380   0.0000       1.735087        47.2141 
 381   0.0000       1.737499        47.2798 
 382   0.0000       1.744505        47.4704 
 383   0.0000       1.757387        47.8209 
 384   0.0000       1.766027        48.0560 
 385   0.0000       1.771096        48.1940 
 386   0.0000       1.775777        48.3214 
 387   0.0000       1.776083        48.3297 
 388   0.0000       1.790475        48.7213 
 389   0.0000       1.792282        48.7705 
 390   0.0000       1.796799        48.8934 
 391   0.0000       1.805310        49.1250 
 392   0.0000       1.809425        49.2369 
 393   0.0000       1.816142        49.4197 
 394   0.0000       1.830692        49.8157 
 395   0.0000       1.832601        49.8676 
 396   0.0000       1.837589        50.0033 
 397   0.0000       1.856573        50.5199 
 398   0.0000       1.857195        50.5368 
 399   0.0000       1.866747        50.7968 
 400   0.0000       1.870123        50.8886 
 401   0.0000       1.901532        51.7433 
 402   0.0000       1.926029        52.4099 
 403   0.0000       1.932402        52.5833 
 404   0.0000       1.932670        52.5906 
 405   0.0000       1.943150        52.8758 
 406   0.0000       1.952169        53.1212 
 407   0.0000       1.960162        53.3387 
 408   0.0000       1.974193        53.7205 
 409   0.0000       1.976442        53.7817 
 410   0.0000       2.011630        54.7392 
 411   0.0000       2.023118        55.0518 
 412   0.0000       2.037906        55.4542 
 413   0.0000       2.041077        55.5405 
 414   0.0000       2.043933        55.6183 
 415   0.0000       2.056643        55.9641 
 416   0.0000       2.078085        56.5476 
 417   0.0000       2.087075        56.7922 
 418   0.0000       2.103396        57.2363 
 419   0.0000       2.110777        57.4372 
 420   0.0000       2.117067        57.6083 
 421   0.0000       2.129527        57.9474 
 422   0.0000       2.143818        58.3362 
 423   0.0000       2.143995        58.3411 
 424   0.0000       2.154132        58.6169 
 425   0.0000       2.187641        59.5287 
 426   0.0000       2.200845        59.8880 
 427   0.0000       2.200972        59.8915 
 428   0.0000       2.214648        60.2636 
 429   0.0000       2.215324        60.2820 
 430   0.0000       2.227034        60.6007 
 431   0.0000       2.243238        61.0416 
 432   0.0000       2.256644        61.4064 
 433   0.0000       2.257447        61.4283 
 434   0.0000       2.271094        61.7996 
 435   0.0000       2.278718        62.0071 
 436   0.0000       2.307079        62.7788 
 437   0.0000       2.313573        62.9555 
 438   0.0000       2.317530        63.0632 
 439   0.0000       2.324567        63.2547 
 440   0.0000       2.331439        63.4417 
 441   0.0000       2.353474        64.0413 
 442   0.0000       2.373709        64.5919 
 443   0.0000       2.385496        64.9126 
 444   0.0000       2.398799        65.2746 
 445   0.0000       2.407425        65.5094 
 446   0.0000       2.412577        65.6496 
 447   0.0000       2.414163        65.6927 
 448   0.0000       2.428762        66.0900 
 449   0.0000       2.443016        66.4778 
 450   0.0000       2.454716        66.7962 
 451   0.0000       2.461133        66.9708 
 452   0.0000       2.465162        67.0805 
 453   0.0000       2.470824        67.2345 
 454   0.0000       2.474865        67.3445 
 455   0.0000       2.483581        67.5817 
 456   0.0000       2.505466        68.1772 
 457   0.0000       2.511584        68.3437 
 458   0.0000       2.519993        68.5725 
 459   0.0000       2.523288        68.6622 
 460   0.0000       2.536887        69.0322 
 461   0.0000       2.538379        69.0728 
 462   0.0000       2.547389        69.3180 
 463   0.0000       2.560583        69.6770 
 464   0.0000       2.567627        69.8687 
 465   0.0000       2.569785        69.9274 
 466   0.0000       2.582510        70.2737 
 467   0.0000       2.583637        70.3043 
 468   0.0000       2.601433        70.7886 
 469   0.0000       2.614672        71.1488 
 470   0.0000       2.615300        71.1659 
 471   0.0000       2.630278        71.5735 
 472   0.0000       2.658331        72.3369 
 473   0.0000       2.709878        73.7395 
 474   0.0000       2.751738        74.8786 
 475   0.0000       2.775709        75.5309 
 476   0.0000       2.794917        76.0536 
 477   0.0000       2.795995        76.0829 
 478   0.0000       2.862122        77.8823 
 479   0.0000       2.943278        80.0907 
 480   0.0000       2.957710        80.4834 
 481   0.0000       2.971653        80.8628 
 482   0.0000       3.071324        83.5750 
 483   0.0000       3.296272        89.6961 
 484   0.0000       3.431201        93.3677 
 485   0.0000       4.978775       135.4794 
 486   0.0000       4.985335       135.6579 
 487   0.0000       5.003494       136.1520 
 488   0.0000       5.010432       136.3408 
 489   0.0000       5.010828       136.3516 
 490   0.0000       5.020923       136.6263 
 491   0.0000       5.024623       136.7269 
 492   0.0000       5.025323       136.7460 
 493   0.0000       5.034521       136.9963 
 494   0.0000       5.047137       137.3396 
 495   0.0000       5.090170       138.5106 
 496   0.0000       5.096561       138.6845 
 497   0.0000       5.170568       140.6983 
 498   0.0000       5.199254       141.4789 
 499   0.0000       5.215317       141.9160 
 500   0.0000       5.227500       142.2475 
 501   0.0000       5.247552       142.7931 
 502   0.0000       5.248637       142.8227 
 503   0.0000       5.262148       143.1903 
 504   0.0000       5.283875       143.7816 
 505   0.0000       5.290244       143.9549 
 506   0.0000       5.298545       144.1807 
 507   0.0000       5.309074       144.4672 
 508   0.0000       5.316714       144.6752 
 509   0.0000       5.351461       145.6206 
 510   0.0000       5.367367       146.0535 
 511   0.0000       5.371085       146.1547 
 512   0.0000       5.380244       146.4039 
 513   0.0000       5.400512       146.9554 
 514   0.0000       5.445537       148.1806 
 515   0.0000       5.455448       148.4503 
 516   0.0000       5.479107       149.0941 
 517   0.0000       5.559120       151.2714 
 518   0.0000       5.563690       151.3957 
 519   0.0000       5.592548       152.1810 
 520   0.0000       5.632638       153.2719 
 521   0.0000       5.646050       153.6368 
 522   0.0000       5.652680       153.8172 
 523   0.0000       5.677903       154.5036 
 524   0.0000       5.738951       156.1648 
 525   0.0000       5.746178       156.3615 
 526   0.0000       5.782496       157.3497 
 527   0.0000       5.835607       158.7949 
 528   0.0000       5.853445       159.2803 
 529   0.0000       5.879860       159.9991 
 530   0.0000       5.929275       161.3438 
 531   0.0000       6.105695       166.1444 
 532   0.0000       6.280733       170.9074 
 533   0.0000       6.359916       173.0621 
 534   0.0000      29.617229       805.9258 
 535   0.0000      29.737542       809.1997 
 536   0.0000      29.810726       811.1911 
 537   0.0000      29.839619       811.9773 
 538   0.0000      29.855356       812.4055 
 539   0.0000      29.860382       812.5423 
 540   0.0000      29.956730       815.1641 
 541   0.0000      29.978711       815.7622 
 542   0.0000      29.999124       816.3177 
 543   0.0000      30.039093       817.4053 
 544   0.0000      30.075992       818.4093 
 545   0.0000      30.098530       819.0226 
 546   0.0000      30.105682       819.2173 
 547   0.0000      30.124193       819.7210 
 548   0.0000      30.133927       819.9858 
 549   0.0000      30.176178       821.1356 
 550   0.0000      30.222174       822.3872 
 551   0.0000      30.251084       823.1738 
 552   0.0000      30.257967       823.3611 
 553   0.0000      30.277215       823.8849 
 554   0.0000      30.298572       824.4660 
 555   0.0000      30.400891       827.2503 
 556   0.0000      30.507036       830.1387 
 557   0.0000      30.581021       832.1519 
 558   0.0000      36.604523       996.0597 
 559   0.0000      36.613361       996.3002 
 560   0.0000      36.628905       996.7232 
 561   0.0000      36.635587       996.9050 
 562   0.0000      36.639591       997.0140 
 563   0.0000      36.646553       997.2034 
 564   0.0000      36.651116       997.3276 
 565   0.0000      36.661050       997.5979 
 566   0.0000      36.672103       997.8987 
 567   0.0000      36.703457       998.7518 
 568   0.0000      36.717681       999.1389 
 569   0.0000      36.787994      1001.0522 
 570   0.0000      36.817986      1001.8683 
 571   0.0000      36.825605      1002.0757 
 572   0.0000      36.836114      1002.3616 
 573   0.0000      36.857694      1002.9489 
 574   0.0000      36.870357      1003.2934 
 575   0.0000      36.875912      1003.4446 
 576   0.0000      36.885182      1003.6968 
 577   0.0000      36.917929      1004.5879 
 578   0.0000      36.933897      1005.0224 
 579   0.0000      36.937376      1005.1171 
 580   0.0000      36.969949      1006.0035 
 581   0.0000      37.017662      1007.3018 
 582   0.0000      37.041731      1007.9568 

                 SPIN DOWN ORBITALS
  NO   OCC          E(Eh)            E(eV) 
   0   1.0000     -10.227756      -278.3114 
   1   1.0000     -10.223243      -278.1886 
   2   1.0000     -10.219999      -278.1003 
   3   1.0000     -10.210811      -277.8503 
   4   1.0000     -10.207637      -277.7639 
   5   1.0000     -10.205841      -277.7150 
   6   1.0000     -10.205728      -277.7120 
   7   1.0000     -10.205543      -277.7069 
   8   1.0000     -10.204623      -277.6819 
   9   1.0000     -10.204460      -277.6775 
  10   1.0000     -10.204177      -277.6698 
  11   1.0000     -10.202625      -277.6275 
  12   1.0000     -10.200096      -277.5587 
  13   1.0000     -10.198638      -277.5190 
  14   1.0000     -10.197992      -277.5015 
  15   1.0000     -10.194586      -277.4088 
  16   1.0000     -10.190324      -277.2928 
  17   1.0000     -10.188241      -277.2361 
  18   1.0000     -10.187866      -277.2259 
  19   1.0000     -10.184647      -277.1383 
  20   1.0000     -10.182755      -277.0869 
  21   1.0000     -10.182403      -277.0773 
  22   1.0000     -10.174936      -276.8741 
  23   1.0000     -10.173242      -276.8280 
  24   1.0000      -0.870083       -23.6761 
  25   1.0000      -0.863783       -23.5047 
  26   1.0000      -0.814256       -22.1570 
  27   1.0000      -0.796366       -21.6702 
  28   1.0000      -0.792662       -21.5694 
  29   1.0000      -0.778436       -21.1823 
  30   1.0000      -0.764697       -20.8085 
  31   1.0000      -0.751893       -20.4600 
  32   1.0000      -0.744000       -20.2453 
  33   1.0000      -0.725388       -19.7388 
  34   1.0000      -0.713199       -19.4071 
  35   1.0000      -0.694283       -18.8924 
  36   1.0000      -0.652604       -17.7583 
  37   1.0000      -0.642430       -17.4814 
  38   1.0000      -0.617533       -16.8039 
  39   1.0000      -0.610233       -16.6053 
  40   1.0000      -0.608396       -16.5553 
  41   1.0000      -0.591200       -16.0874 
  42   1.0000      -0.577666       -15.7191 
  43   1.0000      -0.558690       -15.2027 
  44   1.0000      -0.541950       -14.7472 
  45   1.0000      -0.529459       -14.4073 
  46   1.0000      -0.504340       -13.7238 
  47   1.0000      -0.489315       -13.3149 
  48   1.0000      -0.480456       -13.0739 
  49   1.0000      -0.475159       -12.9297 
  50   1.0000      -0.469626       -12.7792 
  51   1.0000      -0.458613       -12.4795 
  52   1.0000      -0.457695       -12.4545 
  53   1.0000      -0.438074       -11.9206 
  54   1.0000      -0.430268       -11.7082 
  55   1.0000      -0.427327       -11.6282 
  56   1.0000      -0.425975       -11.5914 
  57   1.0000      -0.424228       -11.5438 
  58   1.0000      -0.419284       -11.4093 
  59   1.0000      -0.410926       -11.1819 
  60   1.0000      -0.396231       -10.7820 
  61   1.0000      -0.390681       -10.6310 
  62   1.0000      -0.383153       -10.4261 
  63   1.0000      -0.376054       -10.2329 
  64   1.0000      -0.374172       -10.1817 
  65   1.0000      -0.363441        -9.8897 
  66   1.0000      -0.362896        -9.8749 
  67   1.0000      -0.355664        -9.6781 
  68   1.0000      -0.352306        -9.5867 
  69   1.0000      -0.351211        -9.5569 
  70   1.0000      -0.337168        -9.1748 
  71   1.0000      -0.331549        -9.0219 
[...]
  Y           0.5842651           -0.0003841            0.8115628
  Z          -0.0002431           -0.9999999           -0.0002983

Notes:  (1) The A matrix conforms to the "SAI" spin Hamiltonian convention.
        (2) Tensor is right-handed.

 -----------------------------------------------------------
 Nucleus  46H : A:ISTP=    1 I=  0.5 P=533.5514 MHz/au**3
                Q:ISTP=    2 I=  1.0 Q=  0.0029 barn     
 -----------------------------------------------------------
 Solving for nuclear perturbation:
Forming RHS of the CP-SCF equations         ... 
Calc. nucleus orbit integrals (SHARK)       ... done

------------------------------------------------------------------------------
                           ORCA CP-SCF CALCULATION
------------------------------------------------------------------------------

Input orbitals are from        ... EPRII.gbw
Input Perturbation             ... EPRII.pin.tmp
Wavefunction output            ... EPRII.pout.tmp
Perturbation mode              ... Imaginary perturbation
Solver                         ... POPLE
Max. number of iterations      ... 64
Convergence tolerance          ... 1.000e-03
Integral handling              ... Direct
DFT GridXC                     ... 1
COSX GridX                     ... 1
COSX IntAccX                   ... 3.067
COSX Algorithm                 ... Auto
Number of perturbations        ... 3
Number of operators            ... 2
Orbital ranges used for CP-SCF:
 Operator 0:  Orbitals   0... 84  to  85...582
 Operator 1:  Orbitals   0... 83  to  84...582
Variables per perturbation     ... 84246
DFT calculation                         ... on
XC functional terms                     ... off
Hybrid DFT                              ... on
   Exchange mixing (SCF)                ...  0.200
   Exchange mixing (CP-SCF)             ...  0.200
   GGA exch. scaling(SCF)               ...  0.720
   GGA exch. scaling (CP-SCF)           ...  0.720
   GGA corr. scaling (SCF)              ...  0.810
   GGA corr. scaling (CP-SCF)           ...  0.810

CP-SCF GRID
-----------

General Integration Accuracy     IntAcc      ... 3.467
Radial Grid Type                 RadialGrid  ... OptM3 with GC (2021)
Angular Grid (max. ang.)         AngularGrid ... 1 (Lebedev-50)
Angular grid pruning method      GridPruning ... 4 (adaptive)
Weight generation scheme         WeightScheme... Becke
Basis function cutoff            BFCut       ... 1.0000e-10
Integration weight cutoff        WCut        ... 1.0000e-14
Angular grids for H and He will be reduced by one unit
Partially contracted basis set               ... off
Rotationally invariant grid construction     ... off

Total number of grid points                  ...    31887
Total number of batches                      ...      520
Average number of points per batch           ...       61
Average number of grid points per atom       ...      651

CP-SCF GRIDX
------------

General Integration Accuracy     IntAcc      ... 3.067
Radial Grid Type                 RadialGrid  ... OptM3 with GC (2021)
Angular Grid (max. ang.)         AngularGrid ... 1 (Lebedev-50)
Angular grid pruning method      GridPruning ... 4 (adaptive)
Weight generation scheme         WeightScheme... Becke
Basis function cutoff            BFCut       ... 1.0000e-10
Integration weight cutoff        WCut        ... 1.0000e-14
Angular grids for H and He will be reduced by one unit
Partially contracted basis set               ... on
Rotationally invariant grid construction     ... off

Total number of grid points                  ...    14950
Total number of batches                      ...      265
Average number of points per batch           ...       56
Average number of grid points per atom       ...      305

Memory available               ... 850.2 MB
Memory needed per perturbation ...  20.0 MB
Perturbations treated per batch... 3
Number of batches              ... 1
     CP-SCF ITERATION   0:   4.5629e-02 (   2.2 sec   0/  3 done)
     CP-SCF ITERATION   1:   1.9283e-03 (   2.3 sec   0/  3 done)
     CP-SCF ITERATION   2:   1.3342e-04 (   2.3 sec   3/  3 done)
                    *** THE CP-SCF HAS CONVERGED ***

Forming final perturbed densities           ... done
Transforming perturbed density to AO basis  ... done

 Raw HFC matrix (all values in MHz): 
 -----------------------------------
                 1.3045              -0.2881              -0.0001
                -0.2879               0.1604               0.0000
                -0.0001               0.0000               0.4889

 A(FC)           0.6513               0.6513               0.6513
 A(SD)          -0.5592              -0.1625               0.7217
 A(ORB+DIA)     -0.0001               0.0001              -0.0001    A(PC) =  -0.0000
 A(ORB)         -0.0001              -0.0000              -0.0001    A(PC) =  -0.0001
 A(DIA)         -0.0000               0.0001               0.0000    A(PC) =   0.0000
             ----------           ----------           ----------
 A(Tot)          0.0920               0.4889               1.3729    A(iso)=    0.6513
 Orientation: 
  X           0.2311610           -0.0001004           -0.9729155
  Y           0.9729155           -0.0000052            0.2311611
  Z          -0.0000283           -1.0000000            0.0000964

Notes:  (1) The A matrix conforms to the "SAI" spin Hamiltonian convention.
        (2) Tensor is right-handed.

 -----------------------------------------------------------
 Nucleus  47H : A:ISTP=    1 I=  0.5 P=533.5514 MHz/au**3
                Q:ISTP=    2 I=  1.0 Q=  0.0029 barn     
 -----------------------------------------------------------
 Solving for nuclear perturbation:
Forming RHS of the CP-SCF equations         ... 
Calc. nucleus orbit integrals (SHARK)       ... done

------------------------------------------------------------------------------
                           ORCA CP-SCF CALCULATION
------------------------------------------------------------------------------

Input orbitals are from        ... EPRII.gbw
Input Perturbation             ... EPRII.pin.tmp
Wavefunction output            ... EPRII.pout.tmp
Perturbation mode              ... Imaginary perturbation
Solver                         ... POPLE
Max. number of iterations      ... 64
Convergence tolerance          ... 1.000e-03
Integral handling              ... Direct
DFT GridXC                     ... 1
COSX GridX                     ... 1
COSX IntAccX                   ... 3.067
COSX Algorithm                 ... Auto
Number of perturbations        ... 3
Number of operators            ... 2
Orbital ranges used for CP-SCF:
 Operator 0:  Orbitals   0... 84  to  85...582
 Operator 1:  Orbitals   0... 83  to  84...582
Variables per perturbation     ... 84246
DFT calculation                         ... on
XC functional terms                     ... off
Hybrid DFT                              ... on
   Exchange mixing (SCF)                ...  0.200
   Exchange mixing (CP-SCF)             ...  0.200
   GGA exch. scaling(SCF)               ...  0.720
   GGA exch. scaling (CP-SCF)           ...  0.720
   GGA corr. scaling (SCF)              ...  0.810
   GGA corr. scaling (CP-SCF)           ...  0.810

CP-SCF GRID
-----------

General Integration Accuracy     IntAcc      ... 3.467
Radial Grid Type                 RadialGrid  ... OptM3 with GC (2021)
Angular Grid (max. ang.)         AngularGrid ... 1 (Lebedev-50)
Angular grid pruning method      GridPruning ... 4 (adaptive)
Weight generation scheme         WeightScheme... Becke
Basis function cutoff            BFCut       ... 1.0000e-10
Integration weight cutoff        WCut        ... 1.0000e-14
Angular grids for H and He will be reduced by one unit
Partially contracted basis set               ... off
Rotationally invariant grid construction     ... off

Total number of grid points                  ...    31887
Total number of batches                      ...      520
Average number of points per batch           ...       61
Average number of grid points per atom       ...      651

CP-SCF GRIDX
------------

General Integration Accuracy     IntAcc      ... 3.067
Radial Grid Type                 RadialGrid  ... OptM3 with GC (2021)
Angular Grid (max. ang.)         AngularGrid ... 1 (Lebedev-50)
Angular grid pruning method      GridPruning ... 4 (adaptive)
Weight generation scheme         WeightScheme... Becke
Basis function cutoff            BFCut       ... 1.0000e-10
Integration weight cutoff        WCut        ... 1.0000e-14
Angular grids for H and He will be reduced by one unit
Partially contracted basis set               ... on
Rotationally invariant grid construction     ... off

Total number of grid points                  ...    14950
Total number of batches                      ...      265
Average number of points per batch           ...       56
Average number of grid points per atom       ...      305

Memory available               ... 849.5 MB
Memory needed per perturbation ...  20.0 MB
Perturbations treated per batch... 3
Number of batches              ... 1
     CP-SCF ITERATION   0:   4.5647e-02 (   2.2 sec   0/  3 done)
     CP-SCF ITERATION   1:   1.9267e-03 (   2.3 sec   0/  3 done)
     CP-SCF ITERATION   2:   1.3618e-04 (   2.3 sec   3/  3 done)
                    *** THE CP-SCF HAS CONVERGED ***

Forming final perturbed densities           ... done
Transforming perturbed density to AO basis  ... done

 Raw HFC matrix (all values in MHz): 
 -----------------------------------
                 1.1784               0.3751              -0.0001
                 0.3749               0.2387               0.0001
                -0.0001               0.0001               0.5348

 A(FC)           0.6507               0.6507               0.6507
 A(SD)          -0.5432              -0.1160               0.6591
 A(ORB+DIA)     -0.0001               0.0001              -0.0001    A(PC) =  -0.0001
 A(ORB)         -0.0001               0.0000              -0.0002    A(PC) =  -0.0001
 A(DIA)         -0.0000               0.0001               0.0000    A(PC) =   0.0000
             ----------           ----------           ----------
 A(Tot)          0.1074               0.5348               1.3096    A(iso)=    0.6506
 Orientation: 
  X          -0.3305149           -0.0000011            0.9438008
  Y           0.9438008            0.0001840            0.3305149
  Z          -0.0001741            1.0000000           -0.0000598

Notes:  (1) The A matrix conforms to the "SAI" spin Hamiltonian convention.
        (2) Tensor is right-handed.

 -----------------------------------------------------------
 Nucleus  48H : A:ISTP=    1 I=  0.5 P=533.5514 MHz/au**3
                Q:ISTP=    2 I=  1.0 Q=  0.0029 barn     
 -----------------------------------------------------------
 Solving for nuclear perturbation:
Forming RHS of the CP-SCF equations         ... 
Calc. nucleus orbit integrals (SHARK)       ... done

------------------------------------------------------------------------------
                           ORCA CP-SCF CALCULATION
------------------------------------------------------------------------------

Input orbitals are from        ... EPRII.gbw
Input Perturbation             ... EPRII.pin.tmp
Wavefunction output            ... EPRII.pout.tmp
Perturbation mode              ... Imaginary perturbation
Solver                         ... POPLE
Max. number of iterations      ... 64
Convergence tolerance          ... 1.000e-03
Integral handling              ... Direct
DFT GridXC                     ... 1
COSX GridX                     ... 1
COSX IntAccX                   ... 3.067
COSX Algorithm                 ... Auto
Number of perturbations        ... 3
Number of operators            ... 2
Orbital ranges used for CP-SCF:
 Operator 0:  Orbitals   0... 84  to  85...582
 Operator 1:  Orbitals   0... 83  to  84...582
Variables per perturbation     ... 84246
DFT calculation                         ... on
XC functional terms                     ... off
Hybrid DFT                              ... on
   Exchange mixing (SCF)                ...  0.200
   Exchange mixing (CP-SCF)             ...  0.200
   GGA exch. scaling(SCF)               ...  0.720
   GGA exch. scaling (CP-SCF)           ...  0.720
   GGA corr. scaling (SCF)              ...  0.810
   GGA corr. scaling (CP-SCF)           ...  0.810

CP-SCF GRID
-----------

General Integration Accuracy     IntAcc      ... 3.467
Radial Grid Type                 RadialGrid  ... OptM3 with GC (2021)
Angular Grid (max. ang.)         AngularGrid ... 1 (Lebedev-50)
Angular grid pruning method      GridPruning ... 4 (adaptive)
Weight generation scheme         WeightScheme... Becke
Basis function cutoff            BFCut       ... 1.0000e-10
Integration weight cutoff        WCut        ... 1.0000e-14
Angular grids for H and He will be reduced by one unit
Partially contracted basis set               ... off
Rotationally invariant grid construction     ... off

Total number of grid points                  ...    31887
Total number of batches                      ...      520
Average number of points per batch           ...       61
Average number of grid points per atom       ...      651

CP-SCF GRIDX
------------

General Integration Accuracy     IntAcc      ... 3.067
Radial Grid Type                 RadialGrid  ... OptM3 with GC (2021)
Angular Grid (max. ang.)         AngularGrid ... 1 (Lebedev-50)
Angular grid pruning method      GridPruning ... 4 (adaptive)
Weight generation scheme         WeightScheme... Becke
Basis function cutoff            BFCut       ... 1.0000e-10
Integration weight cutoff        WCut        ... 1.0000e-14
Angular grids for H and He will be reduced by one unit
Partially contracted basis set               ... on
Rotationally invariant grid construction     ... off

Total number of grid points                  ...    14950
Total number of batches                      ...      265
Average number of points per batch           ...       56
Average number of grid points per atom       ...      305

Memory available               ... 848.7 MB
Memory needed per perturbation ...  20.0 MB
Perturbations treated per batch... 3
Number of batches              ... 1
     CP-SCF ITERATION   0:   4.1801e-02 (   2.2 sec   0/  3 done)
     CP-SCF ITERATION   1:   1.6935e-03 (   2.3 sec   1/  3 done)
     CP-SCF ITERATION   2:   7.7875e-05 (   1.9 sec   3/  3 done)
                    *** THE CP-SCF HAS CONVERGED ***

Forming final perturbed densities           ... done
Transforming perturbed density to AO basis  ... done

 Raw HFC matrix (all values in MHz): 
 -----------------------------------
                -0.1557              -0.0962              -0.0001
                -0.0961              -0.3204              -0.0000
                -0.0001              -0.0000              -0.2626

 A(FC)          -0.2463              -0.2463              -0.2463
 A(SD)           0.1348              -0.0164              -0.1184
 A(ORB+DIA)      0.0001               0.0000               0.0000    A(PC) =   0.0000
 A(ORB)          0.0000               0.0000               0.0000    A(PC) =   0.0000
 A(DIA)          0.0000               0.0000               0.0000    A(PC) =   0.0000
             ----------           ----------           ----------
 A(Tot)         -0.1114              -0.2626              -0.3646    A(iso)=   -0.2462
 Orientation: 
  X           0.9084207           -0.0001565            0.4180571
  Y          -0.4180570            0.0004315            0.9084207
  Z          -0.0003225           -0.9999999            0.0003266

Notes:  (1) The A matrix conforms to the "SAI" spin Hamiltonian convention.
        (2) Tensor is right-handed.


--------------------------------------------------------------------------------
----------------------------------------------------------------------------
                           ORCA EULER ANGLE PROGRAM
----------------------------------------------------------------------------

Only g-tensor available        -->  using g-tensor as reference tensor

Reference tensor               ...  g

g-tensor ordering              ...  |g_min> --> |gx>
                                    |g_mid> --> |gy>
                                    |g_max> --> |gz>

A- and EFG-tensor ordering     ...  the axes |Ax>, |Qx>, |Ay>, etc. are assigned
                                    such that the Euler rotation is minimal. You
                                    can find the respective eigenvalues as Ax,
                                    EFGx, Ay, etc. in the tables below.
                                    The relation of |Ax>, |Ay>,  etc. to Amin, Amid, etc.
                                    (as printed in the ORCA EPR/NMR CALCULATION Output)
                                    is obtained in the detailed printout.

Euler rotation around          ...  z - y - z
   First rotation              -->  by alpha around z
   Second rotation             -->  by beta around y'
   Third rotation              -->  by gamma around z''
   Positive / Negative angle   -->  clockwise / counterclockwise rotation

Plot EFG-tensors                    (-)
Plot HFC-tensors                    (-)
Detailed Printout                   (-)

-------------------------------------------------------------------------
          Euler rotation of hyperfine tensor to g-tensor
-------------------------------------------------------------------------

-------------------------------------------------------------------
 Atom  |   Alpha    Beta    Gamma   |   Ax       Ay       Az 
       |          [degrees]         |           [MHz]         
-------------------------------------------------------------------
  9H      -89.9      4.3     89.9     -17.23    -7.98   -20.68
 10H      -90.0      7.0     90.0       4.43     5.15     9.92
 12H      -90.0     44.5     90.0     -49.52   -74.67   -20.54
 14H     -162.9     13.1   -178.9      69.47    79.19    71.00
 15H      -17.1     13.0     -1.0      69.31    79.03    70.83
 17H      156.2     27.8   -121.7      -3.38    -3.21     3.01
 18H       23.8     27.7    -58.3      -3.37    -3.21     3.01
 20H      -50.3     48.4     26.3      -0.02     2.35     0.10
 21H     -129.8     48.6    153.8      -0.02     2.35     0.10
 23H      -35.8     17.4     -2.6      24.47    25.08    28.23
 24H     -144.2     17.4   -177.3      24.46    25.08    28.22
 26H      -98.4     31.0     85.4      -1.06     0.94    -0.93
 27H      -81.6     31.0     94.6      -1.06     0.94    -0.93
 29H      105.2     29.4    -72.1      -0.09    -0.14     0.84
 30H       74.9     29.5   -107.9      -0.09    -0.14     0.84
 32H      -85.3     43.5     93.7      -0.12     0.39    -0.10
 33H      -94.7     43.5     86.3      -0.12     0.39    -0.10
 35H       90.2     39.5    -90.0      -8.82    -3.44   -11.74
 36H       89.4     38.1    -90.0      -0.84    -0.86     0.72
 37H       90.1     36.7    -90.0      -0.13    -0.14     0.24
 44H       90.0     44.0    -90.0       0.62     0.39     1.04
 45H      -90.1      6.9     90.1      -0.25    -0.40    -0.09
 46H       90.0     34.0    -90.0       0.49     1.37     0.09
 47H      -90.0     23.4     90.0       0.53     0.11     1.31
 48H       90.0     22.6    -89.9      -0.26    -0.11    -0.36
-------------------------------------------------------------------


Maximum memory used throughout the entire EPRNMR-calculation: 283.4 MB

Timings for individual modules:

Sum of individual times         ...     5487.953 sec (=  91.466 min)
GTO integral calculation        ...        5.866 sec (=   0.098 min)   0.1 %
Spin-Orbit-Coupling Matrices    ...       14.391 sec (=   0.240 min)   0.3 %
SCF iterations                  ...      122.164 sec (=   2.036 min)   2.2 %
EPR/NMR calculation             ...     5345.532 sec (=  89.092 min)  97.4 %
                             ****ORCA TERMINATED NORMALLY****
TOTAL RUN TIME: 0 days 1 hours 31 minutes 32 seconds 72 msec
