
                                 *****************
                                 * O   R   C   A *
                                 *****************

           --- An Ab Initio, DFT and Semiempirical electronic structure package ---

                  #######################################################
                  #                        -***-                        #
                  #          Department of theory and spectroscopy      #
                  #               Directorship: Frank Neese             #
                  #        Max Planck Institute fuer Kohlenforschung    #
                  #                Kaiser Wilhelm Platz 1               #
                  #                 D-45470 Muelheim/Ruhr               #
                  #                      Germany                        #
                  #                                                     #
                  #                  All rights reserved                #
                  #                        -***-                        #
                  #######################################################


                         Program Version 4.2.1 -  RELEASE  -


 With contributions from (in alphabetic order):
   Daniel Aravena         : Magnetic Suceptibility
   Michael Atanasov       : Ab Initio Ligand Field Theory (pilot matlab implementation)
   Alexander A. Auer      : GIAO ZORA, VPT2
   Ute Becker             : Parallelization
   Giovanni Bistoni       : ED, misc. LED, open-shell LED, HFLD
   Martin Brehm           : Molecular dynamics
   Dmytro Bykov           : SCF Hessian
   Vijay G. Chilkuri      : MRCI spin determinant printing, contributions to CSF-ICE
   Dipayan Datta          : RHF DLPNO-CCSD density
   Achintya Kumar Dutta   : EOM-CC, STEOM-CC
   Dmitry Ganyushin       : Spin-Orbit,Spin-Spin,Magnetic field MRCI
   Miquel Garcia          : C-PCM Hessian, Gaussian charge scheme
   Yang Guo               : DLPNO-NEVPT2, CIM, IAO-localization
   Andreas Hansen         : Spin unrestricted coupled pair/coupled cluster methods
   Benjamin Helmich-Paris : CASSCF linear response (MC-RPA)
   Lee Huntington         : MR-EOM, pCC
   Robert Izsak           : Overlap fitted RIJCOSX, COSX-SCS-MP3, EOM
   Christian Kollmar      : KDIIS, OOCD, Brueckner-CCSD(T), CCSD density
   Simone Kossmann        : Meta GGA functionals, TD-DFT gradient, OOMP2, MP2 Hessian
   Martin Krupicka        : AUTO-CI
   Lucas Lang             : DCDCAS
   Dagmar Lenk            : GEPOL surface, SMD
   Dimitrios Liakos       : Extrapolation schemes; Compound Job, initial MDCI parallelization
   Dimitrios Manganas     : Further ROCIS development; embedding schemes
   Dimitrios Pantazis     : SARC Basis sets
   Taras Petrenko         : DFT Hessian,TD-DFT gradient, ASA, ECA, R-Raman, ABS, FL, XAS/XES, NRVS
   Peter Pinski           : DLPNO-MP2, DLPNO-MP2 Gradient
   Christoph Reimann      : Effective Core Potentials
   Marius Retegan         : Local ZFS, SOC
   Christoph Riplinger    : Optimizer, TS searches, QM/MM, DLPNO-CCSD(T), (RO)-DLPNO pert. Triples
   Tobias Risthaus        : Range-separated hybrids, TD-DFT gradient, RPA, STAB
   Michael Roemelt        : Original ROCIS implementation
   Masaaki Saitow         : Open-shell DLPNO-CCSD energy and density
   Barbara Sandhoefer     : DKH picture change effects
   Avijit Sen             : IP-ROCIS
   Kantharuban Sivalingam : CASSCF convergence, NEVPT2, FIC-MRCI
   Bernardo de Souza      : ESD, SOC TD-DFT
   Georgi Stoychev        : AutoAux, RI-MP2 NMR
   Willem Van den Heuvel  : Paramagnetic NMR
   Boris Wezisla          : Elementary symmetry handling
   Frank Wennmohs         : Technical directorship


 We gratefully acknowledge several colleagues who have allowed us to
 interface, adapt or use parts of their codes:
   Stefan Grimme, W. Hujo, H. Kruse,             : VdW corrections, initial TS optimization,
                  C. Bannwarth                     DFT functionals, gCP, sTDA/sTD-DF
   Ed Valeev, F. Pavosevic, A. Kumar             : LibInt (2-el integral package), F12 methods
   Garnet Chan, S. Sharma, J. Yang, R. Olivares  : DMRG
   Ulf Ekstrom                                   : XCFun DFT Library
   Mihaly Kallay                                 : mrcc  (arbitrary order and MRCC methods)
   Andreas Klamt, Michael Diedenhofen            : otool_cosmo (COSMO solvation model)
   Jiri Pittner, Ondrej Demel                    : Mk-CCSD
   Frank Weinhold                                : gennbo (NPA and NBO analysis)
   Christopher J. Cramer and Donald G. Truhlar   : smd solvation model
   Lars Goerigk                                  : TD-DFT with DH, B97 family of functionals
   V. Asgeirsson, H. Jonsson                     : NEB implementation
   FAccTs GmbH                                   : IRC, NEB, NEB-TS, Multilevel, MM, QM/MM, CI optimization
   S Lehtola, MJT Oliveira, MAL Marques          : LibXC Library


 Your calculation uses the libint2 library for the computation of 2-el integrals
 For citations please refer to: http://libint.valeyev.net

 Your ORCA version has been built with support for libXC version: 4.2.3
 For citations please refer to: https://tddft.org/programs/libxc/

 This ORCA versions uses:
   CBLAS   interface :  Fast vector & matrix operations
   LAPACKE interface :  Fast linear algebra routines
   SCALAPACK package :  Parallel linear algebra routines




***************************************
The coordinates will be read from file: Rhop.xyz
***************************************


----- Orbital basis set information -----
Your calculation utilizes the basis: cc-pVDZ 
       H, B-Ne : Obtained from the ccRepo (grant-hill.group.shef.ac.uk/ccrepo) Feb. 2017
                 T. H. Dunning, Jr., J. Chem. Phys. 90, 1007 (1989)
            He : Obtained from the ccRepo (grant-hill.group.shef.ac.uk/ccrepo) Feb. 2017
                 D. E. Woon, T. H. Dunning, Jr., J. Chem. Phys. 100, 2975 (1994)
  Li-Be, Na-Mg : Obtained from the ccRepo (grant-hill.group.shef.ac.uk/ccrepo) Feb. 2017
                 B. P. Prascher, D. E. Woon, K. A. Peterson, T. H. Dunning, Jr., A. K. Wilson, Theor. Chem. Acc. 128, 69 (2011)
         Al-Ar : Obtained from the ccRepo (grant-hill.group.shef.ac.uk/ccrepo) Feb. 2017
                 D. E. Woon, T. H. Dunning, Jr., J. Chem. Phys. 98, 1358 (1993)
            Ca : Obtained from the Peterson Research Group Website (tyr0.chem.wsu.edu/~kipeters) Feb. 2017
                 J. Koput, K. A. Peterson, J. Phys. Chem. 106, 9595 (2002)
         Sc-Zn : Obtained from the ccRepo (grant-hill.group.shef.ac.uk/ccrepo) Feb. 2017
                 N. B. Balabanov, K. A. Peterson, J. Chem. Phys. 123, 064107 (2005)
                 N. B. Balabanov, K. A. Peterson, J. Chem. Phys. 125, 074110 (2006)
         Ga-Kr : Obtained from the ccRepo (grant-hill.group.shef.ac.uk/ccrepo) Feb. 2017
                 A. K. Wilson, D. E. Woon, K. A. Peterson, T. H. Dunning, Jr., J. Chem. Phys. 110, 7667 (1999)

================================================================================
                                        WARNINGS
                       Please study these warnings very carefully!
================================================================================


WARNING: your system is open-shell and RHF/RKS was chosen
  ===> : WILL SWITCH to UHF/UKS


WARNING: Geometry Optimization
  ===> : Switching off AutoStart
         For restart on a previous wavefunction, please use MOREAD

INFO   : the flag for use of LIBINT has been found!

================================================================================
                                       INPUT FILE
================================================================================
NAME = opt.inp
|  1> ! B3LYP cc-pVDZ OPT
|  2> %pal nprocs 16 end
|  3> *XYZFile 0 2 Rhop.xyz
|  4> 
|  5>                          ****END OF INPUT****
================================================================================

                       *****************************
                       * Geometry Optimization Run *
                       *****************************

Geometry optimization settings:
Update method            Update   .... BFGS
Choice of coordinates    CoordSys .... Z-matrix Internals
Initial Hessian          InHess   .... Almoef's Model

Convergence Tolerances:
Energy Change            TolE     ....  5.0000e-06 Eh
Max. Gradient            TolMAXG  ....  3.0000e-04 Eh/bohr
RMS Gradient             TolRMSG  ....  1.0000e-04 Eh/bohr
Max. Displacement        TolMAXD  ....  4.0000e-03 bohr
RMS Displacement         TolRMSD  ....  2.0000e-03 bohr
Strict Convergence                ....  False
------------------------------------------------------------------------------
                        ORCA OPTIMIZATION COORDINATE SETUP
------------------------------------------------------------------------------

The optimization will be done in new redundant internal coordinates
Making redundant internal coordinates   ...  (new redundants) done
Evaluating the initial hessian          ...  (Almloef) done
Evaluating the coordinates              ...  done
Calculating the B-matrix                .... done
Calculating the G-matrix                .... done
Diagonalizing the G-matrix              .... done
Small eigenvalue found = 7.160e-04
Small eigenvalue found = 1.975e-03
Small eigenvalue found = 5.871e-03
Small eigenvalue found = 8.380e-03
Small eigenvalue found = 1.623e-02
Small eigenvalue found = 1.884e-02
Small eigenvalue found = 1.997e-02
Small eigenvalue found = 2.415e-02
Small eigenvalue found = 2.978e-02
Small eigenvalue found = 2.988e-02
The first mode is                       ....  111
The number of degrees of freedom        ....  141

    -----------------------------------------------------------------
                    Redundant Internal Coordinates


    -----------------------------------------------------------------
         Definition                    Initial Value    Approx d2E/dq
    -----------------------------------------------------------------
      1. B(C   1,C   0)                  1.2172         1.178656   
      2. B(C   3,C   1)                  1.4278         0.543741   
      3. B(C   4,C   3)                  1.4428         0.514683   
      4. B(C   5,C   4)                  1.4235         0.552535   
      5. B(C   6,C   2)                  1.4340         0.531533   
      6. B(C   6,C   5)                  1.3957         0.611833   
      7. B(C   7,C   6)                  1.4292         0.540935   
      8. B(C   8,C   7)                  1.3974         0.608073   
      9. B(C   8,C   3)                  1.4052         0.590812   
     10. B(H   9,C   5)                  1.0901         0.360008   
     11. B(H  10,C   8)                  1.0898         0.360398   
     12. B(C  11,C   4)                  1.4128         0.574574   
     13. B(H  12,C  11)                  1.0936         0.355345   
     14. B(C  13,C  11)                  1.4992         0.418315   
     15. B(H  14,C  13)                  1.1099         0.334678   
     16. B(H  15,C  13)                  1.1099         0.334653   
     17. B(C  16,C  13)                  1.5338         0.368386   
     18. B(H  17,C  16)                  1.1056         0.340021   
     19. B(H  18,C  16)                  1.1057         0.339976   
     20. B(C  19,C  16)                  1.5295         0.374248   
     21. B(H  20,C  19)                  1.1040         0.342109   
     22. B(H  21,C  19)                  1.1040         0.342108   
     23. B(C  22,C   7)                  1.5148         0.395031   
     24. B(H  23,C  22)                  1.1066         0.338833   
     25. B(H  24,C  22)                  1.1065         0.338942   
     26. B(C  25,C  22)                  1.5307         0.372570   
     27. B(H  26,C  25)                  1.1061         0.339419   
     28. B(H  27,C  25)                  1.1061         0.339476   
     29. B(C  28,C  25)                  1.5331         0.369353   
     30. B(H  29,C  28)                  1.1063         0.339204   
     31. B(H  30,C  28)                  1.1062         0.339244   
     32. B(C  31,C  28)                  1.5303         0.373217   
     33. B(H  32,C  31)                  1.1040         0.342076   
     34. B(H  33,C  31)                  1.1040         0.342061   
     35. B(C  34,C   2)                  1.2158         1.184821   
     36. B(H  35,C   0)                  1.0725         0.384019   
     37. B(H  36,C  19)                  1.1018         0.344856   
     38. B(H  37,C  31)                  1.1019         0.344635   
     39. B(C  38,C  34)                  1.4300         0.539413   
     40. B(C  39,C  38)                  1.4428         0.514683   
     41. B(C  40,C  39)                  1.4235         0.552535   
     42. B(C  41,C  40)                  1.3957         0.611833   
     43. B(C  42,C  41)                  1.4292         0.540935   
     44. B(C  43,C  42)                  1.3974         0.608073   
     45. B(C  43,C  38)                  1.4052         0.590812   
     46. B(H  44,C  41)                  1.0550         0.409482   
     47. B(H  45,C  42)                  1.0205         0.464807   
     48. B(H  46,C  39)                  1.0205         0.464807   
     49. B(H  47,C  43)                  1.0741         0.381817   
     50. B(H  48,C  40)                  1.0741         0.381817   
     51. L(C   1,C   0,H  35, 2)       179.6801         0.398687   
     52. L(C   1,C   0,H  35, 1)       180.3543         0.398687   
     53. L(C   0,C   1,C   3,C   8, 2) 179.6901         0.476390   
     54. L(C   0,C   1,C   3,C   8, 1) 179.0372         0.476390   
     55. L(C   6,C   2,C  34,C   5, 2) 179.8533         0.474859   
     56. L(C   6,C   2,C  34,C   5, 1) 179.8555         0.474859   
     57. A(C   1,C   3,C   8)          118.8233         0.420330   
     58. A(C   4,C   3,C   8)          120.1218         0.416237   
     59. A(C   1,C   3,C   4)          121.0549         0.410145   
     60. A(C   3,C   4,C   5)          116.4223         0.411313   
     61. A(C   5,C   4,C  11)          121.7838         0.419445   
     62. A(C   3,C   4,C  11)          121.7938         0.414179   
     63. A(C   4,C   5,H   9)          119.2367         0.346102   
     64. A(C   4,C   5,C   6)          122.6129         0.424177   
     65. A(C   6,C   5,H   9)          118.1504         0.352103   
     66. A(C   5,C   6,C   7)          120.5295         0.422572   
     67. A(C   2,C   6,C   5)          119.0705         0.421250   
     68. A(C   2,C   6,C   7)          120.4000         0.412116   
     69. A(C   8,C   7,C  22)          122.8693         0.399231   
     70. A(C   6,C   7,C  22)          119.7097         0.391124   
     71. A(C   6,C   7,C   8)          117.4210         0.422106   
     72. A(C   3,C   8,H  10)          117.4561         0.350093   
     73. A(C   7,C   8,H  10)          119.6515         0.351800   
     74. A(C   3,C   8,C   7)          122.8924         0.428823   
     75. A(C   4,C  11,C  13)          124.8752         0.399273   
     76. A(H  12,C  11,C  13)          117.9036         0.329696   
     77. A(C   4,C  11,H  12)          117.2212         0.347624   
     78. A(H  15,C  13,C  16)          109.1700         0.319716   
     79. A(H  14,C  13,C  16)          109.1529         0.319720   
     80. A(C  11,C  13,C  16)          113.5294         0.369577   
     81. A(H  14,C  13,H  15)          104.6262         0.284257   
     82. A(C  11,C  13,H  15)          110.0013         0.326450   
     83. A(C  11,C  13,H  14)          109.9769         0.326454   
     84. A(C  13,C  16,C  19)          113.0930         0.362596   
     85. A(H  17,C  16,H  18)          106.0457         0.285659   
     86. A(C  13,C  16,H  18)          108.9840         0.320542   
     87. A(C  13,C  16,H  17)          109.0012         0.320548   
     88. A(H  18,C  16,C  19)          109.7373         0.321370   
     89. A(H  17,C  16,C  19)          109.7323         0.321377   
     90. A(H  20,C  19,H  21)          107.3439         0.286210   
     91. A(C  16,C  19,H  21)          111.3091         0.321700   
     92. A(C  16,C  19,H  20)          111.3141         0.321700   
     93. A(H  21,C  19,H  36)          107.6188         0.286568   
     94. A(H  20,C  19,H  36)          107.6202         0.286568   
     95. A(C  16,C  19,H  36)          111.4297         0.322121   
     96. A(H  24,C  22,C  25)          109.2242         0.320974   
     97. A(H  23,C  22,C  25)          109.2386         0.320957   
     98. A(C   7,C  22,C  25)          116.8702         0.366672   
     99. A(H  23,C  22,H  24)          104.3305         0.285368   
    100. A(C   7,C  22,H  24)          108.2171         0.324068   
    101. A(C   7,C  22,H  23)          108.2276         0.324051   
    102. A(H  27,C  25,C  28)          109.0253         0.320602   
    103. A(H  26,C  25,C  28)          109.0423         0.320593   
    104. A(C  22,C  25,C  28)          112.6424         0.362480   
    105. A(H  26,C  25,H  27)          106.2170         0.285515   
    106. A(C  22,C  25,H  27)          109.8612         0.321057   
    107. A(C  22,C  25,H  26)          109.8429         0.321048   
    108. A(H  30,C  28,C  31)          109.5634         0.321112   
    109. A(H  29,C  28,C  31)          109.5687         0.321106   
    110. A(C  25,C  28,C  31)          113.1343         0.362587   
    111. A(H  29,C  28,H  30)          105.8747         0.285456   
    112. A(C  25,C  28,H  30)          109.2204         0.320566   
    113. A(C  25,C  28,H  29)          109.2212         0.320560   
    114. A(H  32,C  31,H  33)          107.3490         0.286200   
    115. A(C  28,C  31,H  33)          111.3067         0.321547   
    116. A(C  28,C  31,H  32)          111.3073         0.321549   
    117. A(H  33,C  31,H  37)          107.5846         0.286533   
    118. A(H  32,C  31,H  37)          107.5827         0.286535   
    119. A(C  28,C  31,H  37)          111.5012         0.321942   
    120. L(C   2,C  34,C  38,C  39, 2) 180.1623         0.476146   
    121. L(C   2,C  34,C  38,C  39, 1) 181.3210         0.476146   
    122. A(C  39,C  38,C  43)          120.1218         0.416237   
    123. A(C  34,C  38,C  43)          121.0901         0.419731   
    124. A(C  34,C  38,C  39)          118.7881         0.409565   
    125. A(C  40,C  39,H  46)          121.9768         0.361408   
    126. A(C  38,C  39,H  46)          121.6008         0.357067   
    127. A(C  38,C  39,C  40)          116.4223         0.411313   
    128. A(C  41,C  40,H  48)          119.7434         0.355629   
    129. A(C  39,C  40,H  48)          117.6436         0.349547   
    130. A(C  39,C  40,C  41)          122.6129         0.424177   
    131. A(C  42,C  41,H  44)          119.2234         0.352437   
    132. A(C  40,C  41,H  44)          120.2471         0.359884   
    133. A(C  40,C  41,C  42)          120.5295         0.422572   
    134. A(C  43,C  42,H  45)          121.4134         0.367377   
    135. A(C  41,C  42,H  45)          121.1656         0.360103   
    136. A(C  41,C  42,C  43)          117.4210         0.422106   
    137. A(C  42,C  43,H  47)          118.2071         0.355257   
    138. A(C  38,C  43,H  47)          118.9005         0.353527   
    139. A(C  38,C  43,C  42)          122.8924         0.428823   
    140. D(C  11,C   4,C   3,C   8)   -179.9286         0.018058   
    141. D(C   5,C   4,C   3,C   1)   -179.9219         0.018058   
    142. D(C   5,C   4,C   3,C   8)      0.0532         0.018058   
    143. D(C  11,C   4,C   3,C   1)      0.0962         0.018058   
    144. D(H   9,C   5,C   4,C  11)     -0.0374         0.020892   
    145. D(C   6,C   5,C   4,C  11)    179.9444         0.020892   
    146. D(H   9,C   5,C   4,C   3)    179.9808         0.020892   
    147. D(C   6,C   5,C   4,C   3)     -0.0375         0.020892   
    148. D(C   7,C   6,C   5,C   4)      0.0043         0.025862   
    149. D(C   7,C   6,C   5,H   9)    179.9862         0.025862   
    150. D(C   2,C   6,C   5,H   9)      0.0093         0.025862   
    151. D(C   2,C   6,C   5,C   4)   -179.9727         0.025862   
    152. D(C  22,C   7,C   6,C   2)     -0.0188         0.019996   
    153. D(C  22,C   7,C   6,C   5)   -179.9954         0.019996   
    154. D(C   8,C   7,C   6,C   5)      0.0139         0.019996   
    155. D(C   8,C   7,C   6,C   2)    179.9906         0.019996   
    156. D(H  10,C   8,C   7,C   6)    179.9822         0.025528   
    157. D(H  10,C   8,C   7,C  22)     -0.0082         0.025528   
    158. D(C   3,C   8,C   7,C  22)   -179.9872         0.025528   
    159. D(H  10,C   8,C   3,C   4)    179.9827         0.024025   
    160. D(C   7,C   8,C   3,C   4)     -0.0378         0.024025   
    161. D(C   3,C   8,C   7,C   6)      0.0031         0.025528   
    162. D(C   7,C   8,C   3,C   1)    179.9378         0.024025   
    163. D(H  10,C   8,C   3,C   1)     -0.0416         0.024025   
    164. D(C  13,C  11,C   4,C   5)     -0.0109         0.022662   
    165. D(C  13,C  11,C   4,C   3)    179.9700         0.022662   
    166. D(H  12,C  11,C   4,C   5)   -179.9850         0.022662   
    167. D(H  12,C  11,C   4,C   3)     -0.0041         0.022662   
    168. D(H  15,C  13,C  11,C   4)     57.2898         0.012943   
    169. D(H  14,C  13,C  11,H  12)    122.5402         0.012943   
    170. D(H  14,C  13,C  11,C   4)    -57.4338         0.012943   
    171. D(C  16,C  13,C  11,H  12)     -0.0778         0.012943   
    172. D(C  16,C  13,C  11,C   4)    179.9483         0.012943   
    173. D(H  15,C  13,C  11,H  12)   -122.7362         0.012943   
    174. D(C  19,C  16,C  13,C  11)   -179.9699         0.010854   
    175. D(C  19,C  16,C  13,H  14)     56.9586         0.010854   
    176. D(H  18,C  16,C  13,H  15)   -179.1930         0.010854   
    177. D(H  18,C  16,C  13,H  14)    -65.3804         0.010854   
    178. D(H  18,C  16,C  13,C  11)     57.6911         0.010854   
    179. D(H  17,C  16,C  13,H  15)     65.4910         0.010854   
    180. D(H  17,C  16,C  13,H  14)    179.3036         0.010854   
    181. D(C  19,C  16,C  13,H  15)    -56.8540         0.010854   
    182. D(H  17,C  16,C  13,C  11)    -57.6248         0.010854   
    183. D(H  36,C  19,C  16,H  18)    -58.0765         0.011182   
    184. D(H  36,C  19,C  16,H  17)     58.0699         0.011182   
    185. D(H  36,C  19,C  16,C  13)   -179.9940         0.011182   
    186. D(H  21,C  19,C  16,H  18)     62.0640         0.011182   
    187. D(H  21,C  19,C  16,H  17)    178.2105         0.011182   
    188. D(H  21,C  19,C  16,C  13)    -59.8535         0.011182   
    189. D(H  20,C  19,C  16,H  18)   -178.2223         0.011182   
    190. D(H  20,C  19,C  16,H  17)    -62.0758         0.011182   
    191. D(H  20,C  19,C  16,C  13)     59.8602         0.011182   
    192. D(C  25,C  22,C   7,C   8)     -0.2091         0.011595   
    193. D(C  25,C  22,C   7,C   6)    179.8008         0.011595   
    194. D(H  24,C  22,C   7,C   8)   -123.9439         0.011595   
    195. D(H  24,C  22,C   7,C   6)     56.0660         0.011595   
    196. D(H  23,C  22,C   7,C   8)    123.5536         0.011595   
    197. D(H  23,C  22,C   7,C   6)    -56.4365         0.011595   
    198. D(H  27,C  25,C  22,H  23)    -64.9519         0.011087   
    199. D(H  27,C  25,C  22,C   7)     58.2929         0.011087   
    200. D(H  26,C  25,C  22,H  24)     65.0218         0.011087   
    201. D(H  26,C  25,C  22,H  23)    178.5584         0.011087   
    202. D(H  26,C  25,C  22,C   7)    -58.1969         0.011087   
    203. D(C  28,C  25,C  22,H  24)    -56.7377         0.011087   
    204. D(C  28,C  25,C  22,H  23)     56.7989         0.011087   
    205. D(C  28,C  25,C  22,C   7)   -179.9564         0.011087   
    206. D(H  27,C  25,C  22,H  24)   -178.4885         0.011087   
    207. D(C  31,C  28,C  25,H  27)    -57.8470         0.010908   
    208. D(C  31,C  28,C  25,C  22)    179.9298         0.010908   
    209. D(H  30,C  28,C  25,H  27)    179.8377         0.010908   
    210. D(H  30,C  28,C  25,H  26)    -64.5976         0.010908   
    211. D(H  30,C  28,C  25,C  22)     57.6145         0.010908   
    212. D(H  29,C  28,C  25,H  27)     64.4757         0.010908   
    213. D(C  31,C  28,C  25,H  26)     57.7177         0.010908   
    214. D(H  29,C  28,C  25,H  26)   -179.9596         0.010908   
    215. D(H  29,C  28,C  25,C  22)    -57.7475         0.010908   
    216. D(H  37,C  31,C  28,H  30)    -57.9015         0.011124   
    217. D(H  37,C  31,C  28,H  29)     57.8462         0.011124   
    218. D(H  37,C  31,C  28,C  25)    179.9748         0.011124   
    219. D(H  33,C  31,C  28,H  30)     62.2425         0.011124   
    220. D(H  33,C  31,C  28,H  29)    177.9902         0.011124   
    221. D(H  33,C  31,C  28,C  25)    -59.8812         0.011124   
    222. D(H  32,C  31,C  28,H  30)   -178.0434         0.011124   
    223. D(H  32,C  31,C  28,H  29)    -62.2958         0.011124   
    224. D(H  32,C  31,C  28,C  25)     59.8328         0.011124   
    225. D(C  43,C  38,C   6,C   7)      0.0292         0.001500   
    226. D(C  43,C  38,C   6,C   5)    179.9837         0.001500   
    227. D(C  39,C  38,C   6,C   7)   -179.9653         0.001500   
    228. D(C  39,C  38,C   6,C   5)     -0.0107         0.001500   
    229. D(H  46,C  39,C  38,C  43)   -179.9820         0.018058   
    230. D(H  46,C  39,C  38,C  34)     -0.0173         0.018058   
    231. D(C  40,C  39,C  38,C  43)      0.0532         0.018058   
    232. D(C  40,C  39,C  38,C  34)   -179.9822         0.018058   
    233. D(H  48,C  40,C  39,H  46)      0.0091         0.020892   
    234. D(H  48,C  40,C  39,C  38)    179.9738         0.020892   
    235. D(C  41,C  40,C  39,H  46)    179.9978         0.020892   
    236. D(C  41,C  40,C  39,C  38)     -0.0375         0.020892   
    237. D(H  44,C  41,C  40,H  48)      0.0084         0.025862   
    238. D(H  44,C  41,C  40,C  39)   -179.9801         0.025862   
    239. D(C  42,C  41,C  40,H  48)    179.9928         0.025862   
    240. D(C  42,C  41,C  40,C  39)      0.0043         0.025862   
    241. D(H  45,C  42,C  41,H  44)     -0.0175         0.019996   
    242. D(H  45,C  42,C  41,C  40)    179.9979         0.019996   
    243. D(C  43,C  42,C  41,H  44)    179.9985         0.019996   
    244. D(C  43,C  42,C  41,C  40)      0.0139         0.019996   
    245. D(H  47,C  43,C  42,H  45)      0.0092         0.025528   
    246. D(H  47,C  43,C  42,C  41)    179.9932         0.025528   
    247. D(C  38,C  43,C  42,H  45)   -179.9808         0.025528   
    248. D(C  38,C  43,C  42,C  41)      0.0031         0.025528   
    249. D(H  47,C  43,C  38,C  39)    179.9722         0.024025   
    250. D(H  47,C  43,C  38,C  34)      0.0084         0.024025   
    251. D(C  42,C  43,C  38,C  39)     -0.0378         0.024025   
    252. D(C  42,C  43,C  38,C  34)    179.9984         0.024025   
    -----------------------------------------------------------------

Number of atoms                         .... 49
Number of degrees of freedom            .... 252

         *************************************************************
         *                GEOMETRY OPTIMIZATION CYCLE   1            *
         *************************************************************
---------------------------------
CARTESIAN COORDINATES (ANGSTROEM)
---------------------------------
  C     -4.052044    0.125036    0.005874
  C     -2.836759    0.056472    0.001320
  C      2.843756   -0.029446   -0.000171
  C     -1.410052   -0.000000   -0.000000
  C     -0.715252   -1.264457   -0.000755
  C      0.706992   -1.205697   -0.000323
  C      1.410052    0.000000    0.000000
  C      0.712278    1.247324   -0.000000
  C     -0.684416    1.203373   -0.000032
  H      1.278214   -2.134114   -0.000542
  H     -1.253073    2.133018    0.000262
  C     -1.409192   -2.495098   -0.002244
  H     -2.502007   -2.453178   -0.002737
  C     -0.758887   -3.845922   -0.003744
  H     -0.088397   -3.943013   -0.882925
  H     -0.086448   -3.944527    0.873804
  C     -1.760374   -5.007640   -0.003913
  H     -2.418747   -4.915476    0.879514
  H     -2.419104   -4.914512   -0.887017
  C     -1.086448   -6.380674   -0.004708
  H     -0.445794   -6.513731    0.884431
  H     -0.446295   -6.512846   -0.894340
  C      1.493972    2.544848    0.000249
  H      2.170176    2.541387    0.876168
  H      2.175182    2.538449   -0.871655
  C      0.681391    3.842088   -0.004514
  H      0.020190    3.867700   -0.890863
  H      0.015789    3.871812    0.878349
  C      1.567188    5.093383   -0.004937
  H      2.230397    5.070415    0.880199
  H      2.236456    5.065501   -0.885318
  C      0.766027    6.397145   -0.011410
  H      0.112539    6.470822    0.875321
  H      0.119400    6.466199   -0.903541
  C      4.059238   -0.057476   -0.001881
  H     -5.122395    0.192065    0.015860
  H     -1.829761   -7.193934   -0.004919
  H      1.428087    7.278035   -0.011122
  C      5.489238   -0.057476   -0.001881
  C      6.184039   -1.321932   -0.002636
  C      7.606282   -1.263173   -0.002204
  C      8.309343   -0.057476   -0.001881
  C      7.611568    1.189849   -0.001881
  C      6.214875    1.145898   -0.001913
  H      9.364360   -0.057476   -0.001881
  H      8.115817    2.077090   -0.001614
  H      5.679790   -2.209173   -0.002902
  H      5.677691    2.075972   -0.001800
  H      8.143466   -2.193247   -0.002317

----------------------------
CARTESIAN COORDINATES (A.U.)
----------------------------
  NO LB      ZA    FRAG     MASS         X           Y           Z
   0 C     6.0000    0    12.011   -7.657254    0.236283    0.011100
   1 C     6.0000    0    12.011   -5.360697    0.106717    0.002495
   2 C     6.0000    0    12.011    5.373920   -0.055646   -0.000324
   3 C     6.0000    0    12.011   -2.664613   -0.000000   -0.000000
   4 C     6.0000    0    12.011   -1.351630   -2.389477   -0.001427
   5 C     6.0000    0    12.011    1.336021   -2.278437   -0.000611
   6 C     6.0000    0    12.011    2.664613    0.000000    0.000000
   7 C     6.0000    0    12.011    1.346010    2.357101   -0.000000
   8 C     6.0000    0    12.011   -1.293358    2.274046   -0.000061
   9 H     1.0000    0     1.008    2.415474   -4.032891   -0.001024
  10 H     1.0000    0     1.008   -2.367965    4.030819    0.000495
  11 C     6.0000    0    12.011   -2.662988   -4.715052   -0.004240
  12 H     1.0000    0     1.008   -4.728108   -4.635834   -0.005173
  13 C     6.0000    0    12.011   -1.434088   -7.267739   -0.007076
  14 H     1.0000    0     1.008   -0.167046   -7.451214   -1.668487
  15 H     1.0000    0     1.008   -0.163362   -7.454075    1.651250
  16 C     6.0000    0    12.011   -3.326625   -9.463068   -0.007394
  17 H     1.0000    0     1.008   -4.570770   -9.288903    1.662040
  18 H     1.0000    0     1.008   -4.571443   -9.287081   -1.676220
  19 C     6.0000    0    12.011   -2.053088  -12.057726   -0.008896
  20 H     1.0000    0     1.008   -0.842429  -12.309169    1.671333
  21 H     1.0000    0     1.008   -0.843376  -12.307496   -1.690058
  22 C     6.0000    0    12.011    2.823198    4.809065    0.000470
  23 H     1.0000    0     1.008    4.101038    4.802525    1.655717
  24 H     1.0000    0     1.008    4.110499    4.796973   -1.647190
  25 C     6.0000    0    12.011    1.287642    7.260494   -0.008530
  26 H     1.0000    0     1.008    0.038153    7.308893   -1.683488
  27 H     1.0000    0     1.008    0.029837    7.316665    1.659840
  28 C     6.0000    0    12.011    2.961556    9.625098   -0.009330
  29 H     1.0000    0     1.008    4.214840    9.581697    1.663334
  30 H     1.0000    0     1.008    4.226289    9.572409   -1.673009
  31 C     6.0000    0    12.011    1.447580   12.088852   -0.021562
  32 H     1.0000    0     1.008    0.212668   12.228082    1.654117
  33 H     1.0000    0     1.008    0.225633   12.219345   -1.707445
  34 C     6.0000    0    12.011    7.670849   -0.108613   -0.003554
  35 H     1.0000    0     1.008   -9.679924    0.362950    0.029971
  36 H     1.0000    0     1.008   -3.457748  -13.594565   -0.009296
  37 H     1.0000    0     1.008    2.698693   13.753492   -0.021018
  38 C     6.0000    0    12.011   10.373157   -0.108613   -0.003554
  39 C     6.0000    0    12.011   11.686140   -2.498090   -0.004981
  40 C     6.0000    0    12.011   14.373791   -2.387050   -0.004165
  41 C     6.0000    0    12.011   15.702382   -0.108613   -0.003554
  42 C     6.0000    0    12.011   14.383780    2.248488   -0.003554
  43 C     6.0000    0    12.011   11.744411    2.165433   -0.003615
  44 H     1.0000    0     1.008   17.696076   -0.108613   -0.003554
  45 H     1.0000    0     1.008   15.336672    3.925130   -0.003050
  46 H     1.0000    0     1.008   10.733248   -4.174732   -0.005484
  47 H     1.0000    0     1.008   10.729281    3.923019   -0.003402
  48 H     1.0000    0     1.008   15.388920   -4.144636   -0.004378

--------------------------------
INTERNAL COORDINATES (ANGSTROEM)
--------------------------------
 C      0   0   0     0.000000000000     0.00000000     0.00000000
 C      1   0   0     1.217226758493     0.00000000     0.00000000
 C      2   1   0     5.681164332238   177.62908363     0.00000000
 C      2   1   3     1.427824265459   179.02420293     4.69851716
 C      4   2   1     1.442774979019   121.05486904   170.48329815
 C      5   4   2     1.423457113064   116.42231472   180.07807523
 C      6   5   4     1.395707441583   122.61292797   359.96254239
 C      7   6   5     1.429232938834   120.52951055     0.00000000
 C      8   7   6     1.397385210171   117.42100295     0.00000000
 H      6   5   4     1.090069894827   119.23668027   179.98077895
 H      9   8   7     1.089775103996   119.65148114   179.98215181
 C      5   4   2     1.412810570614   121.79383973     0.09622978
 H     12   5   4     1.093618155664   117.22123454     0.00000000
 C     12   5   4     1.499208170540   124.87518834   179.97001685
 H     14  12   5     1.109928943312   109.97687309   302.56621885
 H     14  12   5     1.109949444820   110.00126303    57.28980795
 C     14  12   5     1.533807642558   113.52937771   179.94826448
 H     17  14  12     1.105617876636   109.00124264   302.37515652
 H     17  14  12     1.105654074232   108.98395163    57.69111482
 C     17  14  12     1.529509591450   113.09299699   180.03011589
 H     20  17  14     1.103951691264   111.31412216    59.86022226
 H     20  17  14     1.103952091919   111.30907135   300.14652513
 C      8   7   6     1.514797794850   119.70971221   180.00458937
 H     23   8   7     1.106570443635   108.22757392   303.56345917
 H     23   8   7     1.106482957981   108.21707713    56.06599836
 C     23   8   7     1.530733131771   116.87020319   179.80076393
 H     26  23   8     1.106100472958   109.84292646   301.80314803
 H     26  23   8     1.106054363509   109.86123113    58.29287248
 C     26  23   8     1.533093527626   112.64236249   180.04364684
 H     29  26  23     1.106272702057   109.22115373   302.25247469
 H     29  26  23     1.106240264848   109.22044744    57.61446300
 C     29  26  23     1.530260596244   113.13428276   179.92975406
 H     32  29  26     1.103977445629   111.30727813    59.83280894
 H     32  29  26     1.103989322548   111.30668893   300.11877945
 C      3   2   1     1.215806806921   179.54082808   183.37932134
 H      1   2   4     1.072493958482   179.52314118   327.50393905
 H     20  17  14     1.101774808185   111.42972297   180.00599463
 H     32  29  26     1.101948559183   111.50117396   179.97476048
 C     35   3   7     1.430000000000   178.67653276   156.44542672
 C     39  35   3     1.442774974209   118.78814580   176.54432693
 C     40  39  35     1.423457113477   116.42231397   180.01781746
 C     41  40  39     1.395707432946   122.61292858   359.96254244
 C     42  41  40     1.429232942679   120.52951089     0.00000000
 C     43  42  41     1.397385210171   117.42100241     0.00000000
 H     42  41  40     1.055017680000   120.24710478   180.01986613
 H     43  42  41     1.020520964603   121.16559112   179.99791850
 H     40  39  35     1.020520955909   121.60082761     0.00000000
 H     44  43  42     1.074059768694   118.20707946   179.99317042
 H     41  40  39     1.074059782354   117.64363571   179.97375935

---------------------------
INTERNAL COORDINATES (A.U.)
---------------------------
 C      0   0   0     0.000000000000     0.00000000     0.00000000
 C      1   0   0     2.300225216433     0.00000000     0.00000000
 C      2   1   0    10.735844709731   177.62908363     0.00000000
 C      2   1   3     2.698196829085   179.02420293     4.69851716
 C      4   2   1     2.726449583220   121.05486904   170.48329815
 C      5   4   2     2.689944107073   116.42231472   180.07807523
 C      6   5   4     2.637504827667   122.61292797   359.96254239
 C      7   6   5     2.700858835976   120.52951055     0.00000000
 C      8   7   6     2.640675350815   117.42100295     0.00000000
 H      6   5   4     2.059933568055   119.23668027   179.98077895
 H      9   8   7     2.059376494117   119.65148114   179.98215181
 C      5   4   2     2.669825057570   121.79383973     0.09622978
 H     12   5   4     2.066638809289   117.22123454     0.00000000
 C     12   5   4     2.833092860058   124.87518834   179.97001685
 H     14  12   5     2.097461730972   109.97687309   302.56621885
 H     14  12   5     2.097500473207   110.00126303    57.28980795
 C     14  12   5     2.898476386550   113.52937771   179.94826448
 H     17  14  12     2.089314995609   109.00124264   302.37515652
 H     17  14  12     2.089383399153   108.98395163    57.69111482
 C     17  14  12     2.890354247046   113.09299699   180.03011589
 H     20  17  14     2.086166361568   111.31412216    59.86022226
 H     20  17  14     2.086167118697   111.30907135   300.14652513
 C      8   7   6     2.862552980534   119.70971221   180.00458937
 H     23   8   7     2.091115086361   108.22757392   303.56345917
 H     23   8   7     2.090949762435   108.21707713    56.06599836
 C     23   8   7     2.892666403167   116.87020319   179.80076393
 H     26  23   8     2.090226970492   109.84292646   301.80314803
 H     26  23   8     2.090139836261   109.86123113    58.29287248
 C     26  23   8     2.897126904901   112.64236249   180.04364684
 H     29  26  23     2.090552436321   109.22115373   302.25247469
 H     29  26  23     2.090491138878   109.22044744    57.61446300
 C     29  26  23     2.891773440431   113.13428276   179.92975406
 H     32  29  26     2.086215030264   111.30727813    59.83280894
 H     32  29  26     2.086237474389   111.30668893   300.11877945
 C      3   2   1     2.297541896837   179.54082808   183.37932134
 H      1   2   4     2.026719861816   179.52314118   327.50393905
 H     20  17  14     2.082052648723   111.42972297   180.00599463
 H     32  29  26     2.082380990525   111.50117396   179.97476048
 C     35   3   7     2.702308371507   178.67653276   156.44542672
 C     39  35   3     2.726449574129   118.78814580   176.54432693
 C     40  39  35     2.689944107853   116.42231397   180.01781746
 C     41  40  39     2.637504811347   122.61292858   359.96254244
 C     42  41  40     2.700858843242   120.52951089     0.00000000
 C     43  42  41     2.640675350815   117.42100241     0.00000000
 H     42  41  40     1.993694481645   120.24710478   180.01986613
 H     43  42  41     1.928505137025   121.16559112   179.99791850
 H     40  39  35     1.928505120596   121.60082761     0.00000000
 H     44  43  42     2.029678814294   118.20707946   179.99317042
 H     41  40  39     2.029678840109   117.64363571   179.97375935

---------------------
BASIS SET INFORMATION
---------------------
There are 2 groups of distinct atoms

 Group   1 Type C   : 17s4p1d contracted to 3s2p1d pattern {881/31/1}
 Group   2 Type H   : 4s1p contracted to 2s1p pattern {31/1}

Atom   0C    basis set group =>   1
Atom   1C    basis set group =>   1
Atom   2C    basis set group =>   1
Atom   3C    basis set group =>   1
Atom   4C    basis set group =>   1
Atom   5C    basis set group =>   1
Atom   6C    basis set group =>   1
Atom   7C    basis set group =>   1
Atom   8C    basis set group =>   1
Atom   9H    basis set group =>   2
Atom  10H    basis set group =>   2
Atom  11C    basis set group =>   1
Atom  12H    basis set group =>   2
Atom  13C    basis set group =>   1
Atom  14H    basis set group =>   2
Atom  15H    basis set group =>   2
Atom  16C    basis set group =>   1
Atom  17H    basis set group =>   2
Atom  18H    basis set group =>   2
Atom  19C    basis set group =>   1
Atom  20H    basis set group =>   2
Atom  21H    basis set group =>   2
Atom  22C    basis set group =>   1
Atom  23H    basis set group =>   2
Atom  24H    basis set group =>   2
Atom  25C    basis set group =>   1
Atom  26H    basis set group =>   2
Atom  27H    basis set group =>   2
Atom  28C    basis set group =>   1
Atom  29H    basis set group =>   2
Atom  30H    basis set group =>   2
Atom  31C    basis set group =>   1
Atom  32H    basis set group =>   2
Atom  33H    basis set group =>   2
Atom  34C    basis set group =>   1
Atom  35H    basis set group =>   2
Atom  36H    basis set group =>   2
Atom  37H    basis set group =>   2
Atom  38C    basis set group =>   1
Atom  39C    basis set group =>   1
Atom  40C    basis set group =>   1
Atom  41C    basis set group =>   1
Atom  42C    basis set group =>   1
Atom  43C    basis set group =>   1
Atom  44H    basis set group =>   2
Atom  45H    basis set group =>   2
Atom  46H    basis set group =>   2
Atom  47H    basis set group =>   2
Atom  48H    basis set group =>   2


           ************************************************************
           *        Program running with 16 parallel MPI-processes    *
           *              working on a common directory               *
           ************************************************************
------------------------------------------------------------------------------
                           ORCA GTO INTEGRAL CALCULATION
------------------------------------------------------------------------------

                         BASIS SET STATISTICS AND STARTUP INFO

 # of primitive gaussian shells          ...  653
 # of primitive gaussian functions       ...  991
 # of contracted shells                  ...  219
 # of contracted basis functions         ...  461
 Highest angular momentum                ...    2
 Maximum contraction depth               ...    8
 Integral package used                   ... LIBINT
 Integral threshhold            Thresh   ...  2.500e-11
 Primitive cut-off              TCut     ...  2.500e-12


------------------------------ INTEGRAL EVALUATION ----------------------------


 * One electron integrals 
 Pre-screening matrix                    ... done
 Shell pair data                         ... done (   0.009 sec)



           ************************************************************
           *        Program running with 16 parallel MPI-processes    *
           *              working on a common directory               *
           ************************************************************
-------------------------------------------------------------------------------
                                 ORCA SCF
-------------------------------------------------------------------------------

------------
SCF SETTINGS
------------
Hamiltonian:
 Density Functional     Method          .... DFT(GTOs)
 Exchange Functional    Exchange        .... B88
   X-Alpha parameter    XAlpha          ....  0.666667
   Becke's b parameter  XBeta           ....  0.004200
 Correlation Functional Correlation     .... LYP
 LDA part of GGA corr.  LDAOpt          .... VWN-5
 Gradients option       PostSCFGGA      .... off
 Hybrid DFT is turned on
   Fraction HF Exchange ScalHFX         ....  0.200000
   Scaling of DF-GGA-X  ScalDFX         ....  0.720000
   Scaling of DF-GGA-C  ScalDFC         ....  0.810000
   Scaling of DF-LDA-C  ScalLDAC        ....  1.000000
   Perturbative correction              ....  0.000000
   Density functional embedding theory  .... OFF
   NL short-range parameter             ....  4.800000


General Settings:
 Integral files         IntName         .... opt
 Hartree-Fock type      HFTyp           .... UHF
 Total Charge           Charge          ....    0
 Multiplicity           Mult            ....    2
 Number of Electrons    NEL             ....  169
 Basis Dimension        Dim             ....  461
 Nuclear Repulsion      ENuc            ....   1724.0624601732 Eh

Convergence Acceleration:
 DIIS                   CNVDIIS         .... on
   Start iteration      DIISMaxIt       ....    12
   Startup error        DIISStart       ....  0.200000
   # of expansion vecs  DIISMaxEq       ....     5
   Bias factor          DIISBfac        ....   1.050
   Max. coefficient     DIISMaxC        ....  10.000
 Newton-Raphson         CNVNR           .... off
 SOSCF                  CNVSOSCF        .... off
 Level Shifting         CNVShift        .... on
   Level shift para.    LevelShift      ....    0.2500
   Turn off err/grad.   ShiftErr        ....    0.0010
 Zerner damping         CNVZerner       .... off
 Static damping         CNVDamp         .... on
   Fraction old density DampFac         ....    0.7000
   Max. Damping (<1)    DampMax         ....    0.9800
   Min. Damping (>=0)   DampMin         ....    0.0000
   Turn off err/grad.   DampErr         ....    0.1000
 Fernandez-Rico         CNVRico         .... off

SCF Procedure:
 Maximum # iterations   MaxIter         ....   125
 SCF integral mode      SCFMode         .... Direct
   Integral package                     .... LIBINT
 Reset frequency        DirectResetFreq ....    20
 Integral Threshold     Thresh          ....  2.500e-11 Eh
 Primitive CutOff       TCut            ....  2.500e-12 Eh

Convergence Tolerance:
 Convergence Check Mode ConvCheckMode   .... Total+1el-Energy
 Convergence forced     ConvForced      .... 0
 Energy Change          TolE            ....  1.000e-08 Eh
 1-El. energy change                    ....  1.000e-05 Eh
 DIIS Error             TolErr          ....  5.000e-07


Diagonalization of the overlap matrix:
Smallest eigenvalue                        ... 5.109e-05
Time for diagonalization                   ...    0.052 sec
Threshold for overlap eigenvalues          ... 1.000e-08
Number of eigenvalues below threshold      ... 0
Time for construction of square roots      ...    0.047 sec
Total time needed                          ...    0.101 sec

-------------------
DFT GRID GENERATION
-------------------

General Integration Accuracy     IntAcc      ...  4.340
Radial Grid Type                 RadialGrid  ... Gauss-Chebyshev
Angular Grid (max. acc.)         AngularGrid ... Lebedev-110
Angular grid pruning method      GridPruning ... 3 (G Style)
Weight generation scheme         WeightScheme... Becke
Basis function cutoff            BFCut       ...    1.0000e-11
Integration weight cutoff        WCut        ...    1.0000e-14
Grids for H and He will be reduced by one unit

# of grid points (after initial pruning)     ...  59594 (   0.0 sec)
# of grid points (after weights+screening)   ...  53201 (   0.2 sec)
nearest neighbour list constructed           ...    0.0 sec
Grid point re-assignment to atoms done       ...    0.0 sec
Grid point division into batches done        ...    0.0 sec
Reduced shell lists constructed in    0.1 sec

Total number of grid points                  ...    53201
Total number of batches                      ...      855
Average number of points per batch           ...       62
Average number of grid points per atom       ...     1086
Average number of shells per batch           ...    93.20 (42.56%)
Average number of basis functions per batch  ...   185.42 (40.22%)
Average number of large shells per batch     ...    55.42 (59.46%)
Average number of large basis fcns per batch ...   115.89 (62.50%)
Maximum spatial batch extension              ...  15.63, 11.49, 33.54 au
Average spatial batch extension              ...   0.15,  0.19,  0.29 au

Time for grid setup =    0.402 sec

------------------------------
INITIAL GUESS: MODEL POTENTIAL
------------------------------
Loading Hartree-Fock densities                     ... done
Calculating cut-offs                               ... done
Setting up the integral package                    ... done
Initializing the effective Hamiltonian             ... done
Starting the Coulomb interaction                   ... done (   0.2 sec)
Reading the grid                                   ... done
Mapping shells                                     ... done
Starting the XC term evaluation                    ... done (   0.1 sec)
  promolecular density results
     # of electrons  =    169.020641079
     EX              =   -130.692852245
     EC              =     -5.565281754
     EX+EC           =   -136.258133999
Transforming the Hamiltonian                       ... done (   0.0 sec)
Diagonalizing the Hamiltonian                      ... done (   0.0 sec)
Back transforming the eigenvectors                 ... done (   0.0 sec)
Now organizing SCF variables                       ... done
                      ------------------
                      INITIAL GUESS DONE (   1.0 sec)
                      ------------------
--------------
SCF ITERATIONS
--------------
ITER       Energy         Delta-E        Max-DP      RMS-DP      [F,P]     Damp
               ***  Starting incremental Fock matrix formation  ***
  0   -928.3526372060   0.000000000000 0.06697044  0.00089870  0.1734780 0.7000
  1   -928.5877610328  -0.235123826719 0.05776867  0.00069994  0.0913263 0.7000
                               ***Turning on DIIS***
  2   -928.6953384876  -0.107577454843 0.12176791  0.00137143  0.0349279 0.0000
  3   -928.8491726006  -0.153834112954 0.02617930  0.00035745  0.0497103 0.0000
  4   -928.8872623792  -0.038089778600 0.01765727  0.00015135  0.0114383 0.0000
  5   -928.8896072189  -0.002344839785 0.00404338  0.00003667  0.0026097 0.0000
  6   -928.8899337303  -0.000326511390 0.00278128  0.00001939  0.0013744 0.0000
  7   -928.8900535279  -0.000119797612 0.00182282  0.00001226  0.0010019 0.0000
  8   -928.8901162464  -0.000062718503 0.00281817  0.00002207  0.0007363 0.0000
  9   -928.8901889603  -0.000072713877 0.00091517  0.00000786  0.0005508 0.0000
 10   -928.8902033798  -0.000014419522 0.00092350  0.00000668  0.0002654 0.0000
 11   -928.8902110188  -0.000007638989 0.00035581  0.00000261  0.0000709 0.0000
 12   -928.8902129781  -0.000001959239 0.00022650  0.00000167  0.0000760 0.0000
 13   -928.8902139454  -0.000000967331 0.00015599  0.00000127  0.0000457 0.0000
 14   -928.8902145353  -0.000000589884 0.00020070  0.00000160  0.0000275 0.0000
 15   -928.8902151028  -0.000000567473 0.00012035  0.00000105  0.0000200 0.0000
 16   -928.8902153653  -0.000000262584 0.00011743  0.00000111  0.0000144 0.0000
 17   -928.8902155534  -0.000000188107 0.00006016  0.00000061  0.0000119 0.0000
 18   -928.8902156168  -0.000000063366 0.00006419  0.00000069  0.0000060 0.0000
 19   -928.8902156570  -0.000000040189 0.00001039  0.00000011  0.0000047 0.0000
               *** Restarting incremental Fock matrix formation ***
                                   *** Resetting DIIS ***
 20   -928.8902156620  -0.000000004977 0.00001183  0.00000012  0.0000053 0.0000
 21   -928.8902156770  -0.000000015067 0.00000469  0.00000004  0.0000134 0.0000
                 **** Energy Check signals convergence ****

               *****************************************************
               *                     SUCCESS                       *
               *           SCF CONVERGED AFTER  22 CYCLES          *
               *****************************************************

Setting up the final grid:

General Integration Accuracy     IntAcc      ...  4.670
Radial Grid Type                 RadialGrid  ... Gauss-Chebyshev
Angular Grid (max. acc.)         AngularGrid ... Lebedev-302
Angular grid pruning method      GridPruning ... 3 (G Style)
Weight generation scheme         WeightScheme... Becke
Basis function cutoff            BFCut       ...    1.0000e-11
Integration weight cutoff        WCut        ...    1.0000e-14
Grids for H and He will be reduced by one unit

# of grid points (after initial pruning)     ... 233938 (   0.0 sec)
# of grid points (after weights+screening)   ... 205141 (   0.7 sec)
nearest neighbour list constructed           ...    0.0 sec
Grid point re-assignment to atoms done       ...    0.0 sec
Grid point division into batches done        ...    0.8 sec
Reduced shell lists constructed in    1.1 sec

Total number of grid points                  ...   205141
Total number of batches                      ...     3227
Average number of points per batch           ...       63
Average number of grid points per atom       ...     4187
Average number of shells per batch           ...    88.15 (40.25%)
Average number of basis functions per batch  ...   175.77 (38.13%)
Average number of large shells per batch     ...    51.33 (58.23%)
Average number of large basis fcns per batch ...   107.29 (61.04%)
Maximum spatial batch extension              ...  16.56, 13.29, 23.20 au
Average spatial batch extension              ...   0.12,  0.13,  0.14 au

Final grid set up in    1.8 sec
Final integration                            ... done (   0.6 sec)
Change in XC energy                          ...     0.001644888
Integrated number of electrons               ...   169.000115060
Previous integrated no of electrons          ...   169.017565113

----------------
TOTAL SCF ENERGY
----------------

Total Energy       :         -928.88857079 Eh          -25276.34304 eV

Components:
Nuclear Repulsion  :         1724.06246017 Eh           46914.12461 eV
Electronic Energy  :        -2652.95103096 Eh          -72190.46764 eV
One Electron Energy:        -4677.05325184 Eh         -127269.08922 eV
Two Electron Energy:         2024.10222087 Eh           55078.62157 eV

Virial components:
Potential Energy   :        -1851.50136582 Eh          -50381.91353 eV
Kinetic Energy     :          922.61279503 Eh           25105.57050 eV
Virial Ratio       :            2.00680218


DFT components:
N(Alpha)           :       85.000064117772 electrons
N(Beta)            :       84.000050942624 electrons
N(Total)           :      169.000115060396 electrons
E(X)               :     -105.689421676064 Eh       
E(C)               :       -6.576590805172 Eh       
E(XC)              :     -112.266012481236 Eh       
DFET-embed. en.    :        0.000000000000 Eh       

---------------
SCF CONVERGENCE
---------------

  Last Energy change         ...   -2.0996e-09  Tolerance :   1.0000e-08
  Last MAX-Density change    ...    5.0771e-06  Tolerance :   1.0000e-07
  Last RMS-Density change    ...    4.8577e-08  Tolerance :   5.0000e-09
  Last DIIS Error            ...    1.0428e-06  Tolerance :   5.0000e-07

             **** THE GBW FILE WAS UPDATED (opt.gbw) ****
             **** DENSITY FILE WAS UPDATED (opt.scfp) ****
             **** ENERGY FILE WAS UPDATED (opt.en.tmp) ****
----------------------
UHF SPIN CONTAMINATION
----------------------

Warning: in a DFT calculation there is little theoretical justification to 
         calculate <S**2> as in Hartree-Fock theory. We will do it anyways
         but you should keep in mind that the values have only limited relevance

Expectation value of <S**2>     :     0.786766
Ideal value S*(S+1) for S=0.5   :     0.750000
Deviation                       :     0.036766

             **** THE GBW FILE WAS UPDATED (opt.gbw) ****
             **** DENSITY FILE WAS UPDATED (opt.scfp) ****
----------------
ORBITAL ENERGIES
----------------
                 SPIN UP ORBITALS
  NO   OCC          E(Eh)            E(eV) 
   0   1.0000     -10.218381      -278.0563 
   1   1.0000     -10.212960      -277.9088 
   2   1.0000     -10.211432      -277.8672 
   3   1.0000     -10.201852      -277.6065 
   4   1.0000     -10.197914      -277.4993 
   5   1.0000     -10.196913      -277.4721 
   6   1.0000     -10.195425      -277.4316 
   7   1.0000     -10.195008      -277.4203 
   8   1.0000     -10.194267      -277.4001 
   9   1.0000     -10.193629      -277.3828 
  10   1.0000     -10.192796      -277.3601 
  11   1.0000     -10.192149      -277.3425 
  12   1.0000     -10.189798      -277.2785 
  13   1.0000     -10.189143      -277.2607 
  14   1.0000     -10.187896      -277.2267 
  15   1.0000     -10.187739      -277.2225 
  16   1.0000     -10.187081      -277.2046 
  17   1.0000     -10.185634      -277.1652 
  18   1.0000     -10.184944      -277.1464 
  19   1.0000     -10.183740      -277.1136 
  20   1.0000     -10.182215      -277.0722 
  21   1.0000     -10.181887      -277.0632 
  22   1.0000     -10.176965      -276.9293 
  23   1.0000     -10.175854      -276.8991 
  24   1.0000      -0.873582       -23.7714 
  25   1.0000      -0.857828       -23.3427 
  26   1.0000      -0.819721       -22.3057 
  27   1.0000      -0.797614       -21.7042 
  28   1.0000      -0.796567       -21.6757 
  29   1.0000      -0.776941       -21.1416 
  30   1.0000      -0.767769       -20.8921 
  31   1.0000      -0.752016       -20.4634 
  32   1.0000      -0.743652       -20.2358 
  33   1.0000      -0.730012       -19.8646 
  34   1.0000      -0.713923       -19.4268 
  35   1.0000      -0.697715       -18.9858 
  36   1.0000      -0.656582       -17.8665 
  37   1.0000      -0.643109       -17.4999 
  38   1.0000      -0.622249       -16.9323 
  39   1.0000      -0.616313       -16.7707 
  40   1.0000      -0.609302       -16.5800 
  41   1.0000      -0.592465       -16.1218 
  42   1.0000      -0.579994       -15.7824 
  43   1.0000      -0.561791       -15.2871 
  44   1.0000      -0.542941       -14.7742 
  45   1.0000      -0.530277       -14.4296 
  46   1.0000      -0.507665       -13.8143 
  47   1.0000      -0.493389       -13.4258 
  48   1.0000      -0.486243       -13.2314 
  49   1.0000      -0.477706       -12.9990 
  50   1.0000      -0.470925       -12.8145 
  51   1.0000      -0.462122       -12.5750 
  52   1.0000      -0.455826       -12.4037 
  53   1.0000      -0.442226       -12.0336 
  54   1.0000      -0.432542       -11.7701 
  55   1.0000      -0.429122       -11.6770 
  56   1.0000      -0.426488       -11.6053 
  57   1.0000      -0.425202       -11.5703 
  58   1.0000      -0.421981       -11.4827 
  59   1.0000      -0.411963       -11.2101 
  60   1.0000      -0.398076       -10.8322 
  61   1.0000      -0.397536       -10.8175 
  62   1.0000      -0.381898       -10.3920 
  63   1.0000      -0.378530       -10.3003 
  64   1.0000      -0.374829       -10.1996 
  65   1.0000      -0.371405       -10.1065 
  66   1.0000      -0.365262        -9.9393 
  67   1.0000      -0.357019        -9.7150 
  68   1.0000      -0.354151        -9.6369 
  69   1.0000      -0.348445        -9.4817 
  70   1.0000      -0.340300        -9.2600 
  71   1.0000      -0.332552        -9.0492 
  72   1.0000      -0.331422        -9.0185 
  73   1.0000      -0.330348        -8.9892 
  74   1.0000      -0.327991        -8.9251 
  75   1.0000      -0.324280        -8.8241 
  76   1.0000      -0.321795        -8.7565 
  77   1.0000      -0.296324        -8.0634 
  78   1.0000      -0.274786        -7.4773 
  79   1.0000      -0.273274        -7.4362 
  80   1.0000      -0.268701        -7.3117 
  81   1.0000      -0.257179        -6.9982 
  82   1.0000      -0.254285        -6.9195 
  83   1.0000      -0.214123        -5.8266 
  84   1.0000      -0.172979        -4.7070 
  85   0.0000      -0.059672        -1.6237 
  86   0.0000      -0.016568        -0.4508 
  87   0.0000      -0.007555        -0.2056 
  88   0.0000       0.016584         0.4513 
  89   0.0000       0.043068         1.1719 
  90   0.0000       0.052387         1.4255 
  91   0.0000       0.057101         1.5538 
  92   0.0000       0.062992         1.7141 
  93   0.0000       0.065667         1.7869 
  94   0.0000       0.066605         1.8124 
  95   0.0000       0.081159         2.2085 
  96   0.0000       0.085390         2.3236 
  97   0.0000       0.089195         2.4271 
  98   0.0000       0.094092         2.5604 
  99   0.0000       0.096383         2.6227 
 100   0.0000       0.101780         2.7696 
 101   0.0000       0.102176         2.7804 
 102   0.0000       0.106154         2.8886 
 103   0.0000       0.116729         3.1764 
 104   0.0000       0.117901         3.2083 
 105   0.0000       0.126286         3.4364 
 106   0.0000       0.130718         3.5570 
 107   0.0000       0.140251         3.8164 
 108   0.0000       0.146093         3.9754 
 109   0.0000       0.147973         4.0266 
 110   0.0000       0.151250         4.1157 
 111   0.0000       0.156242         4.2516 
 112   0.0000       0.157883         4.2962 
 113   0.0000       0.160787         4.3752 
 114   0.0000       0.161350         4.3906 
 115   0.0000       0.164658         4.4806 
 116   0.0000       0.173018         4.7081 
 117   0.0000       0.176611         4.8058 
 118   0.0000       0.182859         4.9758 
 119   0.0000       0.204757         5.5717 
 120   0.0000       0.211400         5.7525 
 121   0.0000       0.211990         5.7685 
 122   0.0000       0.217446         5.9170 
 123   0.0000       0.221814         6.0359 
 124   0.0000       0.224037         6.0964 
 125   0.0000       0.243299         6.6205 
 126   0.0000       0.249692         6.7945 
 127   0.0000       0.265065         7.2128 
 128   0.0000       0.265671         7.2293 
 129   0.0000       0.270153         7.3512 
 130   0.0000       0.285408         7.7664 
 131   0.0000       0.290989         7.9182 
 132   0.0000       0.305604         8.3159 
 133   0.0000       0.314411         8.5556 
 134   0.0000       0.318880         8.6772 
 135   0.0000       0.331716         9.0265 
 136   0.0000       0.348042         9.4707 
 137   0.0000       0.361987         9.8502 
 138   0.0000       0.366025         9.9600 
 139   0.0000       0.382763        10.4155 
 140   0.0000       0.390825        10.6349 
 141   0.0000       0.408580        11.1180 
 142   0.0000       0.411091        11.1863 
 143   0.0000       0.412732        11.2310 
 144   0.0000       0.418604        11.3908 
 145   0.0000       0.422494        11.4966 
 146   0.0000       0.430890        11.7251 
 147   0.0000       0.440684        11.9916 
 148   0.0000       0.440968        11.9993 
 149   0.0000       0.449170        12.2225 
 150   0.0000       0.452992        12.3266 
 151   0.0000       0.453976        12.3533 
 152   0.0000       0.462312        12.5802 
 153   0.0000       0.471634        12.8338 
 154   0.0000       0.473269        12.8783 
 155   0.0000       0.475900        12.9499 
 156   0.0000       0.478574        13.0227 
 157   0.0000       0.483367        13.1531 
 158   0.0000       0.491567        13.3762 
 159   0.0000       0.498318        13.5599 
 160   0.0000       0.500453        13.6180 
 161   0.0000       0.504029        13.7153 
 162   0.0000       0.510242        13.8844 
 163   0.0000       0.514127        13.9901 
 164   0.0000       0.515050        14.0152 
 165   0.0000       0.518281        14.1032 
 166   0.0000       0.520627        14.1670 
 167   0.0000       0.525643        14.3035 
 168   0.0000       0.526152        14.3173 
 169   0.0000       0.530946        14.4478 
 170   0.0000       0.534994        14.5579 
 171   0.0000       0.551359        15.0032 
 172   0.0000       0.551829        15.0160 
 173   0.0000       0.558200        15.1894 
 174   0.0000       0.569126        15.4867 
 175   0.0000       0.575410        15.6577 
 176   0.0000       0.584808        15.9134 
 177   0.0000       0.588761        16.0210 
 178   0.0000       0.592413        16.1204 
 179   0.0000       0.599447        16.3118 
 180   0.0000       0.604255        16.4426 
 181   0.0000       0.607960        16.5434 
 182   0.0000       0.609378        16.5820 
 183   0.0000       0.623862        16.9762 
 184   0.0000       0.627418        17.0729 
 185   0.0000       0.636889        17.3306 
 186   0.0000       0.640004        17.4154 
 187   0.0000       0.643140        17.5007 
 188   0.0000       0.643696        17.5159 
 189   0.0000       0.646502        17.5922 
 190   0.0000       0.651330        17.7236 
 191   0.0000       0.654756        17.8168 
 192   0.0000       0.654947        17.8220 
 193   0.0000       0.656756        17.8712 
 194   0.0000       0.661022        17.9873 
 195   0.0000       0.661382        17.9971 
 196   0.0000       0.665498        18.1091 
 197   0.0000       0.666024        18.1234 
 198   0.0000       0.668183        18.1822 
 199   0.0000       0.669329        18.2134 
 200   0.0000       0.675413        18.3789 
 201   0.0000       0.679191        18.4817 
 202   0.0000       0.683278        18.5929 
 203   0.0000       0.687460        18.7067 
 204   0.0000       0.692352        18.8398 
 205   0.0000       0.694920        18.9097 
 206   0.0000       0.695142        18.9158 
 207   0.0000       0.704106        19.1597 
 208   0.0000       0.712147        19.3785 
 209   0.0000       0.714436        19.4408 
 210   0.0000       0.725597        19.7445 
 211   0.0000       0.727342        19.7920 
 212   0.0000       0.732757        19.9393 
 213   0.0000       0.733769        19.9669 
 214   0.0000       0.736416        20.0389 
 215   0.0000       0.750334        20.4176 
 216   0.0000       0.755417        20.5560 
 217   0.0000       0.760528        20.6950 
 218   0.0000       0.769693        20.9444 
 219   0.0000       0.774551        21.0766 
 220   0.0000       0.780997        21.2520 
 221   0.0000       0.793501        21.5923 
 222   0.0000       0.801159        21.8006 
 223   0.0000       0.818993        22.2859 
 224   0.0000       0.829191        22.5634 
 225   0.0000       0.834762        22.7150 
 226   0.0000       0.845433        23.0054 
 227   0.0000       0.852589        23.2001 
 228   0.0000       0.860031        23.4026 
 229   0.0000       0.870143        23.6778 
 230   0.0000       0.875348        23.8194 
 231   0.0000       0.882365        24.0104 
 232   0.0000       0.898127        24.4393 
 233   0.0000       0.907789        24.7022 
 234   0.0000       0.911617        24.8064 
 235   0.0000       0.917659        24.9708 
 236   0.0000       0.934692        25.4343 
 237   0.0000       0.935586        25.4586 
 238   0.0000       0.946634        25.7592 
 239   0.0000       0.951379        25.8883 
 240   0.0000       0.973119        26.4799 
 241   0.0000       0.977845        26.6085 
 242   0.0000       0.978710        26.6321 
 243   0.0000       0.983677        26.7672 
 244   0.0000       0.991964        26.9927 
 245   0.0000       0.995422        27.0868 
 246   0.0000       0.998965        27.1832 
 247   0.0000       1.011205        27.5163 
 248   0.0000       1.026560        27.9341 
 249   0.0000       1.027574        27.9617 
 250   0.0000       1.032212        28.0879 
 251   0.0000       1.038918        28.2704 
 252   0.0000       1.042035        28.3552 
 253   0.0000       1.053441        28.6656 
 254   0.0000       1.055759        28.7287 
 255   0.0000       1.062822        28.9209 
 256   0.0000       1.065500        28.9937 
 257   0.0000       1.079111        29.3641 
 258   0.0000       1.097724        29.8706 
 259   0.0000       1.103423        30.0257 
 260   0.0000       1.107918        30.1480 
 261   0.0000       1.127443        30.6793 
 262   0.0000       1.145164        31.1615 
 263   0.0000       1.150773        31.3141 
 264   0.0000       1.168156        31.7871 
 265   0.0000       1.186699        32.2917 
 266   0.0000       1.199662        32.6445 
 267   0.0000       1.206273        32.8244 
 268   0.0000       1.208363        32.8812 
 269   0.0000       1.213364        33.0173 
 270   0.0000       1.214474        33.0475 
 271   0.0000       1.220050        33.1993 
 272   0.0000       1.223354        33.2892 
 273   0.0000       1.231032        33.4981 
 274   0.0000       1.232787        33.5458 
 275   0.0000       1.254633        34.1403 
 276   0.0000       1.282168        34.8896 
 277   0.0000       1.292837        35.1799 
 278   0.0000       1.294284        35.2193 
 279   0.0000       1.299707        35.3668 
 280   0.0000       1.313722        35.7482 
 281   0.0000       1.319535        35.9064 
 282   0.0000       1.330431        36.2029 
 283   0.0000       1.340929        36.4885 
 284   0.0000       1.344419        36.5835 
 285   0.0000       1.364735        37.1363 
 286   0.0000       1.376758        37.4635 
 287   0.0000       1.382708        37.6254 
 288   0.0000       1.395296        37.9679 
 289   0.0000       1.396540        38.0018 
 290   0.0000       1.402815        38.1725 
 291   0.0000       1.423042        38.7229 
 292   0.0000       1.425168        38.7808 
 293   0.0000       1.425388        38.7868 
 294   0.0000       1.426518        38.8175 
 295   0.0000       1.430700        38.9313 
 296   0.0000       1.443198        39.2714 
 297   0.0000       1.452787        39.5323 
 298   0.0000       1.462455        39.7954 
 299   0.0000       1.474001        40.1096 
 300   0.0000       1.478254        40.2253 
 301   0.0000       1.484553        40.3967 
 302   0.0000       1.487660        40.4813 
 303   0.0000       1.493855        40.6499 
 304   0.0000       1.495625        40.6980 
 305   0.0000       1.497819        40.7577 
 306   0.0000       1.510023        41.0898 
 307   0.0000       1.521578        41.4042 
 308   0.0000       1.531799        41.6824 
 309   0.0000       1.544507        42.0282 
 310   0.0000       1.556515        42.3549 
 311   0.0000       1.569940        42.7202 
 312   0.0000       1.581103        43.0240 
 313   0.0000       1.586572        43.1728 
 314   0.0000       1.586758        43.1779 
 315   0.0000       1.599608        43.5276 
 316   0.0000       1.601931        43.5907 
 317   0.0000       1.607892        43.7530 
 318   0.0000       1.616556        43.9887 
 319   0.0000       1.620775        44.1035 
 320   0.0000       1.624215        44.1971 
 321   0.0000       1.629049        44.3287 
 322   0.0000       1.631778        44.4029 
 323   0.0000       1.635908        44.5153 
 324   0.0000       1.638606        44.5887 
 325   0.0000       1.645594        44.7789 
 326   0.0000       1.646983        44.8167 
 327   0.0000       1.649361        44.8814 
 328   0.0000       1.652597        44.9694 
 329   0.0000       1.661113        45.2012 
 330   0.0000       1.661660        45.2161 
 331   0.0000       1.670830        45.4656 
 332   0.0000       1.672036        45.4984 
 333   0.0000       1.677292        45.6414 
 334   0.0000       1.685790        45.8727 
 335   0.0000       1.687526        45.9199 
 336   0.0000       1.689715        45.9795 
 337   0.0000       1.696054        46.1520 
 338   0.0000       1.698482        46.2181 
 339   0.0000       1.702566        46.3292 
 340   0.0000       1.704579        46.3840 
 341   0.0000       1.708129        46.4806 
 342   0.0000       1.712480        46.5989 
 343   0.0000       1.717424        46.7335 
 344   0.0000       1.722891        46.8822 
 345   0.0000       1.734618        47.2013 
 346   0.0000       1.736207        47.2446 
 347   0.0000       1.740371        47.3579 
 348   0.0000       1.744751        47.4771 
 349   0.0000       1.758197        47.8430 
 350   0.0000       1.763385        47.9841 
 351   0.0000       1.770466        48.1768 
 352   0.0000       1.780765        48.4571 
 353   0.0000       1.784734        48.5651 
 354   0.0000       1.790653        48.7261 
 355   0.0000       1.797362        48.9087 
 356   0.0000       1.798265        48.9333 
 357   0.0000       1.803283        49.0698 
 358   0.0000       1.805666        49.1347 
 359   0.0000       1.817294        49.4511 
 360   0.0000       1.825996        49.6879 
 361   0.0000       1.826988        49.7149 
 362   0.0000       1.836936        49.9856 
 363   0.0000       1.840901        50.0935 
 364   0.0000       1.847760        50.2801 
 365   0.0000       1.857732        50.5514 
 366   0.0000       1.858388        50.5693 
 367   0.0000       1.871148        50.9165 
 368   0.0000       1.875009        51.0216 
 369   0.0000       1.884254        51.2732 
 370   0.0000       1.892684        51.5026 
 371   0.0000       1.902598        51.7723 
 372   0.0000       1.910158        51.9780 
 373   0.0000       1.922556        52.3154 
 374   0.0000       1.926171        52.4138 
 375   0.0000       1.932614        52.5891 
 376   0.0000       1.957936        53.2781 
 377   0.0000       1.959355        53.3168 
 378   0.0000       1.967694        53.5437 
 379   0.0000       1.984614        54.0041 
 380   0.0000       1.994651        54.2772 
 381   0.0000       2.001252        54.4568 
 382   0.0000       2.010565        54.7103 
 383   0.0000       2.023759        55.0693 
 384   0.0000       2.032919        55.3185 
 385   0.0000       2.042210        55.5714 
 386   0.0000       2.047819        55.7240 
 387   0.0000       2.052103        55.8406 
 388   0.0000       2.068869        56.2968 
 389   0.0000       2.076549        56.5058 
 390   0.0000       2.079124        56.5758 
 391   0.0000       2.089757        56.8652 
 392   0.0000       2.112659        57.4884 
 393   0.0000       2.123263        57.7769 
 394   0.0000       2.130372        57.9704 
 395   0.0000       2.149744        58.4975 
 396   0.0000       2.155608        58.6571 
 397   0.0000       2.157715        58.7144 
 398   0.0000       2.178426        59.2780 
 399   0.0000       2.178756        59.2870 
 400   0.0000       2.193084        59.6769 
 401   0.0000       2.201797        59.9139 
 402   0.0000       2.209937        60.1354 
 403   0.0000       2.227930        60.6251 
 404   0.0000       2.231880        60.7325 
 405   0.0000       2.235492        60.8308 
 406   0.0000       2.245092        61.0921 
 407   0.0000       2.248067        61.1730 
 408   0.0000       2.274110        61.8817 
 409   0.0000       2.281880        62.0931 
 410   0.0000       2.301925        62.6386 
 411   0.0000       2.304144        62.6989 
 412   0.0000       2.305042        62.7234 
 413   0.0000       2.321318        63.1663 
 414   0.0000       2.329442        63.3873 
 415   0.0000       2.343105        63.7591 
 416   0.0000       2.368110        64.4395 
 417   0.0000       2.377241        64.6880 
 418   0.0000       2.407758        65.5184 
 419   0.0000       2.408849        65.5481 
 420   0.0000       2.410013        65.5798 
 421   0.0000       2.413600        65.6774 
 422   0.0000       2.413880        65.6850 
 423   0.0000       2.422878        65.9299 
 424   0.0000       2.429152        66.1006 
 425   0.0000       2.438871        66.3651 
 426   0.0000       2.447421        66.5977 
 427   0.0000       2.453361        66.7594 
 428   0.0000       2.473673        67.3121 
 429   0.0000       2.487196        67.6800 
 430   0.0000       2.503231        68.1164 
 431   0.0000       2.513510        68.3961 
 432   0.0000       2.522612        68.6438 
 433   0.0000       2.545277        69.2605 
 434   0.0000       2.548733        69.3545 
 435   0.0000       2.560243        69.6678 
 436   0.0000       2.583184        70.2920 
 437   0.0000       2.605054        70.8871 
 438   0.0000       2.624377        71.4129 
 439   0.0000       2.637062        71.7581 
 440   0.0000       2.641819        71.8875 
 441   0.0000       2.648761        72.0764 
 442   0.0000       2.661983        72.4362 
 443   0.0000       2.680542        72.9413 
 444   0.0000       2.712440        73.8092 
 445   0.0000       2.718201        73.9660 
 446   0.0000       2.722309        74.0778 
 447   0.0000       2.726478        74.1912 
 448   0.0000       2.766909        75.2914 
 449   0.0000       2.786482        75.8240 
 450   0.0000       2.812929        76.5437 
 451   0.0000       2.868293        78.0502 
 452   0.0000       2.875633        78.2500 
 453   0.0000       2.883488        78.4637 
 454   0.0000       2.946540        80.1794 
 455   0.0000       3.000282        81.6418 
 456   0.0000       3.082573        83.8811 
 457   0.0000       3.108002        84.5730 
 458   0.0000       3.204097        87.1879 
 459   0.0000       3.397486        92.4503 
 460   0.0000       3.613553        98.3298 

                 SPIN DOWN ORBITALS
  NO   OCC          E(Eh)            E(eV) 
   0   1.0000     -10.218219      -278.0519 
   1   1.0000     -10.213029      -277.9106 
   2   1.0000     -10.209528      -277.8154 
   3   1.0000     -10.200371      -277.5662 
   4   1.0000     -10.198397      -277.5125 
   5   1.0000     -10.197087      -277.4768 
   6   1.0000     -10.195361      -277.4299 
   7   1.0000     -10.195160      -277.4244 
   8   1.0000     -10.194413      -277.4041 
   9   1.0000     -10.192718      -277.3580 
  10   1.0000     -10.191398      -277.3220 
  11   1.0000     -10.190510      -277.2979 
  12   1.0000     -10.189916      -277.2817 
  13   1.0000     -10.188581      -277.2454 
  14   1.0000     -10.187950      -277.2282 
  15   1.0000     -10.187288      -277.2102 
  16   1.0000     -10.185588      -277.1639 
  17   1.0000     -10.183700      -277.1126 
  18   1.0000     -10.183651      -277.1112 
  19   1.0000     -10.182216      -277.0722 
  20   1.0000     -10.182121      -277.0696 
  21   1.0000     -10.181883      -277.0631 
  22   1.0000     -10.176973      -276.9295 
  23   1.0000     -10.175855      -276.8991 
  24   1.0000      -0.870163       -23.6783 
  25   1.0000      -0.857950       -23.3460 
  26   1.0000      -0.814768       -22.1710 
  27   1.0000      -0.796264       -21.6674 
  28   1.0000      -0.794205       -21.6114 
  29   1.0000      -0.776577       -21.1317 
  30   1.0000      -0.765626       -20.8337 
  31   1.0000      -0.752162       -20.4674 
  32   1.0000      -0.742379       -20.2012 
  33   1.0000      -0.726449       -19.7677 
  34   1.0000      -0.712252       -19.3814 
  35   1.0000      -0.695394       -18.9226 
  36   1.0000      -0.653577       -17.7847 
  37   1.0000      -0.641456       -17.4549 
  38   1.0000      -0.621093       -16.9008 
  39   1.0000      -0.613162       -16.6850 
  40   1.0000      -0.607865       -16.5409 
  41   1.0000      -0.591537       -16.0965 
  42   1.0000      -0.578395       -15.7389 
  43   1.0000      -0.558786       -15.2054 
  44   1.0000      -0.542384       -14.7590 
  45   1.0000      -0.528463       -14.3802 
  46   1.0000      -0.504901       -13.7390 
  47   1.0000      -0.492594       -13.4042 
  48   1.0000      -0.484925       -13.1955 
  49   1.0000      -0.476257       -12.9596 
  50   1.0000      -0.470082       -12.7916 
  51   1.0000      -0.458650       -12.4805 
  52   1.0000      -0.455872       -12.4049 
  53   1.0000      -0.442145       -12.0314 
  54   1.0000      -0.430532       -11.7154 
  55   1.0000      -0.427823       -11.6417 
  56   1.0000      -0.425849       -11.5879 
  57   1.0000      -0.424660       -11.5556 
  58   1.0000      -0.419363       -11.4115 
  59   1.0000      -0.411436       -11.1957 
  60   1.0000      -0.396422       -10.7872 
  61   1.0000      -0.390354       -10.6221 
  62   1.0000      -0.380357       -10.3500 
[...]
      dyz     :    -0.000005
      dx2y2   :     0.000490
      dxy     :     0.000612
  2 C s       :     0.001433  s :     0.001433
      pz      :     0.017033  p :     0.022361
      px      :     0.001018
      py      :     0.004311
      dz2     :    -0.000089  d :    -0.006923
      dxz     :    -0.006080
      dyz     :     0.000047
      dx2y2   :    -0.000251
      dxy     :    -0.000550
  3 C s       :     0.005893  s :     0.005893
      pz      :     0.157759  p :     0.166609
      px      :     0.004160
      py      :     0.004690
      dz2     :    -0.000762  d :    -0.009035
      dxz     :    -0.001933
      dyz     :    -0.004372
      dx2y2   :    -0.000941
      dxy     :    -0.001028
  4 C s       :    -0.006638  s :    -0.006638
      pz      :    -0.088256  p :    -0.103731
      px      :    -0.006620
      py      :    -0.008855
      dz2     :     0.000512  d :     0.039443
      dxz     :     0.010831
      dyz     :     0.025199
      dx2y2   :     0.001354
      dxy     :     0.001548
  5 C s       :     0.005680  s :     0.005680
      pz      :     0.161457  p :     0.169970
      px      :     0.004528
      py      :     0.003985
      dz2     :    -0.000670  d :    -0.007915
      dxz     :    -0.003961
      dyz     :    -0.001622
      dx2y2   :    -0.000627
      dxy     :    -0.001035
  6 C s       :    -0.003636  s :    -0.003636
      pz      :    -0.064109  p :    -0.071588
      px      :    -0.002833
      py      :    -0.004646
      dz2     :     0.000345  d :     0.016631
      dxz     :     0.001887
      dyz     :     0.012821
      dx2y2   :     0.000618
      dxy     :     0.000960
  7 C s       :     0.006082  s :     0.006082
      pz      :     0.165931  p :     0.174885
      px      :     0.004446
      py      :     0.004509
      dz2     :    -0.000702  d :    -0.006236
      dxz     :    -0.002913
      dyz     :    -0.001467
      dx2y2   :    -0.000557
      dxy     :    -0.000597
  8 C s       :    -0.003865  s :    -0.003865
      pz      :    -0.070450  p :    -0.078383
      px      :    -0.004374
      py      :    -0.003559
      dz2     :     0.000328  d :     0.017329
      dxz     :     0.010982
      dyz     :     0.004661
      dx2y2   :     0.000697
      dxy     :     0.000660
  9 H s       :    -0.004898  s :    -0.004898
      pz      :     0.004984  p :     0.005777
      px      :     0.000285
      py      :     0.000509
 10 H s       :     0.002084  s :     0.002084
      pz      :    -0.002066  p :    -0.002550
      px      :    -0.000198
      py      :    -0.000285
 11 C s       :     0.017984  s :     0.017984
      pz      :     0.547420  p :     0.570593
      px      :     0.011708
      py      :     0.011464
      dz2     :    -0.002119  d :    -0.006383
      dxz     :    -0.000354
      dyz     :    -0.001687
      dx2y2   :    -0.001246
      dxy     :    -0.000977
 12 H s       :    -0.015225  s :    -0.015225
      pz      :     0.016190  p :     0.018623
      px      :     0.002249
      py      :     0.000183
 13 C s       :    -0.003459  s :    -0.003459
      pz      :    -0.003890  p :    -0.017889
      px      :    -0.005046
      py      :    -0.008953
      dz2     :     0.000414  d :     0.026892
      dxz     :     0.012498
      dyz     :     0.012504
      dx2y2   :     0.000655
      dxy     :     0.000820
 14 H s       :     0.025459  s :     0.025459
      pz      :    -0.000183  p :    -0.000593
      px      :    -0.000341
      py      :    -0.000069
 15 H s       :     0.025403  s :     0.025403
      pz      :    -0.000181  p :    -0.000593
      px      :    -0.000342
      py      :    -0.000070
 16 C s       :     0.000138  s :     0.000138
      pz      :     0.001067  p :     0.001552
      px      :     0.000320
      py      :     0.000165
      dz2     :    -0.000060  d :    -0.000508
      dxz     :     0.000158
      dyz     :    -0.000129
      dx2y2   :    -0.000406
      dxy     :    -0.000071
 17 H s       :     0.000143  s :     0.000143
      pz      :     0.000034  p :     0.000171
      px      :     0.000081
      py      :     0.000056
 18 H s       :     0.000141  s :     0.000141
      pz      :     0.000034  p :     0.000171
      px      :     0.000080
      py      :     0.000057
 19 C s       :    -0.000176  s :    -0.000176
      pz      :     0.000405  p :     0.000034
      px      :    -0.000059
      py      :    -0.000312
      dz2     :    -0.000004  d :     0.000115
      dxz     :     0.000013
      dyz     :     0.000116
      dx2y2   :     0.000008
      dxy     :    -0.000019
 20 H s       :     0.000214  s :     0.000214
      pz      :     0.000001  p :     0.000038
      px      :     0.000018
      py      :     0.000019
 21 H s       :     0.000214  s :     0.000214
      pz      :     0.000001  p :     0.000038
      px      :     0.000018
      py      :     0.000020
 22 C s       :    -0.001182  s :    -0.001182
      pz      :    -0.000340  p :    -0.005272
      px      :    -0.002206
      py      :    -0.002726
      dz2     :     0.000152  d :     0.008598
      dxz     :     0.004799
      dyz     :     0.003129
      dx2y2   :     0.000215
      dxy     :     0.000303
 23 H s       :     0.008111  s :     0.008111
      pz      :    -0.000077  p :    -0.000195
      px      :    -0.000145
      py      :     0.000028
 24 H s       :     0.008108  s :     0.008108
      pz      :    -0.000077  p :    -0.000195
      px      :    -0.000145
      py      :     0.000027
 25 C s       :     0.000038  s :     0.000038
      pz      :     0.000028  p :     0.000202
      px      :     0.000101
      py      :     0.000074
      dz2     :    -0.000015  d :    -0.000074
      dxz     :     0.000119
      dyz     :    -0.000026
      dx2y2   :    -0.000103
      dxy     :    -0.000048
 26 H s       :     0.000036  s :     0.000036
      pz      :     0.000007  p :     0.000021
      px      :     0.000011
      py      :     0.000003
 27 H s       :     0.000036  s :     0.000036
      pz      :     0.000007  p :     0.000021
      px      :     0.000011
      py      :     0.000003
 28 C s       :    -0.000048  s :    -0.000048
      pz      :     0.000178  p :     0.000067
      px      :    -0.000024
      py      :    -0.000086
      dz2     :    -0.000002  d :     0.000001
      dxz     :    -0.000002
      dyz     :     0.000013
      dx2y2   :    -0.000000
      dxy     :    -0.000007
 29 H s       :     0.000073  s :     0.000073
      pz      :     0.000001  p :     0.000020
      px      :     0.000006
      py      :     0.000013
 30 H s       :     0.000073  s :     0.000073
      pz      :     0.000001  p :     0.000020
      px      :     0.000006
      py      :     0.000013
 31 C s       :    -0.000009  s :    -0.000009
      pz      :    -0.000001  p :    -0.000046
      px      :    -0.000013
      py      :    -0.000032
      dz2     :    -0.000000  d :     0.000017
      dxz     :     0.000012
      dyz     :     0.000007
      dx2y2   :    -0.000003
      dxy     :     0.000001
 32 H s       :     0.000017  s :     0.000017
      pz      :    -0.000000  p :    -0.000001
      px      :    -0.000000
      py      :    -0.000001
 33 H s       :     0.000017  s :     0.000017
      pz      :    -0.000000  p :    -0.000001
      px      :    -0.000000
      py      :    -0.000001
 34 C s       :    -0.001139  s :    -0.001139
      pz      :    -0.029364  p :    -0.034614
      px      :    -0.000524
      py      :    -0.004726
      dz2     :     0.000122  d :     0.001859
      dxz     :     0.001349
      dyz     :     0.000000
      dx2y2   :     0.000145
      dxy     :     0.000244
 35 H s       :    -0.002633  s :    -0.002633
      pz      :     0.002139  p :     0.002765
      px      :     0.000411
      py      :     0.000215
 36 H s       :    -0.000132  s :    -0.000132
      pz      :     0.000033  p :     0.000021
      px      :     0.000003
      py      :    -0.000015
 37 H s       :    -0.000004  s :    -0.000004
      pz      :    -0.000000  p :    -0.000003
      px      :    -0.000001
      py      :    -0.000002
 38 C s       :     0.000429  s :     0.000429
      pz      :     0.005739  p :     0.006778
      px      :     0.000746
      py      :     0.000294
      dz2     :    -0.000039  d :    -0.002277
      dxz     :    -0.001678
      dyz     :    -0.000174
      dx2y2   :    -0.000114
      dxy     :    -0.000272
 39 C s       :    -0.000340  s :    -0.000340
      pz      :    -0.008137  p :    -0.008657
      px      :    -0.000262
      py      :    -0.000258
      dz2     :     0.000033  d :     0.000467
      dxz     :     0.000209
      dyz     :     0.000128
      dx2y2   :     0.000050
      dxy     :     0.000047
 40 C s       :     0.000189  s :     0.000189
      pz      :     0.003706  p :     0.004088
      px      :     0.000218
      py      :     0.000164
      dz2     :    -0.000019  d :    -0.000822
      dxz     :    -0.000560
      dyz     :    -0.000174
      dx2y2   :    -0.000033
      dxy     :    -0.000036
 41 C s       :    -0.000302  s :    -0.000302
      pz      :    -0.008661  p :    -0.009089
      px      :    -0.000197
      py      :    -0.000231
      dz2     :     0.000038  d :     0.000326
      dxz     :     0.000040
      dyz     :     0.000189
      dx2y2   :     0.000030
      dxy     :     0.000029
 42 C s       :     0.000188  s :     0.000188
      pz      :     0.003699  p :     0.004080
      px      :     0.000214
      py      :     0.000167
      dz2     :    -0.000019  d :    -0.000821
      dxz     :    -0.000540
      dyz     :    -0.000194
      dx2y2   :    -0.000034
      dxy     :    -0.000035
 43 C s       :    -0.000339  s :    -0.000339
      pz      :    -0.008124  p :    -0.008640
      px      :    -0.000266
      py      :    -0.000250
      dz2     :     0.000033  d :     0.000466
      dxz     :     0.000218
      dyz     :     0.000119
      dx2y2   :     0.000052
      dxy     :     0.000045
 44 H s       :     0.000273  s :     0.000273
      pz      :    -0.000264  p :    -0.000307
      px      :    -0.000038
      py      :    -0.000005
 45 H s       :    -0.000119  s :    -0.000119
      pz      :     0.000107  p :     0.000131
      px      :     0.000010
      py      :     0.000014
 46 H s       :     0.000253  s :     0.000253
      pz      :    -0.000220  p :    -0.000264
      px      :    -0.000013
      py      :    -0.000031
 47 H s       :     0.000245  s :     0.000245
      pz      :    -0.000219  p :    -0.000263
      px      :    -0.000012
      py      :    -0.000032
 48 H s       :    -0.000119  s :    -0.000119
      pz      :     0.000107  p :     0.000131
      px      :     0.000009
      py      :     0.000014


                      *****************************
                      * MAYER POPULATION ANALYSIS *
                      *****************************

  NA   - Mulliken gross atomic population
  ZA   - Total nuclear charge
  QA   - Mulliken gross atomic charge
  VA   - Mayer's total valence
  BVA  - Mayer's bonded valence
  FA   - Mayer's free valence

  ATOM       NA         ZA         QA         VA         BVA        FA
  0 C      6.5867     6.0000    -0.5867     3.4221     3.4151     0.0070
  1 C      5.3900     6.0000     0.6100     2.9365     2.9349     0.0016
  2 C      5.7375     6.0000     0.2625     2.5468     2.5462     0.0006
  3 C      6.0524     6.0000    -0.0524     3.7430     3.7077     0.0354
  4 C      5.9220     6.0000     0.0780     4.1247     4.1099     0.0148
  5 C      6.0266     6.0000    -0.0266     3.8697     3.8350     0.0347
  6 C      6.1433     6.0000    -0.1433     3.8200     3.8131     0.0070
  7 C      6.0907     6.0000    -0.0907     4.1555     4.1173     0.0382
  8 C      5.9682     6.0000     0.0318     3.8882     3.8800     0.0081
  9 H      1.0512     1.0000    -0.0512     1.0037     1.0036     0.0001
 10 H      1.0496     1.0000    -0.0496     1.0031     1.0031     0.0000
 11 C      6.0999     6.0000    -0.0999     3.9301     3.5523     0.3778
 12 H      1.0190     1.0000    -0.0190     1.0096     1.0083     0.0012
 13 C      5.9672     6.0000     0.0328     4.0100     4.0086     0.0015
 14 H      0.9712     1.0000     0.0288     0.9632     0.9621     0.0011
 15 H      0.9712     1.0000     0.0288     0.9632     0.9621     0.0011
 16 C      6.0404     6.0000    -0.0404     4.1320     4.1320     0.0000
 17 H      0.9870     1.0000     0.0130     0.9645     0.9645     0.0000
 18 H      0.9869     1.0000     0.0131     0.9645     0.9645     0.0000
 19 C      5.9948     6.0000     0.0052     4.0145     4.0145     0.0000
 20 H      0.9830     1.0000     0.0170     0.9776     0.9776     0.0000
 21 H      0.9830     1.0000     0.0170     0.9776     0.9776     0.0000
 22 C      5.9630     6.0000     0.0370     4.0303     4.0300     0.0002
 23 H      0.9665     1.0000     0.0335     0.9693     0.9692     0.0001
 24 H      0.9664     1.0000     0.0336     0.9693     0.9692     0.0001
 25 C      6.0367     6.0000    -0.0367     4.1123     4.1123     0.0000
 26 H      0.9828     1.0000     0.0172     0.9636     0.9636     0.0000
 27 H      0.9828     1.0000     0.0172     0.9636     0.9636     0.0000
 28 C      6.0242     6.0000    -0.0242     4.1143     4.1143     0.0000
 29 H      0.9946     1.0000     0.0054     0.9678     0.9678     0.0000
 30 H      0.9946     1.0000     0.0054     0.9678     0.9678     0.0000
 31 C      5.9966     6.0000     0.0034     4.0163     4.0163     0.0000
 32 H      0.9827     1.0000     0.0173     0.9777     0.9777     0.0000
 33 H      0.9827     1.0000     0.0173     0.9777     0.9777     0.0000
 34 C      5.8627     6.0000     0.1373     2.6653     2.6640     0.0012
 35 H      1.0253     1.0000    -0.0253     1.0307     1.0306     0.0000
 36 H      0.9848     1.0000     0.0152     0.9741     0.9741     0.0000
 37 H      0.9879     1.0000     0.0121     0.9743     0.9743     0.0000
 38 C      6.2575     6.0000    -0.2575     3.9242     3.9241     0.0001
 39 C      5.9673     6.0000     0.0327     3.9958     3.9957     0.0001
 40 C      5.9583     6.0000     0.0417     4.0020     4.0019     0.0000
 41 C      5.9740     6.0000     0.0260     3.9987     3.9986     0.0001
 42 C      5.9564     6.0000     0.0436     4.0010     4.0010     0.0000
 43 C      5.9723     6.0000     0.0277     3.9962     3.9961     0.0001
 44 H      1.0225     1.0000    -0.0225     0.9691     0.9691     0.0000
 45 H      1.0281     1.0000    -0.0281     0.9689     0.9689     0.0000
 46 H      1.0403     1.0000    -0.0403     0.9842     0.9842     0.0000
 47 H      1.0392     1.0000    -0.0392     0.9836     0.9836     0.0000
 48 H      1.0282     1.0000    -0.0282     0.9690     0.9690     0.0000

  Mayer bond orders larger than 0.100000
B(  0-C ,  1-C ) :   2.1459 B(  0-C , 35-H ) :   1.1061 B(  1-C ,  3-C ) :   0.9116 
B(  2-C ,  6-C ) :   0.8822 B(  2-C , 34-C ) :   1.7681 B(  2-C , 38-C ) :  -0.1762 
B(  3-C ,  4-C ) :   1.2785 B(  3-C ,  8-C ) :   1.3867 B(  4-C ,  5-C ) :   1.2925 
B(  4-C , 11-C ) :   1.3670 B(  5-C ,  6-C ) :   1.4404 B(  5-C ,  9-H ) :   0.9221 
B(  6-C ,  7-C ) :   1.3512 B(  7-C ,  8-C ) :   1.4186 B(  7-C , 22-C ) :   1.0968 
B(  8-C , 10-H ) :   0.9216 B( 11-C , 12-H ) :   0.9027 B( 11-C , 13-C ) :   1.0827 
B( 13-C , 14-H ) :   0.9123 B( 13-C , 15-H ) :   0.9123 B( 13-C , 16-C ) :   1.0717 
B( 16-C , 17-H ) :   0.9441 B( 16-C , 18-H ) :   0.9441 B( 16-C , 19-C ) :   1.1059 
B( 19-C , 20-H ) :   0.9654 B( 19-C , 21-H ) :   0.9654 B( 19-C , 36-H ) :   0.9612 
B( 22-C , 23-H ) :   0.8964 B( 22-C , 24-H ) :   0.8964 B( 22-C , 25-C ) :   1.1023 
B( 25-C , 26-H ) :   0.9296 B( 25-C , 27-H ) :   0.9296 B( 25-C , 28-C ) :   1.0740 
B( 28-C , 29-H ) :   0.9415 B( 28-C , 30-H ) :   0.9415 B( 28-C , 31-C ) :   1.1042 
B( 31-C , 32-H ) :   0.9665 B( 31-C , 33-H ) :   0.9665 B( 31-C , 37-H ) :   0.9625 
B( 34-C , 38-C ) :   0.9347 B( 38-C , 39-C ) :   1.4403 B( 38-C , 43-C ) :   1.4377 
B( 39-C , 40-C ) :   1.4723 B( 39-C , 46-H ) :   0.9403 B( 40-C , 41-C ) :   1.4451 
B( 40-C , 48-H ) :   0.9378 B( 41-C , 42-C ) :   1.4432 B( 41-C , 44-H ) :   0.9443 
B( 42-C , 43-C ) :   1.4730 B( 42-C , 45-H ) :   0.9377 B( 43-C , 47-H ) :   0.9407 


-------
TIMINGS
-------

Total SCF time: 0 days 0 hours 0 min 54 sec 

Total time                  ....      54.132 sec
Sum of individual times     ....      52.829 sec  ( 97.6%)

Fock matrix formation       ....      47.797 sec  ( 88.3%)
  XC integration            ....       2.287 sec  (  4.8% of F)
    Basis function eval.    ....       0.439 sec  ( 19.2% of XC)
    Density eval.           ....       0.387 sec  ( 16.9% of XC)
    XC-Functional eval.     ....       0.074 sec  (  3.2% of XC)
    XC-Potential eval.      ....       0.404 sec  ( 17.7% of XC)
Diagonalization             ....       1.423 sec  (  2.6%)
Density matrix formation    ....       0.093 sec  (  0.2%)
Population analysis         ....       0.261 sec  (  0.5%)
Initial guess               ....       0.173 sec  (  0.3%)
Orbital Transformation      ....       0.000 sec  (  0.0%)
Orbital Orthonormalization  ....       0.131 sec  (  0.2%)
DIIS solution               ....       0.882 sec  (  1.6%)
Grid generation             ....       2.200 sec  (  4.1%)

-------------------------   --------------------
FINAL SINGLE POINT ENERGY      -928.901021554154
-------------------------   --------------------

                                *** OPTIMIZATION RUN DONE ***

                            ***************************************
                            *     ORCA property calculations      *
                            ***************************************

                                    ---------------------
                                    Active property flags
                                    ---------------------
   (+) Dipole Moment


------------------------------------------------------------------------------
                       ORCA ELECTRIC PROPERTIES CALCULATION
------------------------------------------------------------------------------

Dipole Moment Calculation                       ... on
Quadrupole Moment Calculation                   ... off
Polarizability Calculation                      ... off
GBWName                                         ... opt.gbw
Electron density file                           ... opt.scfp
The origin for moment calculation is the CENTER OF MASS  = ( 3.161119,  0.006647 -0.005010)

-------------
DIPOLE MOMENT
-------------
                                X             Y             Z
Electronic contribution:      9.45501      -2.44402      -0.00336
Nuclear contribution   :     -9.08242       2.40652       0.00485
                        -----------------------------------------
Total Dipole Moment    :      0.37258      -0.03749       0.00149
                        -----------------------------------------
Magnitude (a.u.)       :      0.37447
Magnitude (Debye)      :      0.95183



--------------------
Rotational spectrum 
--------------------
 
Rotational constants in cm-1:     0.006659     0.004189     0.002580 
Rotational constants in MHz :   199.620044   125.573502    77.343008 

 Dipole components along the rotational axes: 
x,y,z [a.u.] :     0.330618    -0.175832     0.001484 
x,y,z [Debye]:     0.840365    -0.446929     0.003772 

 

Timings for individual modules:

Sum of individual times         ...      777.600 sec (=  12.960 min)
GTO integral calculation        ...       14.969 sec (=   0.249 min)   1.9 %
SCF iterations                  ...      578.710 sec (=   9.645 min)  74.4 %
SCF Gradient evaluation         ...      181.312 sec (=   3.022 min)  23.3 %
Geometry relaxation             ...        2.609 sec (=   0.043 min)   0.3 %
                             ****ORCA TERMINATED NORMALLY****
TOTAL RUN TIME: 0 days 0 hours 13 minutes 0 seconds 933 msec
