
                                 *****************
                                 * O   R   C   A *
                                 *****************

                                            #,                                       
                                            ###                                      
                                            ####                                     
                                            #####                                    
                                            ######                                   
                                           ########,                                 
                                     ,,################,,,,,                         
                               ,,#################################,,                 
                          ,,##########################################,,             
                       ,#########################################, ''#####,          
                    ,#############################################,,   '####,        
                  ,##################################################,,,,####,       
                ,###########''''           ''''###############################       
              ,#####''   ,,,,##########,,,,          '''####'''          '####       
            ,##' ,,,,###########################,,,                        '##       
           ' ,,###''''                  '''############,,,                           
         ,,##''                                '''############,,,,        ,,,,,,###''
      ,#''                                            '''#######################'''  
     '                                                          ''''####''''         
             ,#######,   #######,   ,#######,      ##                                
            ,#'     '#,  ##    ##  ,#'     '#,    #''#        ######   ,####,        
            ##       ##  ##   ,#'  ##            #'  '#       #        #'  '#        
            ##       ##  #######   ##           ,######,      #####,   #    #        
            '#,     ,#'  ##    ##  '#,     ,#' ,#      #,         ##   #,  ,#        
             '#######'   ##     ##  '#######'  #'      '#     #####' # '####'        



                  #######################################################
                  #                        -***-                        #
                  #          Department of theory and spectroscopy      #
                  #    Directorship and core code : Frank Neese         #
                  #        Max Planck Institute fuer Kohlenforschung    #
                  #                Kaiser Wilhelm Platz 1               #
                  #                 D-45470 Muelheim/Ruhr               #
                  #                      Germany                        #
                  #                                                     #
                  #                  All rights reserved                #
                  #                        -***-                        #
                  #######################################################


                         Program Version 5.0.4 -  RELEASE  -


 With contributions from (in alphabetic order):
   Daniel Aravena         : Magnetic Suceptibility
   Michael Atanasov       : Ab Initio Ligand Field Theory (pilot matlab implementation)
   Alexander A. Auer      : GIAO ZORA, VPT2 properties, NMR spectrum
   Ute Becker             : Parallelization
   Giovanni Bistoni       : ED, misc. LED, open-shell LED, HFLD
   Martin Brehm           : Molecular dynamics
   Dmytro Bykov           : SCF Hessian
   Vijay G. Chilkuri      : MRCI spin determinant printing, contributions to CSF-ICE
   Dipayan Datta          : RHF DLPNO-CCSD density
   Achintya Kumar Dutta   : EOM-CC, STEOM-CC
   Dmitry Ganyushin       : Spin-Orbit,Spin-Spin,Magnetic field MRCI
   Miquel Garcia          : C-PCM and meta-GGA Hessian, CC/C-PCM, Gaussian charge scheme
   Yang Guo               : DLPNO-NEVPT2, F12-NEVPT2, CIM, IAO-localization
   Andreas Hansen         : Spin unrestricted coupled pair/coupled cluster methods
   Benjamin Helmich-Paris : MC-RPA, TRAH-SCF, COSX integrals
   Lee Huntington         : MR-EOM, pCC
   Robert Izsak           : Overlap fitted RIJCOSX, COSX-SCS-MP3, EOM
   Marcus Kettner         : VPT2
   Christian Kollmar      : KDIIS, OOCD, Brueckner-CCSD(T), CCSD density, CASPT2, CASPT2-K
   Simone Kossmann        : Meta GGA functionals, TD-DFT gradient, OOMP2, MP2 Hessian
   Martin Krupicka        : Initial AUTO-CI
   Lucas Lang             : DCDCAS
   Marvin Lechner         : AUTO-CI (C++ implementation), FIC-MRCC
   Dagmar Lenk            : GEPOL surface, SMD
   Dimitrios Liakos       : Extrapolation schemes; Compound Job, initial MDCI parallelization
   Dimitrios Manganas     : Further ROCIS development; embedding schemes
   Dimitrios Pantazis     : SARC Basis sets
   Anastasios Papadopoulos: AUTO-CI, single reference methods and gradients
   Taras Petrenko         : DFT Hessian,TD-DFT gradient, ASA, ECA, R-Raman, ABS, FL, XAS/XES, NRVS
   Peter Pinski           : DLPNO-MP2, DLPNO-MP2 Gradient
   Christoph Reimann      : Effective Core Potentials
   Marius Retegan         : Local ZFS, SOC
   Christoph Riplinger    : Optimizer, TS searches, QM/MM, DLPNO-CCSD(T), (RO)-DLPNO pert. Triples
   Tobias Risthaus        : Range-separated hybrids, TD-DFT gradient, RPA, STAB
   Michael Roemelt        : Original ROCIS implementation
   Masaaki Saitow         : Open-shell DLPNO-CCSD energy and density
   Barbara Sandhoefer     : DKH picture change effects
   Avijit Sen             : IP-ROCIS
   Kantharuban Sivalingam : CASSCF convergence, NEVPT2, FIC-MRCI
   Bernardo de Souza      : ESD, SOC TD-DFT
   Georgi Stoychev        : AutoAux, RI-MP2 NMR, DLPNO-MP2 response
   Willem Van den Heuvel  : Paramagnetic NMR
   Boris Wezisla          : Elementary symmetry handling
   Frank Wennmohs         : Technical directorship


 We gratefully acknowledge several colleagues who have allowed us to
 interface, adapt or use parts of their codes:
   Stefan Grimme, W. Hujo, H. Kruse, P. Pracht,  : VdW corrections, initial TS optimization,
                  C. Bannwarth, S. Ehlert          DFT functionals, gCP, sTDA/sTD-DF
   Ed Valeev, F. Pavosevic, A. Kumar             : LibInt (2-el integral package), F12 methods
   Garnet Chan, S. Sharma, J. Yang, R. Olivares  : DMRG
   Ulf Ekstrom                                   : XCFun DFT Library
   Mihaly Kallay                                 : mrcc  (arbitrary order and MRCC methods)
   Jiri Pittner, Ondrej Demel                    : Mk-CCSD
   Frank Weinhold                                : gennbo (NPA and NBO analysis)
   Christopher J. Cramer and Donald G. Truhlar   : smd solvation model
   Lars Goerigk                                  : TD-DFT with DH, B97 family of functionals
   V. Asgeirsson, H. Jonsson                     : NEB implementation
   FAccTs GmbH                                   : IRC, NEB, NEB-TS, DLPNO-Multilevel, CI-OPT
                                                   MM, QMMM, 2- and 3-layer-ONIOM, Crystal-QMMM,
                                                   LR-CPCM, SF, NACMEs, symmetry and pop. for TD-DFT,
                                                   nearIR, NL-DFT gradient (VV10), updates on ESD,
                                                   ML-optimized integration grids
   S Lehtola, MJT Oliveira, MAL Marques          : LibXC Library
   Liviu Ungur et al                             : ANISO software


 Your calculation uses the libint2 library for the computation of 2-el integrals
 For citations please refer to: http://libint.valeyev.net

 Your ORCA version has been built with support for libXC version: 5.1.0
 For citations please refer to: https://tddft.org/programs/libxc/

 This ORCA versions uses:
   CBLAS   interface :  Fast vector & matrix operations
   LAPACKE interface :  Fast linear algebra routines
   SCALAPACK package :  Parallel linear algebra routines
   Shared memory     :  Shared parallel matrices
   BLAS/LAPACK       :  OpenBLAS 0.3.15  USE64BITINT DYNAMIC_ARCH NO_AFFINITY SkylakeX SINGLE_THREADED
        Core in use  :  SkylakeX
   Copyright (c) 2011-2014, The OpenBLAS Project




***************************************
The coordinates will be read from file: model.xyz
***************************************


================================================================================

----- Orbital basis set information -----
Your calculation utilizes the basis: cc-pVDZ 
       H, B-Ne : Obtained from the ccRepo (grant-hill.group.shef.ac.uk/ccrepo) Feb. 2017
                 T. H. Dunning, Jr., J. Chem. Phys. 90, 1007 (1989)
            He : Obtained from the ccRepo (grant-hill.group.shef.ac.uk/ccrepo) Feb. 2017
                 D. E. Woon, T. H. Dunning, Jr., J. Chem. Phys. 100, 2975 (1994)
  Li-Be, Na-Mg : Obtained from the ccRepo (grant-hill.group.shef.ac.uk/ccrepo) Feb. 2017
                 B. P. Prascher, D. E. Woon, K. A. Peterson, T. H. Dunning, Jr., A. K. Wilson, Theor. Chem. Acc. 128, 69 (2011)
         Al-Ar : Obtained from the ccRepo (grant-hill.group.shef.ac.uk/ccrepo) Feb. 2017
                 D. E. Woon, T. H. Dunning, Jr., J. Chem. Phys. 98, 1358 (1993)
            Ca : Obtained from the Peterson Research Group Website (tyr0.chem.wsu.edu/~kipeters) Feb. 2017
                 J. Koput, K. A. Peterson, J. Phys. Chem. 106, 9595 (2002)
         Sc-Zn : Obtained from the ccRepo (grant-hill.group.shef.ac.uk/ccrepo) Feb. 2017
                 N. B. Balabanov, K. A. Peterson, J. Chem. Phys. 123, 064107 (2005)
                 N. B. Balabanov, K. A. Peterson, J. Chem. Phys. 125, 074110 (2006)
         Ga-Kr : Obtained from the ccRepo (grant-hill.group.shef.ac.uk/ccrepo) Feb. 2017
                 A. K. Wilson, D. E. Woon, K. A. Peterson, T. H. Dunning, Jr., J. Chem. Phys. 110, 7667 (1999)

----- AuxJ basis set information -----
Your calculation utilizes the auxiliary basis: def2/J
   F. Weigend, Phys. Chem. Chem. Phys. 8, 1057 (2006).

================================================================================
                                        WARNINGS
                       Please study these warnings very carefully!
================================================================================


WARNING: your system is open-shell and RHF/RKS was chosen
  ===> : WILL SWITCH to UHF/UKS


WARNING: Geometry Optimization
  ===> : Switching off AutoStart
         For restart on a previous wavefunction, please use MOREAD

INFO   : the flag for use of the SHARK integral package has been found!

================================================================================
                                       INPUT FILE
================================================================================
NAME = opt.inp
|  1> ! B3LYP cc-pVDZ OPT
|  2> %pal nprocs 16 end
|  3> *XYZFile 0 2 model.xyz
|  4> 
|  5>                          ****END OF INPUT****
================================================================================

                       *****************************
                       * Geometry Optimization Run *
                       *****************************

Geometry optimization settings:
Update method            Update   .... BFGS
Choice of coordinates    CoordSys .... Z-matrix Internals
Initial Hessian          InHess   .... Almoef's Model

Convergence Tolerances:
Energy Change            TolE     ....  5.0000e-06 Eh
Max. Gradient            TolMAXG  ....  3.0000e-04 Eh/bohr
RMS Gradient             TolRMSG  ....  1.0000e-04 Eh/bohr
Max. Displacement        TolMAXD  ....  4.0000e-03 bohr
RMS Displacement         TolRMSD  ....  2.0000e-03 bohr
Strict Convergence                ....  False
------------------------------------------------------------------------------
                        ORCA OPTIMIZATION COORDINATE SETUP
------------------------------------------------------------------------------

The optimization will be done in new redundant internal coordinates
Making redundant internal coordinates   ...  (new redundants) done
Evaluating the initial hessian          ...  (Almloef) done
Evaluating the coordinates              ...  done
Calculating the B-matrix                .... done
Calculating the G-matrix                .... done
Diagonalizing the G-matrix              .... done
Small eigenvalue found = 7.141e-04
Small eigenvalue found = 1.974e-03
Small eigenvalue found = 5.866e-03
Small eigenvalue found = 8.377e-03
Small eigenvalue found = 1.619e-02
Small eigenvalue found = 1.885e-02
Small eigenvalue found = 1.983e-02
Small eigenvalue found = 2.419e-02
Small eigenvalue found = 2.969e-02
Small eigenvalue found = 2.975e-02
The first mode is                       ....  111
The number of degrees of freedom        ....  141

    -----------------------------------------------------------------
                    Redundant Internal Coordinates


    -----------------------------------------------------------------
         Definition                    Initial Value    Approx d2E/dq
    -----------------------------------------------------------------
      1. B(C   1,C   0)                  1.2174         1.177939   
      2. B(C   3,C   1)                  1.4275         0.544460   
      3. B(C   4,C   3)                  1.4429         0.514393   
      4. B(C   5,C   4)                  1.4228         0.553832   
      5. B(C   6,C   2)                  1.4289         0.541579   
      6. B(C   6,C   5)                  1.3979         0.606932   
      7. B(C   7,C   6)                  1.4312         0.537055   
      8. B(C   8,C   7)                  1.3965         0.610044   
      9. B(C   8,C   3)                  1.4056         0.589989   
     10. B(H   9,C   5)                  1.0901         0.359950   
     11. B(H  10,C   8)                  1.0898         0.360326   
     12. B(C  11,C   4)                  1.4131         0.573882   
     13. B(H  12,C  11)                  1.0936         0.355393   
     14. B(C  13,C  11)                  1.4992         0.418328   
     15. B(H  14,C  13)                  1.1100         0.334649   
     16. B(H  15,C  13)                  1.1099         0.334664   
     17. B(C  16,C  13)                  1.5339         0.368300   
     18. B(H  17,C  16)                  1.1056         0.339991   
     19. B(H  18,C  16)                  1.1056         0.339985   
     20. B(C  19,C  16)                  1.5295         0.374270   
     21. B(H  20,C  19)                  1.1040         0.342091   
     22. B(H  21,C  19)                  1.1040         0.342093   
     23. B(C  22,C   7)                  1.5146         0.395272   
     24. B(H  23,C  22)                  1.1066         0.338779   
     25. B(H  24,C  22)                  1.1066         0.338779   
     26. B(C  25,C  22)                  1.5308         0.372491   
     27. B(H  26,C  25)                  1.1060         0.339529   
     28. B(H  27,C  25)                  1.1060         0.339527   
     29. B(C  28,C  25)                  1.5331         0.369388   
     30. B(H  29,C  28)                  1.1063         0.339130   
     31. B(H  30,C  28)                  1.1063         0.339131   
     32. B(C  31,C  28)                  1.5303         0.373188   
     33. B(H  32,C  31)                  1.1039         0.342111   
     34. B(H  33,C  31)                  1.1040         0.342110   
     35. B(C  34,C   2)                  1.2220         1.157990   
     36. B(H  35,C   0)                  1.0725         0.384080   
     37. B(H  36,C  19)                  1.1018         0.344831   
     38. B(H  37,C  31)                  1.1020         0.344612   
     39. B(C  38,C  34)                  1.4282         0.542894   
     40. B(C  39,C  38)                  1.4120         0.576355   
     41. B(C  40,C  39)                  1.3946         0.614434   
     42. B(C  41,C  40)                  1.3995         0.603357   
     43. B(C  42,C  41)                  1.3996         0.603191   
     44. B(C  43,C  42)                  1.3943         0.614946   
     45. B(C  43,C  38)                  1.4121         0.576010   
     46. B(H  44,C  41)                  1.0927         0.356499   
     47. B(H  45,C  42)                  1.0924         0.356880   
     48. B(H  46,C  39)                  1.0914         0.358281   
     49. B(H  47,C  43)                  1.0917         0.357852   
     50. B(H  48,C  40)                  1.0927         0.356557   
     51. L(C   1,C   0,H  35, 2)       179.8728         0.398655   
     52. L(C   1,C   0,H  35, 1)       180.2994         0.398655   
     53. L(C   0,C   1,C   3,C   8, 2) 179.8146         0.476452   
     54. L(C   0,C   1,C   3,C   8, 1) 178.9806         0.476452   
     55. L(C   6,C   2,C  34,C   5, 2) 179.8842         0.474494   
     56. L(C   6,C   2,C  34,C   5, 1) 179.7252         0.474494   
     57. A(C   1,C   3,C   8)          118.8411         0.420325   
     58. A(C   4,C   3,C   8)          120.0560         0.416092   
     59. A(C   1,C   3,C   4)          121.1029         0.410200   
     60. A(C   3,C   4,C   5)          116.4756         0.411443   
     61. A(C   5,C   4,C  11)          121.8223         0.419530   
     62. A(C   3,C   4,C  11)          121.7021         0.414049   
     63. A(C   4,C   5,H   9)          119.1742         0.346229   
     64. A(C   4,C   5,C   6)          122.7236         0.423745   
     65. A(C   6,C   5,H   9)          118.1022         0.351615   
     66. A(C   5,C   6,C   7)          120.2569         0.421423   
     67. A(C   2,C   6,C   5)          119.2808         0.422055   
     68. A(C   2,C   6,C   7)          120.4624         0.412961   
     69. A(C   8,C   7,C  22)          122.8319         0.399501   
     70. A(C   6,C   7,C  22)          119.6100         0.390673   
     71. A(C   6,C   7,C   8)          117.5581         0.421808   
     72. A(C   3,C   8,H  10)          117.4261         0.349999   
     73. A(C   7,C   8,H  10)          119.6440         0.351981   
     74. A(C   3,C   8,C   7)          122.9299         0.428965   
     75. A(C   4,C  11,C  13)          124.8918         0.399191   
     76. A(H  12,C  11,C  13)          117.8951         0.329705   
     77. A(C   4,C  11,H  12)          117.2131         0.347561   
     78. A(H  15,C  13,C  16)          109.1739         0.319706   
     79. A(H  14,C  13,C  16)          109.1731         0.319703   
     80. A(C  11,C  13,C  16)          113.4887         0.369564   
     81. A(H  14,C  13,H  15)          104.6160         0.284254   
     82. A(C  11,C  13,H  15)          110.0045         0.326453   
     83. A(C  11,C  13,H  14)          110.0030         0.326451   
     84. A(C  13,C  16,C  19)          113.1336         0.362585   
     85. A(H  17,C  16,H  18)          106.0306         0.285656   
     86. A(C  13,C  16,H  18)          108.9784         0.320531   
     87. A(C  13,C  16,H  17)          108.9771         0.320532   
     88. A(H  18,C  16,C  19)          109.7349         0.321375   
     89. A(H  17,C  16,C  19)          109.7351         0.321376   
     90. A(H  20,C  19,H  21)          107.3407         0.286206   
     91. A(C  16,C  19,H  21)          111.3121         0.321700   
     92. A(C  16,C  19,H  20)          111.3123         0.321700   
     93. A(H  21,C  19,H  36)          107.6214         0.286563   
     94. A(H  20,C  19,H  36)          107.6207         0.286562   
     95. A(C  16,C  19,H  36)          111.4286         0.322121   
     96. A(H  24,C  22,C  25)          109.1974         0.320938   
     97. A(H  23,C  22,C  25)          109.1957         0.320938   
     98. A(C   7,C  22,C  25)          116.9193         0.366697   
     99. A(H  23,C  22,H  24)          104.4124         0.285339   
    100. A(C   7,C  22,H  24)          108.1946         0.324075   
    101. A(C   7,C  22,H  23)          108.1942         0.324075   
    102. A(H  27,C  25,C  28)          109.0337         0.320615   
    103. A(H  26,C  25,C  28)          109.0331         0.320615   
    104. A(C  22,C  25,C  28)          112.6395         0.362473   
    105. A(H  26,C  25,H  27)          106.2234         0.285536   
    106. A(C  22,C  25,H  27)          109.8506         0.321054   
    107. A(C  22,C  25,H  26)          109.8513         0.321054   
    108. A(H  30,C  28,C  31)          109.5505         0.321090   
    109. A(H  29,C  28,C  31)          109.5509         0.321090   
    110. A(C  25,C  28,C  31)          113.1564         0.362588   
    111. A(H  29,C  28,H  30)          105.8903         0.285431   
    112. A(C  25,C  28,H  30)          109.2167         0.320553   
    113. A(C  25,C  28,H  29)          109.2175         0.320553   
    114. A(H  32,C  31,H  33)          107.3517         0.286211   
    115. A(C  28,C  31,H  33)          111.2995         0.321550   
    116. A(C  28,C  31,H  32)          111.2994         0.321551   
    117. A(H  33,C  31,H  37)          107.5886         0.286536   
    118. A(H  32,C  31,H  37)          107.5890         0.286537   
    119. A(C  28,C  31,H  37)          111.5042         0.321934   
    120. L(C   2,C  34,C  38,C  43, 2) 179.8689         0.474706   
    121. L(C   2,C  34,C  38,C  43, 1) 179.9911         0.474706   
    122. A(C  39,C  38,C  43)          118.7739         0.422805   
    123. A(C  34,C  38,C  43)          120.5972         0.418317   
    124. A(C  34,C  38,C  39)          120.6290         0.418361   
    125. A(C  40,C  39,H  46)          120.5078         0.352069   
    126. A(C  38,C  39,H  46)          119.0941         0.348287   
    127. A(C  38,C  39,C  40)          120.3981         0.427720   
    128. A(C  41,C  40,H  48)          120.0180         0.350702   
    129. A(C  39,C  40,H  48)          119.6244         0.351782   
    130. A(C  39,C  40,C  41)          120.3576         0.431248   
    131. A(C  42,C  41,H  44)          120.1470         0.350676   
    132. A(C  40,C  41,H  44)          120.1433         0.350693   
    133. A(C  40,C  41,C  42)          119.7097         0.429821   
    134. A(C  43,C  42,H  45)          119.5888         0.351886   
    135. A(C  41,C  42,H  45)          120.0690         0.350740   
    136. A(C  41,C  42,C  43)          120.3422         0.431291   
    137. A(C  42,C  43,H  47)          120.4651         0.352047   
    138. A(C  38,C  43,H  47)          119.1165         0.348182   
    139. A(C  38,C  43,C  42)          120.4185         0.427738   
    140. D(C  11,C   4,C   3,C   8)   -179.9898         0.018038   
    141. D(C   5,C   4,C   3,C   1)   -179.9865         0.018038   
    142. D(C   5,C   4,C   3,C   8)      0.0104         0.018038   
    143. D(C  11,C   4,C   3,C   1)      0.0133         0.018038   
    144. D(H   9,C   5,C   4,C  11)     -0.0029         0.020993   
    145. D(C   6,C   5,C   4,C  11)    179.9936         0.020993   
    146. D(H   9,C   5,C   4,C   3)    179.9968         0.020993   
    147. D(C   6,C   5,C   4,C   3)     -0.0066         0.020993   
    148. D(C   7,C   6,C   5,C   4)      0.0030         0.025426   
    149. D(C   7,C   6,C   5,H   9)    179.9996         0.025426   
    150. D(C   2,C   6,C   5,H   9)      0.0008         0.025426   
    151. D(C   2,C   6,C   5,C   4)   -179.9957         0.025426   
    152. D(C  22,C   7,C   6,C   2)     -0.0023         0.019702   
    153. D(C  22,C   7,C   6,C   5)    179.9990         0.019702   
    154. D(C   8,C   7,C   6,C   5)     -0.0029         0.019702   
    155. D(C   8,C   7,C   6,C   2)    179.9958         0.019702   
    156. D(H  10,C   8,C   7,C   6)   -179.9976         0.025703   
    157. D(H  10,C   8,C   7,C  22)      0.0004         0.025703   
    158. D(C   3,C   8,C   7,C  22)   -179.9948         0.025703   
    159. D(H  10,C   8,C   3,C   4)    179.9935         0.023954   
    160. D(C   7,C   8,C   3,C   4)     -0.0112         0.023954   
    161. D(C   3,C   8,C   7,C   6)      0.0071         0.025703   
    162. D(C   7,C   8,C   3,C   1)    179.9858         0.023954   
    163. D(H  10,C   8,C   3,C   1)     -0.0096         0.023954   
    164. D(C  13,C  11,C   4,C   5)      0.0016         0.022605   
    165. D(C  13,C  11,C   4,C   3)   -179.9981         0.022605   
    166. D(H  12,C  11,C   4,C   5)   -179.9885         0.022605   
    167. D(H  12,C  11,C   4,C   3)      0.0117         0.022605   
    168. D(H  15,C  13,C  11,C   4)     57.3100         0.012943   
    169. D(H  14,C  13,C  11,H  12)    122.5721         0.012943   
    170. D(H  14,C  13,C  11,C   4)    -57.4179         0.012943   
    171. D(C  16,C  13,C  11,H  12)     -0.0629         0.012943   
    172. D(C  16,C  13,C  11,C   4)    179.9471         0.012943   
    173. D(H  15,C  13,C  11,H  12)   -122.7000         0.012943   
    174. D(C  19,C  16,C  13,C  11)    179.9965         0.010850   
    175. D(C  19,C  16,C  13,H  14)     56.9044         0.010850   
    176. D(H  18,C  16,C  13,H  15)   -179.2684         0.010850   
    177. D(H  18,C  16,C  13,H  14)    -65.4551         0.010850   
    178. D(H  18,C  16,C  13,C  11)     57.6370         0.010850   
    179. D(H  17,C  16,C  13,H  15)     65.4498         0.010850   
    180. D(H  17,C  16,C  13,H  14)    179.2631         0.010850   
    181. D(C  19,C  16,C  13,H  15)    -56.9089         0.010850   
    182. D(H  17,C  16,C  13,C  11)    -57.6448         0.010850   
    183. D(H  36,C  19,C  16,H  18)    -58.0619         0.011183   
    184. D(H  36,C  19,C  16,H  17)     58.0665         0.011183   
    185. D(H  36,C  19,C  16,C  13)   -179.9985         0.011183   
    186. D(H  21,C  19,C  16,H  18)     62.0832         0.011183   
    187. D(H  21,C  19,C  16,H  17)    178.2116         0.011183   
    188. D(H  21,C  19,C  16,C  13)    -59.8534         0.011183   
    189. D(H  20,C  19,C  16,H  18)   -178.2063         0.011183   
    190. D(H  20,C  19,C  16,H  17)    -62.0778         0.011183   
    191. D(H  20,C  19,C  16,C  13)     59.8572         0.011183   
    192. D(C  25,C  22,C   7,C   8)     -0.0037         0.011608   
    193. D(C  25,C  22,C   7,C   6)    179.9942         0.011608   
    194. D(H  24,C  22,C   7,C   8)   -123.7200         0.011608   
    195. D(H  24,C  22,C   7,C   6)     56.2779         0.011608   
    196. D(H  23,C  22,C   7,C   8)    123.7098         0.011608   
    197. D(H  23,C  22,C   7,C   6)    -56.2923         0.011608   
    198. D(H  27,C  25,C  22,H  23)    -64.9467         0.011083   
    199. D(H  27,C  25,C  22,C   7)     58.2540         0.011083   
    200. D(H  26,C  25,C  22,H  24)     64.9605         0.011083   
    201. D(H  26,C  25,C  22,H  23)    178.5571         0.011083   
    202. D(H  26,C  25,C  22,C   7)    -58.2422         0.011083   
    203. D(C  28,C  25,C  22,H  24)    -56.7913         0.011083   
    204. D(C  28,C  25,C  22,H  23)     56.8053         0.011083   
    205. D(C  28,C  25,C  22,C   7)   -179.9940         0.011083   
    206. D(H  27,C  25,C  22,H  24)   -178.5433         0.011083   
    207. D(C  31,C  28,C  25,H  27)    -57.7723         0.010910   
    208. D(C  31,C  28,C  25,C  22)   -179.9860         0.010910   
    209. D(H  30,C  28,C  25,H  27)    179.9165         0.010910   
    210. D(H  30,C  28,C  25,H  26)    -64.5115         0.010910   
    211. D(H  30,C  28,C  25,C  22)     57.7028         0.010910   
    212. D(H  29,C  28,C  25,H  27)     64.5400         0.010910   
    213. D(C  31,C  28,C  25,H  26)     57.7997         0.010910   
    214. D(H  29,C  28,C  25,H  26)   -179.8880         0.010910   
    215. D(H  29,C  28,C  25,C  22)    -57.6738         0.010910   
    216. D(H  37,C  31,C  28,H  30)    -57.8697         0.011122   
    217. D(H  37,C  31,C  28,H  29)     57.8793         0.011122   
    218. D(H  37,C  31,C  28,C  25)   -179.9945         0.011122   
    219. D(H  33,C  31,C  28,H  30)     62.2765         0.011122   
    220. D(H  33,C  31,C  28,H  29)    178.0255         0.011122   
    221. D(H  33,C  31,C  28,C  25)    -59.8484         0.011122   
    222. D(H  32,C  31,C  28,H  30)   -178.0162         0.011122   
    223. D(H  32,C  31,C  28,H  29)    -62.2672         0.011122   
    224. D(H  32,C  31,C  28,C  25)     59.8589         0.011122   
    225. D(C  43,C  38,C   6,C   7)      0.0469         0.001500   
    226. D(C  43,C  38,C   6,C   5)   -179.9719         0.001500   
    227. D(C  39,C  38,C   6,C   7)   -179.9764         0.001500   
    228. D(C  39,C  38,C   6,C   5)      0.0048         0.001500   
    229. D(H  46,C  39,C  38,C  43)   -179.9959         0.022809   
    230. D(H  46,C  39,C  38,C  34)      0.0019         0.022809   
    231. D(C  40,C  39,C  38,C  43)      0.0062         0.022809   
    232. D(C  40,C  39,C  38,C  34)   -179.9960         0.022809   
    233. D(H  48,C  40,C  39,H  46)     -0.0004         0.026096   
    234. D(H  48,C  40,C  39,C  38)    179.9975         0.026096   
    235. D(C  41,C  40,C  39,H  46)    179.9992         0.026096   
    236. D(C  41,C  40,C  39,C  38)     -0.0029         0.026096   
    237. D(H  44,C  41,C  40,H  48)     -0.0008         0.025111   
    238. D(H  44,C  41,C  40,C  39)    179.9997         0.025111   
    239. D(C  42,C  41,C  40,H  48)    179.9987         0.025111   
    240. D(C  42,C  41,C  40,C  39)     -0.0009         0.025111   
    241. D(H  45,C  42,C  41,H  44)      0.0000         0.025097   
    242. D(H  45,C  42,C  41,C  40)   -179.9995         0.025097   
    243. D(C  43,C  42,C  41,H  44)   -179.9992         0.025097   
    244. D(C  43,C  42,C  41,C  40)      0.0013         0.025097   
    245. D(H  47,C  43,C  42,H  45)      0.0005         0.026142   
    246. D(H  47,C  43,C  42,C  41)    179.9997         0.026142   
    247. D(C  38,C  43,C  42,H  45)   -179.9972         0.026142   
    248. D(C  38,C  43,C  42,C  41)      0.0020         0.026142   
    249. D(H  47,C  43,C  38,C  39)    179.9965         0.022781   
    250. D(H  47,C  43,C  38,C  34)     -0.0013         0.022781   
    251. D(C  42,C  43,C  38,C  39)     -0.0057         0.022781   
    252. D(C  42,C  43,C  38,C  34)    179.9965         0.022781   
    -----------------------------------------------------------------

Number of atoms                         .... 49
Number of degrees of freedom            .... 252

         *************************************************************
         *                GEOMETRY OPTIMIZATION CYCLE   1            *
         *************************************************************
---------------------------------
CARTESIAN COORDINATES (ANGSTROEM)
---------------------------------
  C     -4.052050    0.116927   -0.001125
  C     -2.836378    0.052264   -0.003127
  C      2.843071   -0.006518   -0.002320
  C     -1.409806    0.001811   -0.003079
  C     -0.708557   -1.259257   -0.002689
  C      0.712795   -1.194669   -0.002375
  C      1.414315    0.014456   -0.002569
  C      0.706927    1.258607   -0.003039
  C     -0.688672    1.208330   -0.003353
  H      1.286848   -2.121389   -0.002022
  H     -1.261464    2.135496   -0.003754
  C     -1.398412   -2.492570   -0.002619
  H     -2.491323   -2.454264   -0.003073
  C     -0.743848   -3.841327   -0.002185
  H     -0.072555   -3.937857   -0.880844
  H     -0.071512   -3.936811    0.875776
  C     -1.742531   -5.005541   -0.000908
  H     -2.400810   -4.913594    0.882641
  H     -2.401935   -4.914599   -0.883727
  C     -1.066225   -6.377387   -0.000559
  H     -0.425031   -6.508405    0.888511
  H     -0.426089   -6.509376   -0.890245
  C      1.481771    2.560040   -0.003221
  H      2.159651    2.558698    0.871462
  H      2.160200    2.558136   -0.877478
  C      0.663517    3.853786   -0.003865
  H      0.000268    3.878256   -0.888605
  H     -0.000091    3.878895    0.880590
  C      1.543910    5.108858   -0.004150
  H      2.210188    5.086501    0.878769
  H      2.210174    5.086092   -0.887068
  C      0.737630    6.409502   -0.004451
  H      0.087385    6.478415    0.885008
  H      0.087250    6.477923   -0.893850
  C      4.064880   -0.030315   -0.003350
  H     -5.122667    0.179487    0.003014
  H     -1.808152   -7.191937    0.000335
  H      1.396204    7.293024   -0.004749
  C      5.492863   -0.057907   -0.002944
  C      6.188621   -1.286555   -0.002980
  C      7.583011   -1.307878   -0.002498
  C      8.308696   -0.111219   -0.002036
  C      7.628959    1.112211   -0.002076
  C      6.234984    1.143496   -0.002546
  H      9.401235   -0.132014   -0.001654
  H      8.189556    2.049849   -0.001725
  H      5.620265   -2.218262   -0.003355
  H      5.702728    2.096660   -0.002574
  H      8.108553   -2.265886   -0.002490

----------------------------
CARTESIAN COORDINATES (A.U.)
----------------------------
  NO LB      ZA    FRAG     MASS         X           Y           Z
   0 C     6.0000    0    12.011   -7.657266    0.220960   -0.002127
   1 C     6.0000    0    12.011   -5.359978    0.098764   -0.005910
   2 C     6.0000    0    12.011    5.372625   -0.012317   -0.004383
   3 C     6.0000    0    12.011   -2.664146    0.003422   -0.005818
   4 C     6.0000    0    12.011   -1.338979   -2.379651   -0.005082
   5 C     6.0000    0    12.011    1.346987   -2.257597   -0.004488
   6 C     6.0000    0    12.011    2.672669    0.027318   -0.004854
   7 C     6.0000    0    12.011    1.335898    2.378423   -0.005743
   8 C     6.0000    0    12.011   -1.301402    2.283412   -0.006337
   9 H     1.0000    0     1.008    2.431790   -4.008845   -0.003822
  10 H     1.0000    0     1.008   -2.383821    4.035503   -0.007094
  11 C     6.0000    0    12.011   -2.642616   -4.710274   -0.004950
  12 H     1.0000    0     1.008   -4.707918   -4.637886   -0.005806
  13 C     6.0000    0    12.011   -1.405670   -7.259057   -0.004128
  14 H     1.0000    0     1.008   -0.137109   -7.441471   -1.664555
  15 H     1.0000    0     1.008   -0.135139   -7.439494    1.654978
  16 C     6.0000    0    12.011   -3.292906   -9.459101   -0.001715
  17 H     1.0000    0     1.008   -4.536874   -9.285347    1.667950
  18 H     1.0000    0     1.008   -4.538999   -9.287246   -1.670002
  19 C     6.0000    0    12.011   -2.014872  -12.051514   -0.001055
  20 H     1.0000    0     1.008   -0.803192  -12.299104    1.679042
  21 H     1.0000    0     1.008   -0.805191  -12.300938   -1.682320
  22 C     6.0000    0    12.011    2.800141    4.837774   -0.006088
  23 H     1.0000    0     1.008    4.081150    4.835239    1.646824
  24 H     1.0000    0     1.008    4.082186    4.834177   -1.658193
  25 C     6.0000    0    12.011    1.253866    7.282601   -0.007304
  26 H     1.0000    0     1.008    0.000506    7.328841   -1.679220
  27 H     1.0000    0     1.008   -0.000171    7.330050    1.664074
  28 C     6.0000    0    12.011    2.917568    9.654343   -0.007842
  29 H     1.0000    0     1.008    4.176651    9.612093    1.660632
  30 H     1.0000    0     1.008    4.176624    9.611321   -1.676315
  31 C     6.0000    0    12.011    1.393919   12.112204   -0.008411
  32 H     1.0000    0     1.008    0.165134   12.242430    1.672423
  33 H     1.0000    0     1.008    0.164879   12.241500   -1.689132
  34 C     6.0000    0    12.011    7.681511   -0.057286   -0.006330
  35 H     1.0000    0     1.008   -9.680438    0.339180    0.005696
  36 H     1.0000    0     1.008   -3.416912  -13.590791    0.000633
  37 H     1.0000    0     1.008    2.638443   13.781818   -0.008974
  38 C     6.0000    0    12.011   10.380006   -0.109429   -0.005563
  39 C     6.0000    0    12.011   11.694799   -2.431236   -0.005631
  40 C     6.0000    0    12.011   14.329813   -2.471531   -0.004721
  41 C     6.0000    0    12.011   15.701161   -0.210173   -0.003847
  42 C     6.0000    0    12.011   14.416642    2.101774   -0.003923
  43 C     6.0000    0    12.011   11.782412    2.160894   -0.004811
  44 H     1.0000    0     1.008   17.765759   -0.249470   -0.003125
  45 H     1.0000    0     1.008   15.476017    3.873654   -0.003261
  46 H     1.0000    0     1.008   10.620762   -4.191907   -0.006340
  47 H     1.0000    0     1.008   10.776594    3.962114   -0.004864
  48 H     1.0000    0     1.008   15.322945   -4.281903   -0.004706

--------------------------------
INTERNAL COORDINATES (ANGSTROEM)
--------------------------------
 C      0   0   0     0.000000000000     0.00000000     0.00000000
 C      1   0   0     1.217392463402     0.00000000     0.00000000
 C      2   1   0     5.679752967333   177.54607745     0.00000000
 C      2   1   3     1.427464507844   178.97621835     2.99963735
 C      4   2   1     1.442928072681   121.10286574   174.59303150
 C      5   4   2     1.422818818095   116.47555857   180.01351862
 C      6   5   4     1.397896705323   122.72360118     0.00000000
 C      7   6   5     1.431192191456   120.25686941     0.00000000
 C      8   7   6     1.396504372313   117.55808612     0.00000000
 H      6   5   4     1.090113555167   119.17417606   179.99683386
 H      9   8   7     1.089829170978   119.64399652   180.00238616
 C      5   4   2     1.413138540800   121.70211242     0.00000000
 H     12   5   4     1.093581926460   117.21314781     0.00000000
 C     12   5   4     1.499200212954   124.89176181   180.00185957
 H     14  12   5     1.109953046002   110.00297251   302.58205182
 H     14  12   5     1.109940542124   110.00449967    57.30995082
 C     14  12   5     1.533871093628   113.48874361   179.94709893
 H     17  14  12     1.105642329404   108.97709710   302.35515742
 H     17  14  12     1.105646450357   108.97838878    57.63698762
 C     17  14  12     1.529493708470   113.13361820   179.99645651
 H     20  17  14     1.103965442474   111.31232746    59.85716274
 H     20  17  14     1.103964317510   111.31214955   300.14658950
 C      8   7   6     1.514632031446   119.61003540   179.99900754
 H     23   8   7     1.106614017851   108.19417346   303.70774145
 H     23   8   7     1.106613647898   108.19460158    56.27794367
 C     23   8   7     1.530790479478   116.91930285   179.99422215
 H     26  23   8     1.106012204731   109.85126413   301.75776385
 H     26  23   8     1.106014029284   109.85058089    58.25398954
 C     26  23   8     1.533068073999   112.63950750   180.00598017
 H     29  26  23     1.106332312690   109.21751814   302.32623354
 H     29  26  23     1.106331719220   109.21671286    57.70277628
 C     29  26  23     1.530281896808   113.15643723   180.01397685
 H     32  29  26     1.103949500289   111.29937649    59.85893786
 H     32  29  26     1.103950466015   111.29950519   300.15162688
 C      3   2   1     1.222042071308   179.47413880   183.77203682
 H      1   2   4     1.072450931048   179.67479455   342.41662336
 H     20  17  14     1.101793813071   111.42857475   180.00149974
 H     32  29  26     1.101966715990   111.50416404   180.00547969
 C     35   3   7     1.428248903248   179.93479586   250.24672649
 C     39  35   3     1.411968106084   120.62899535    97.78516240
 C     40  39  35     1.394552495566   120.39812521   180.00399064
 C     41  40  39     1.399504885731   120.35761788     0.00000000
 C     42  41  40     1.399579435644   119.70970085     0.00000000
 C     43  42  41     1.394325697236   120.34224050     0.00000000
 H     42  41  40     1.092736122162   120.14328880   179.99965750
 H     43  42  41     1.092444700176   120.06899553   180.00053576
 H     40  39  35     1.091378457992   119.09412098     0.00000000
 H     44  43  42     1.091704795595   120.46505926   179.99973754
 H     41  40  39     1.092691214875   119.62435666   179.99746342

---------------------------
INTERNAL COORDINATES (A.U.)
---------------------------
 C      0   0   0     0.000000000000     0.00000000     0.00000000
 C      1   0   0     2.300538353329     0.00000000     0.00000000
 C      2   1   0    10.733177616585   177.54607745     0.00000000
 C      2   1   3     2.697516985717   178.97621835     2.99963735
 C      4   2   1     2.726738888315   121.10286574   174.59303150
 C      5   4   2     2.688737904389   116.47555857   180.01351862
 C      6   5   4     2.641641936572   122.72360118     0.00000000
 C      7   6   5     2.704561286858   120.25686941     0.00000000
 C      8   7   6     2.639010808494   117.55808612     0.00000000
 H      6   5   4     2.060016074140   119.17417606   179.99683386
 H      9   8   7     2.059478665907   119.64399652   180.00238616
 C      5   4   2     2.670444831400   121.70211242     0.00000000
 H     12   5   4     2.066570346016   117.21314781     0.00000000
 C     12   5   4     2.833077822400   124.89176181   180.00185957
 H     14  12   5     2.097507278455   110.00297251   302.58205182
 H     14  12   5     2.097483649550   110.00449967    57.30995082
 C     14  12   5     2.898596291696   113.48874361   179.94709893
 H     17  14  12     2.089361204645   108.97709710   302.35515742
 H     17  14  12     2.089368992118   108.97838878    57.63698762
 C     17  14  12     2.890324232564   113.13361820   179.99645651
 H     20  17  14     2.086192347589   111.31232746    59.85716274
 H     20  17  14     2.086190221716   111.31214955   300.14658950
 C      8   7   6     2.862239733097   119.61003540   179.99900754
 H     23   8   7     2.091197429696   108.19417346   303.70774145
 H     23   8   7     2.091196730586   108.19460158    56.27794367
 C     23   8   7     2.892774774627   116.91930285   179.99422215
 H     26  23   8     2.090060167717   109.85126413   301.75776385
 H     26  23   8     2.090063615621   109.85058089    58.25398954
 C     26  23   8     2.897078804516   112.63950750   180.00598017
 H     29  26  23     2.090665084092   109.21751814   302.32623354
 H     29  26  23     2.090663962595   109.21671286    57.70277628
 C     29  26  23     2.891813692665   113.15643723   180.01397685
 H     32  29  26     2.086162221226   111.29937649    59.85893786
 H     32  29  26     2.086164046183   111.29950519   300.15162688
 C      3   2   1     2.309324838903   179.47413880   183.77203682
 H      1   2   4     2.026638551750   179.67479455   342.41662336
 H     20  17  14     2.082088562752   111.42857475   180.00149974
 H     32  29  26     2.082415301918   111.50416404   180.00547969
 C     35   3   7     2.698999278212   179.93479586   250.24672649
 C     39  35   3     2.668233030330   120.62899535    97.78516240
 C     40  39  35     2.635322295996   120.39812521   180.00399064
 C     41  40  39     2.644680957116   120.35761788     0.00000000
 C     42  41  40     2.644821836036   119.70970085     0.00000000
 C     43  42  41     2.634893709264   120.34224050     0.00000000
 H     42  41  40     2.064972007529   120.14328880   179.99965750
 H     43  42  41     2.064421299786   120.06899553   180.00053576
 H     40  39  35     2.062406394066   119.09412098     0.00000000
 H     44  43  42     2.063023082763   120.46505926   179.99973754
 H     41  40  39     2.064887145055   119.62435666   179.99746342

---------------------
BASIS SET INFORMATION
---------------------
There are 2 groups of distinct atoms

 Group   1 Type C   : 17s4p1d contracted to 3s2p1d pattern {881/31/1}
 Group   2 Type H   : 4s1p contracted to 2s1p pattern {31/1}

Atom   0C    basis set group =>   1
Atom   1C    basis set group =>   1
Atom   2C    basis set group =>   1
Atom   3C    basis set group =>   1
Atom   4C    basis set group =>   1
Atom   5C    basis set group =>   1
Atom   6C    basis set group =>   1
Atom   7C    basis set group =>   1
Atom   8C    basis set group =>   1
Atom   9H    basis set group =>   2
Atom  10H    basis set group =>   2
Atom  11C    basis set group =>   1
Atom  12H    basis set group =>   2
Atom  13C    basis set group =>   1
Atom  14H    basis set group =>   2
Atom  15H    basis set group =>   2
Atom  16C    basis set group =>   1
Atom  17H    basis set group =>   2
Atom  18H    basis set group =>   2
Atom  19C    basis set group =>   1
Atom  20H    basis set group =>   2
Atom  21H    basis set group =>   2
Atom  22C    basis set group =>   1
Atom  23H    basis set group =>   2
Atom  24H    basis set group =>   2
Atom  25C    basis set group =>   1
Atom  26H    basis set group =>   2
Atom  27H    basis set group =>   2
Atom  28C    basis set group =>   1
Atom  29H    basis set group =>   2
Atom  30H    basis set group =>   2
Atom  31C    basis set group =>   1
Atom  32H    basis set group =>   2
Atom  33H    basis set group =>   2
Atom  34C    basis set group =>   1
Atom  35H    basis set group =>   2
Atom  36H    basis set group =>   2
Atom  37H    basis set group =>   2
Atom  38C    basis set group =>   1
Atom  39C    basis set group =>   1
Atom  40C    basis set group =>   1
Atom  41C    basis set group =>   1
Atom  42C    basis set group =>   1
Atom  43C    basis set group =>   1
Atom  44H    basis set group =>   2
Atom  45H    basis set group =>   2
Atom  46H    basis set group =>   2
Atom  47H    basis set group =>   2
Atom  48H    basis set group =>   2
---------------------------------
AUXILIARY/J BASIS SET INFORMATION
---------------------------------
There are 2 groups of distinct atoms

 Group   1 Type C   : 12s5p4d2f1g contracted to 6s4p3d1f1g pattern {711111/2111/211/2/1}
 Group   2 Type H   : 5s2p1d contracted to 3s1p1d pattern {311/2/1}

Atom   0C    basis set group =>   1
Atom   1C    basis set group =>   1
Atom   2C    basis set group =>   1
Atom   3C    basis set group =>   1
Atom   4C    basis set group =>   1
Atom   5C    basis set group =>   1
Atom   6C    basis set group =>   1
Atom   7C    basis set group =>   1
Atom   8C    basis set group =>   1
Atom   9H    basis set group =>   2
Atom  10H    basis set group =>   2
Atom  11C    basis set group =>   1
Atom  12H    basis set group =>   2
Atom  13C    basis set group =>   1
Atom  14H    basis set group =>   2
Atom  15H    basis set group =>   2
Atom  16C    basis set group =>   1
Atom  17H    basis set group =>   2
Atom  18H    basis set group =>   2
Atom  19C    basis set group =>   1
Atom  20H    basis set group =>   2
Atom  21H    basis set group =>   2
Atom  22C    basis set group =>   1
Atom  23H    basis set group =>   2
Atom  24H    basis set group =>   2
Atom  25C    basis set group =>   1
Atom  26H    basis set group =>   2
Atom  27H    basis set group =>   2
Atom  28C    basis set group =>   1
Atom  29H    basis set group =>   2
Atom  30H    basis set group =>   2
Atom  31C    basis set group =>   1
Atom  32H    basis set group =>   2
Atom  33H    basis set group =>   2
Atom  34C    basis set group =>   1
Atom  35H    basis set group =>   2
Atom  36H    basis set group =>   2
Atom  37H    basis set group =>   2
Atom  38C    basis set group =>   1
Atom  39C    basis set group =>   1
Atom  40C    basis set group =>   1
Atom  41C    basis set group =>   1
Atom  42C    basis set group =>   1
Atom  43C    basis set group =>   1
Atom  44H    basis set group =>   2
Atom  45H    basis set group =>   2
Atom  46H    basis set group =>   2
Atom  47H    basis set group =>   2
Atom  48H    basis set group =>   2


           ************************************************************
           *        Program running with 16 parallel MPI-processes    *
           *              working on a common directory               *
           ************************************************************
------------------------------------------------------------------------------
                           ORCA GTO INTEGRAL CALCULATION
                           -- RI-GTO INTEGRALS CHOSEN --
------------------------------------------------------------------------------
------------------------------------------------------------------------------
                   ___                                                        
                  /   \      - P O W E R E D   B Y -                         
                 /     \                                                     
                 |  |  |   _    _      __       _____    __    __             
                 |  |  |  | |  | |    /  \     |  _  \  |  |  /  |          
                  \  \/   | |  | |   /    \    | | | |  |  | /  /          
                 / \  \   | |__| |  /  /\  \   | |_| |  |  |/  /          
                |  |  |   |  __  | /  /__\  \  |    /   |      \           
                |  |  |   | |  | | |   __   |  |    \   |  |\   \          
                \     /   | |  | | |  |  |  |  | |\  \  |  | \   \       
                 \___/    |_|  |_| |__|  |__|  |_| \__\ |__|  \__/        
                                                                              
                      - O R C A' S   B I G   F R I E N D -                    
                                      &                                       
                       - I N T E G R A L  F E E D E R -                       
                                                                              
 v1 FN, 2020, v2 2021                                                         
------------------------------------------------------------------------------


Reading SHARK input file opt.SHARKINP.tmp ... ok
----------------------
SHARK INTEGRAL PACKAGE
----------------------

Number of atoms                             ...     49
Number of basis functions                   ...    605
Number of shells                            ...    363
Maximum angular momentum                    ...      2
Integral batch strategy                     ... SHARK/LIBINT Hybrid
RI-J (if used) integral strategy            ... SPLIT-RIJ (Revised 2003 algorithm where possible)
Printlevel                                  ...      1
Contraction scheme used                     ... PARTIAL GENERAL contraction
Coulomb Range Separation                    ... NOT USED
Exchange Range Separation                   ... NOT USED
Finite Nucleus Model                        ... NOT USED
Auxiliary Coulomb fitting basis             ... AVAILABLE
   # of basis functions in Aux-J            ...   1451
   # of shells in Aux-J                     ...    485
   Maximum angular momentum in Aux-J        ...      4
Auxiliary J/K fitting basis                 ... NOT available
Auxiliary Correlation fitting basis         ... NOT available
Auxiliary 'external' fitting basis          ... NOT available
Integral threshold                          ...     2.500000e-11
Primitive cut-off                           ...     2.500000e-12
Primitive pair pre-selection threshold      ...     2.500000e-12

Calculating pre-screening integrals         ... done (  0.0 sec) Dimension = 363
Calculating pre-screening integrals (ORCA)  ... done (  0.1 sec) Dimension = 219
Organizing shell pair data                  ... done (  0.2 sec)
Shell pair information
Total number of shell pairs                 ...     66066
Shell pairs after pre-screening             ...     26299
Total number of primitive shell pairs       ...    106638
Primitive shell pairs kept                  ...     35593
          la=0 lb=0:  11404 shell pairs
          la=1 lb=0:   9279 shell pairs
          la=1 lb=1:   1650 shell pairs
          la=2 lb=0:   2805 shell pairs
          la=2 lb=1:    996 shell pairs
          la=2 lb=2:    165 shell pairs

Calculating one electron integrals          ... done (  0.0 sec)
Calculating RI/J V-Matrix + Cholesky decomp.... done (  0.2 sec)
Calculating Nuclear repulsion               ... done (  0.0 sec) ENN=   1724.113544119251 Eh

SHARK setup successfully completed in   0.8 seconds

Maximum memory used throughout the entire GTOINT-calculation: 37.8 MB


           ************************************************************
           *        Program running with 16 parallel MPI-processes    *
           *              working on a common directory               *
           ************************************************************
-------------------------------------------------------------------------------
                                 ORCA SCF
-------------------------------------------------------------------------------

------------
SCF SETTINGS
------------
Hamiltonian:
 Density Functional     Method          .... DFT(GTOs)
 Exchange Functional    Exchange        .... B88
   X-Alpha parameter    XAlpha          ....  0.666667
   Becke's b parameter  XBeta           ....  0.004200
 Correlation Functional Correlation     .... LYP
 LDA part of GGA corr.  LDAOpt          .... VWN-5
 Gradients option       PostSCFGGA      .... off
 Hybrid DFT is turned on
   Fraction HF Exchange ScalHFX         ....  0.200000
   Scaling of DF-GGA-X  ScalDFX         ....  0.720000
   Scaling of DF-GGA-C  ScalDFC         ....  0.810000
   Scaling of DF-LDA-C  ScalLDAC        ....  1.000000
   Perturbative correction              ....  0.000000
   Density functional embedding theory  .... OFF
   NL short-range parameter             ....  4.800000
 RI-approximation to the Coulomb term is turned on
   Number of AuxJ basis functions       .... 1451
   RIJ-COSX (HFX calculated with COS-X)).... on


General Settings:
 Integral files         IntName         .... opt
 Hartree-Fock type      HFTyp           .... UHF
 Total Charge           Charge          ....    0
 Multiplicity           Mult            ....    2
 Number of Electrons    NEL             ....  169
 Basis Dimension        Dim             ....  461
 Nuclear Repulsion      ENuc            ....   1724.1135441193 Eh

Convergence Acceleration:
 DIIS                   CNVDIIS         .... on
   Start iteration      DIISMaxIt       ....    12
   Startup error        DIISStart       ....  0.200000
   # of expansion vecs  DIISMaxEq       ....     5
   Bias factor          DIISBfac        ....   1.050
   Max. coefficient     DIISMaxC        ....  10.000
 Trust-Rad. Augm. Hess. CNVTRAH         .... auto
   Auto Start mean grad. ratio tolernc. ....  1.125000
   Auto Start start iteration           ....    20
   Auto Start num. interpolation iter.  ....    10
   Max. Number of Micro iterations      ....    16
   Max. Number of Macro iterations      .... Maxiter - #DIIS iter
   Number of Davidson start vectors     ....     2
   Converg. threshold I  (grad. norm)   ....   1.000e-05
   Converg. threshold II (energy diff.) ....   1.000e-08
   Grad. Scal. Fac. for Micro threshold ....   0.100
   Minimum threshold for Micro iter.    ....   0.010
   NR start threshold (gradient norm)   ....   0.001
   Initial trust radius                 ....   0.400
   Minimum AH scaling param. (alpha)    ....   1.000
   Maximum AH scaling param. (alpha)    .... 1000.000
   Orbital update algorithm             .... Taylor
   White noise on init. David. guess    .... on
   Maximum white noise                  ....   0.010
   Quad. conv. algorithm                .... NR
 SOSCF                  CNVSOSCF        .... off
 Level Shifting         CNVShift        .... on
   Level shift para.    LevelShift      ....    0.2500
   Turn off err/grad.   ShiftErr        ....    0.0010
 Zerner damping         CNVZerner       .... off
 Static damping         CNVDamp         .... on
   Fraction old density DampFac         ....    0.7000
   Max. Damping (<1)    DampMax         ....    0.9800
   Min. Damping (>=0)   DampMin         ....    0.0000
   Turn off err/grad.   DampErr         ....    0.1000
 Fernandez-Rico         CNVRico         .... off

SCF Procedure:
 Maximum # iterations   MaxIter         ....   125
 SCF integral mode      SCFMode         .... Direct
   Integral package                     .... SHARK and LIBINT hybrid scheme
 Reset frequency        DirectResetFreq ....    20
 Integral Threshold     Thresh          ....  2.500e-11 Eh
 Primitive CutOff       TCut            ....  2.500e-12 Eh

Convergence Tolerance:
 Convergence Check Mode ConvCheckMode   .... Total+1el-Energy
 Convergence forced     ConvForced      .... 0
 Energy Change          TolE            ....  1.000e-08 Eh
 1-El. energy change                    ....  1.000e-05 Eh
 DIIS Error             TolErr          ....  5.000e-07


Diagonalization of the overlap matrix:
Smallest eigenvalue                        ... 5.125e-05
Time for diagonalization                   ...    0.039 sec
Threshold for overlap eigenvalues          ... 1.000e-08
Number of eigenvalues below threshold      ... 0
Time for construction of square roots      ...    0.047 sec
Total time needed                          ...    0.087 sec

Time for model grid setup =    0.365 sec

------------------------------
INITIAL GUESS: MODEL POTENTIAL
------------------------------
Loading Hartree-Fock densities                     ... done
Calculating cut-offs                               ... done
Initializing the effective Hamiltonian             ... done
Setting up the integral package (SHARK)            ... done
Starting the Coulomb interaction                   ... done (   0.3 sec)
Reading the grid                                   ... done
Mapping shells                                     ... done
Starting the XC term evaluation                    ... done (   0.1 sec)
  promolecular density results
     # of electrons  =    168.989272152
     EX              =   -130.677369617
     EC              =     -5.564743461
     EX+EC           =   -136.242113078
Transforming the Hamiltonian                       ... done (   0.0 sec)
Diagonalizing the Hamiltonian                      ... done (   0.0 sec)
Back transforming the eigenvectors                 ... done (   0.0 sec)
Now organizing SCF variables                       ... done
                      ------------------
                      INITIAL GUESS DONE (   1.0 sec)
                      ------------------
-------------------
DFT GRID GENERATION
-------------------

General Integration Accuracy     IntAcc      ... 4.388
Radial Grid Type                 RadialGrid  ... OptM3 with GC (2021)
Angular Grid (max. ang.)         AngularGrid ... 4 (Lebedev-302)
Angular grid pruning method      GridPruning ... 4 (adaptive)
Weight generation scheme         WeightScheme... Becke
Basis function cutoff            BFCut       ... 1.0000e-11
Integration weight cutoff        WCut        ... 1.0000e-14
Angular grids for H and He will be reduced by one unit
Partially contracted basis set               ... off
Rotationally invariant grid construction     ... off

Total number of grid points                  ...   223173
Total number of batches                      ...     3511
Average number of points per batch           ...       63
Average number of grid points per atom       ...     4555
Time for grid setup =    1.464 sec

--------------------
COSX GRID GENERATION
--------------------

GRIDX 1
-------
General Integration Accuracy     IntAcc      ... 3.816
Radial Grid Type                 RadialGrid  ... OptM3 with GC (2021)
Angular Grid (max. ang.)         AngularGrid ... 1 (Lebedev-50)
Angular grid pruning method      GridPruning ... 4 (adaptive)
Weight generation scheme         WeightScheme... Becke
Basis function cutoff            BFCut       ... 1.0000e-11
Integration weight cutoff        WCut        ... 1.0000e-14
Angular grids for H and He will be reduced by one unit
Partially contracted basis set               ... on
Rotationally invariant grid construction     ... off

Total number of grid points                  ...    28455
Total number of batches                      ...      471
Average number of points per batch           ...       60
Average number of grid points per atom       ...      581
UseSFitting                                  ... on

GRIDX 2
-------
General Integration Accuracy     IntAcc      ... 4.020
Radial Grid Type                 RadialGrid  ... OptM3 with GC (2021)
Angular Grid (max. ang.)         AngularGrid ... 2 (Lebedev-110)
Angular grid pruning method      GridPruning ... 4 (adaptive)
Weight generation scheme         WeightScheme... Becke
Basis function cutoff            BFCut       ... 1.0000e-11
Integration weight cutoff        WCut        ... 1.0000e-14
Angular grids for H and He will be reduced by one unit
Partially contracted basis set               ... on
Rotationally invariant grid construction     ... off

Total number of grid points                  ...    60635
Total number of batches                      ...      973
Average number of points per batch           ...       62
Average number of grid points per atom       ...     1237
UseSFitting                                  ... on

GRIDX 3
-------
General Integration Accuracy     IntAcc      ... 4.338
Radial Grid Type                 RadialGrid  ... OptM3 with GC (2021)
Angular Grid (max. ang.)         AngularGrid ... 3 (Lebedev-194)
Angular grid pruning method      GridPruning ... 4 (adaptive)
Weight generation scheme         WeightScheme... Becke
Basis function cutoff            BFCut       ... 1.0000e-11
Integration weight cutoff        WCut        ... 1.0000e-14
Angular grids for H and He will be reduced by one unit
Partially contracted basis set               ... on
Rotationally invariant grid construction     ... off

Total number of grid points                  ...   132614
Total number of batches                      ...     2098
Average number of points per batch           ...       63
Average number of grid points per atom       ...     2706
UseSFitting                                  ... on

Time for X-Grid setup             =    2.510 sec

 re-compute Schwartz prescreening matrix in partically contracted basis (1) ...done (   0.105 sec)
--------------
SCF ITERATIONS
--------------
ITER       Energy         Delta-E        Max-DP      RMS-DP      [F,P]     Damp
               ***  Starting incremental Fock matrix formation  ***
  0   -928.3597136744   0.000000000000 0.06835450  0.00090702  0.0869656 0.7000
  1   -928.5976576011  -0.237943926717 0.05756101  0.00070569  0.0458024 0.7000
                               ***Turning on DIIS***
  2   -928.7057272413  -0.108069640202 0.12148478  0.00137704  0.0175543 0.0000
  3   -928.8595677986  -0.153840557283 0.02634081  0.00036251  0.0248993 0.0000
  4   -928.8984977472  -0.038929948584 0.01743658  0.00015367  0.0059168 0.0000
  5   -928.9009112825  -0.002413535347 0.00424834  0.00003747  0.0029265 0.0000
  6   -928.9012504048  -0.000339122336 0.00304324  0.00002156  0.0021062 0.0000
  7   -928.9013783512  -0.000127946334 0.00201021  0.00001428  0.0013970 0.0000
  8   -928.9014440364  -0.000065685227 0.00301337  0.00002511  0.0009049 0.0000
               *** Restarting incremental Fock matrix formation ***
                                   *** Resetting DIIS ***
  9   -928.9017503969  -0.000306360498 0.00138130  0.00001491  0.0008113 0.0000
 10   -928.9017426868   0.000007710076 0.00055275  0.00000487  0.0017816 0.0000
 11   -928.9017613801  -0.000018693276 0.00048002  0.00000473  0.0006233 0.0000
 12   -928.9017660916  -0.000004711492 0.00057051  0.00000456  0.0001985 0.0000
 13   -928.9017681082  -0.000002016582 0.00028547  0.00000258  0.0001940 0.0000
 14   -928.9017690732  -0.000000965020 0.00021415  0.00000183  0.0000979 0.0000
 15   -928.9017693268  -0.000000253596 0.00009098  0.00000071  0.0000822 0.0000
 16   -928.9017694058  -0.000000078979 0.00004836  0.00000045  0.0000384 0.0000
 17   -928.9017694432  -0.000000037388 0.00003598  0.00000032  0.0000253 0.0000
 18   -928.9017694471  -0.000000003918 0.00001564  0.00000018  0.0000109 0.0000
 19   -928.9017694542  -0.000000007111 0.00001169  0.00000011  0.0000097 0.0000
 20   -928.9017694613  -0.000000007081 0.00000995  0.00000008  0.0000038 0.0000
 21   -928.9017694483   0.000000012997 0.00001039  0.00000006  0.0000051 0.0000
 22   -928.9017694494  -0.000000001095 0.00000319  0.00000004  0.0000025 0.0000
 23   -928.9017694529  -0.000000003571 0.00000671  0.00000005  0.0000015 0.0000
 24   -928.9017694557  -0.000000002743 0.00000625  0.00000005  0.0000011 0.0000
                            ***DIIS convergence achieved***

               *****************************************************
               *                     SUCCESS                       *
               *           SCF CONVERGED AFTER  25 CYCLES          *
               *****************************************************

Old exchange energy                            =    -26.638329876 Eh
New exchange energy                            =    -26.638442390 Eh
Exchange energy change after final integration =     -0.000112514 Eh
Total energy after final integration           =   -928.901881953 Eh
Final COS-X integration done in                =     7.763 sec

----------------
TOTAL SCF ENERGY
----------------

Total Energy       :         -928.90188195 Eh          -25276.70525 eV

Components:
Nuclear Repulsion  :         1724.11354412 Eh           46915.51467 eV
Electronic Energy  :        -2653.01542607 Eh          -72192.21992 eV
One Electron Energy:        -4677.20957486 Eh         -127273.34298 eV
Two Electron Energy:         2024.19414879 Eh           55081.12306 eV
Max COSX asymmetry :            0.00000059 Eh               0.00002 eV

Virial components:
Potential Energy   :        -1851.36849363 Eh          -50378.29789 eV
Kinetic Energy     :          922.46661168 Eh           25101.59264 eV
Virial Ratio       :            2.00697616


DFT components:
N(Alpha)           :       85.000169002212 electrons
N(Beta)            :       84.000161719843 electrons
N(Total)           :      169.000330722055 electrons
E(X)               :     -105.658734547876 Eh       
E(C)               :       -6.575449899406 Eh       
E(XC)              :     -112.234184447282 Eh       
DFET-embed. en.    :        0.000000000000 Eh       

---------------
SCF CONVERGENCE
---------------

  Last Energy change         ...    1.6624e-08  Tolerance :   1.0000e-08
  Last MAX-Density change    ...    0.0000e+00  Tolerance :   1.0000e-07
  Last RMS-Density change    ...    0.0000e+00  Tolerance :   5.0000e-09
  Last DIIS Error            ...    7.1456e-07  Tolerance :   5.0000e-07

             **** THE GBW FILE WAS UPDATED (opt.gbw) ****
             **** DENSITY opt.scfp WAS UPDATED ****
             **** ENERGY FILE WAS UPDATED (opt.en.tmp) ****
----------------------
UHF SPIN CONTAMINATION
----------------------

Warning: in a DFT calculation there is little theoretical justification to 
         calculate <S**2> as in Hartree-Fock theory. We will do it anyways
         but you should keep in mind that the values have only limited relevance

Expectation value of <S**2>     :     0.787185
Ideal value S*(S+1) for S=0.5   :     0.750000
Deviation                       :     0.037185

             **** THE GBW FILE WAS UPDATED (opt.gbw) ****
             **** DENSITY opt.scfp WAS UPDATED ****
----------------
ORBITAL ENERGIES
----------------
                 SPIN UP ORBITALS
  NO   OCC          E(Eh)            E(eV) 
   0   1.0000     -10.216702      -278.0106 
   1   1.0000     -10.213365      -277.9198 
   2   1.0000     -10.212003      -277.8827 
   3   1.0000     -10.202213      -277.6163 
   4   1.0000     -10.198334      -277.5108 
   5   1.0000     -10.197311      -277.4829 
   6   1.0000     -10.197182      -277.4794 
   7   1.0000     -10.196190      -277.4524 
   8   1.0000     -10.195685      -277.4387 
   9   1.0000     -10.195480      -277.4331 
  10   1.0000     -10.194324      -277.4017 
  11   1.0000     -10.192079      -277.3406 
  12   1.0000     -10.190083      -277.2863 
  13   1.0000     -10.189764      -277.2776 
  14   1.0000     -10.189420      -277.2682 
  15   1.0000     -10.187930      -277.2277 
  16   1.0000     -10.187769      -277.2233 
  17   1.0000     -10.186995      -277.2022 
  18   1.0000     -10.185098      -277.1506 
  19   1.0000     -10.183598      -277.1098 
  20   1.0000     -10.182072      -277.0683 
  21   1.0000     -10.181765      -277.0599 
  22   1.0000     -10.176939      -276.9286 
  23   1.0000     -10.175659      -276.8937 
  24   1.0000      -0.873777       -23.7767 
  25   1.0000      -0.863470       -23.4962 
  26   1.0000      -0.819946       -22.3119 
  27   1.0000      -0.797966       -21.7138 
  28   1.0000      -0.796685       -21.6789 
  29   1.0000      -0.778311       -21.1789 
  30   1.0000      -0.767865       -20.8947 
  31   1.0000      -0.751178       -20.4406 
  32   1.0000      -0.744221       -20.2513 
  33   1.0000      -0.729991       -19.8641 
  34   1.0000      -0.713923       -19.4268 
  35   1.0000      -0.697711       -18.9857 
  36   1.0000      -0.656542       -17.8654 
  37   1.0000      -0.643569       -17.5124 
  38   1.0000      -0.620101       -16.8738 
  39   1.0000      -0.611551       -16.6412 
  40   1.0000      -0.609241       -16.5783 
  41   1.0000      -0.592385       -16.1196 
  42   1.0000      -0.579808       -15.7774 
  43   1.0000      -0.561670       -15.2838 
  44   1.0000      -0.541219       -14.7273 
  45   1.0000      -0.529737       -14.4149 
  46   1.0000      -0.507092       -13.7987 
  47   1.0000      -0.489851       -13.3295 
  48   1.0000      -0.480575       -13.0771 
  49   1.0000      -0.476049       -12.9540 
  50   1.0000      -0.470800       -12.8111 
  51   1.0000      -0.462027       -12.5724 
  52   1.0000      -0.457947       -12.4614 
  53   1.0000      -0.437265       -11.8986 
  54   1.0000      -0.431740       -11.7483 
  55   1.0000      -0.429262       -11.6808 
  56   1.0000      -0.426071       -11.5940 
  57   1.0000      -0.424465       -11.5503 
  58   1.0000      -0.421992       -11.4830 
  59   1.0000      -0.411847       -11.2069 
  60   1.0000      -0.398149       -10.8342 
  61   1.0000      -0.397818       -10.8252 
  62   1.0000      -0.383668       -10.4401 
  63   1.0000      -0.378488       -10.2992 
  64   1.0000      -0.377397       -10.2695 
  65   1.0000      -0.365168        -9.9367 
  66   1.0000      -0.361678        -9.8418 
  67   1.0000      -0.356517        -9.7013 
  68   1.0000      -0.354213        -9.6386 
  69   1.0000      -0.350722        -9.5436 
  70   1.0000      -0.340254        -9.2588 
  71   1.0000      -0.332439        -9.0461 
  72   1.0000      -0.332061        -9.0358 
  73   1.0000      -0.330340        -8.9890 
  74   1.0000      -0.327769        -8.9191 
  75   1.0000      -0.324237        -8.8229 
  76   1.0000      -0.321779        -8.7561 
  77   1.0000      -0.297309        -8.0902 
  78   1.0000      -0.275197        -7.4885 
  79   1.0000      -0.273484        -7.4419 
  80   1.0000      -0.268649        -7.3103 
  81   1.0000      -0.258825        -7.0430 
  82   1.0000      -0.255707        -6.9582 
  83   1.0000      -0.214639        -5.8406 
  84   1.0000      -0.173129        -4.7111 
  85   0.0000      -0.060141        -1.6365 
  86   0.0000      -0.010500        -0.2857 
  87   0.0000      -0.008911        -0.2425 
  88   0.0000       0.016557         0.4505 
  89   0.0000       0.041826         1.1382 
  90   0.0000       0.050832         1.3832 
  91   0.0000       0.054204         1.4750 
  92   0.0000       0.063103         1.7171 
  93   0.0000       0.064546         1.7564 
  94   0.0000       0.065620         1.7856 
  95   0.0000       0.078568         2.1379 
  96   0.0000       0.083463         2.2711 
  97   0.0000       0.088534         2.4091 
  98   0.0000       0.094868         2.5815 
  99   0.0000       0.095574         2.6007 
 100   0.0000       0.099075         2.6960 
 101   0.0000       0.102412         2.7868 
 102   0.0000       0.103731         2.8227 
 103   0.0000       0.113618         3.0917 
 104   0.0000       0.120462         3.2779 
 105   0.0000       0.125734         3.4214 
 106   0.0000       0.130024         3.5381 
 107   0.0000       0.138108         3.7581 
 108   0.0000       0.142925         3.8892 
 109   0.0000       0.146957         3.9989 
 110   0.0000       0.151583         4.1248 
 111   0.0000       0.155195         4.2231 
 112   0.0000       0.158197         4.3048 
 113   0.0000       0.160293         4.3618 
 114   0.0000       0.161319         4.3897 
 115   0.0000       0.164983         4.4894 
 116   0.0000       0.172740         4.7005 
 117   0.0000       0.175554         4.7771 
 118   0.0000       0.183150         4.9838 
 119   0.0000       0.204213         5.5569 
 120   0.0000       0.211892         5.7659 
 121   0.0000       0.212432         5.7806 
 122   0.0000       0.217829         5.9274 
 123   0.0000       0.222488         6.0542 
 124   0.0000       0.224362         6.1052 
 125   0.0000       0.243622         6.6293 
 126   0.0000       0.249856         6.7989 
 127   0.0000       0.265640         7.2284 
 128   0.0000       0.267837         7.2882 
 129   0.0000       0.278941         7.5904 
 130   0.0000       0.286020         7.7830 
 131   0.0000       0.292074         7.9477 
 132   0.0000       0.306662         8.3447 
 133   0.0000       0.314149         8.5484 
 134   0.0000       0.318698         8.6722 
 135   0.0000       0.332083         9.0364 
 136   0.0000       0.348635         9.4868 
 137   0.0000       0.361118         9.8265 
 138   0.0000       0.365466         9.9448 
 139   0.0000       0.378912        10.3107 
 140   0.0000       0.391010        10.6399 
 141   0.0000       0.406187        11.0529 
 142   0.0000       0.411692        11.2027 
 143   0.0000       0.413550        11.2533 
 144   0.0000       0.419537        11.4162 
 145   0.0000       0.421937        11.4815 
 146   0.0000       0.430552        11.7159 
 147   0.0000       0.441051        12.0016 
 148   0.0000       0.441189        12.0054 
 149   0.0000       0.449959        12.2440 
 150   0.0000       0.451836        12.2951 
 151   0.0000       0.454155        12.3582 
 152   0.0000       0.462730        12.5915 
 153   0.0000       0.472387        12.8543 
 154   0.0000       0.473334        12.8801 
 155   0.0000       0.475114        12.9285 
 156   0.0000       0.476774        12.9737 
 157   0.0000       0.481116        13.0918 
 158   0.0000       0.491025        13.3615 
 159   0.0000       0.499640        13.5959 
 160   0.0000       0.499673        13.5968 
 161   0.0000       0.503063        13.6890 
 162   0.0000       0.506773        13.7900 
 163   0.0000       0.508802        13.8452 
 164   0.0000       0.513940        13.9850 
 165   0.0000       0.515692        14.0327 
 166   0.0000       0.517221        14.0743 
 167   0.0000       0.521789        14.1986 
 168   0.0000       0.525405        14.2970 
 169   0.0000       0.529685        14.4135 
 170   0.0000       0.534554        14.5460 
 171   0.0000       0.551099        14.9962 
 172   0.0000       0.552717        15.0402 
 173   0.0000       0.558271        15.1913 
 174   0.0000       0.569431        15.4950 
 175   0.0000       0.575779        15.6677 
 176   0.0000       0.585189        15.9238 
 177   0.0000       0.589546        16.0424 
 178   0.0000       0.592151        16.1132 
 179   0.0000       0.599052        16.3010 
 180   0.0000       0.601206        16.3597 
 181   0.0000       0.608731        16.5644 
 182   0.0000       0.609637        16.5891 
 183   0.0000       0.625031        17.0080 
 184   0.0000       0.625944        17.0328 
 185   0.0000       0.632675        17.2160 
 186   0.0000       0.638099        17.3636 
 187   0.0000       0.638433        17.3726 
 188   0.0000       0.643343        17.5063 
 189   0.0000       0.643969        17.5233 
 190   0.0000       0.645706        17.5705 
 191   0.0000       0.651585        17.7305 
 192   0.0000       0.655535        17.8380 
 193   0.0000       0.656000        17.8507 
 194   0.0000       0.661275        17.9942 
 195   0.0000       0.661799        18.0085 
 196   0.0000       0.665633        18.1128 
 197   0.0000       0.666319        18.1315 
 198   0.0000       0.666350        18.1323 
 199   0.0000       0.669421        18.2159 
 200   0.0000       0.678202        18.4548 
 201   0.0000       0.678351        18.4589 
 202   0.0000       0.683390        18.5960 
 203   0.0000       0.686658        18.6849 
 204   0.0000       0.691188        18.8082 
 205   0.0000       0.693960        18.8836 
 206   0.0000       0.694975        18.9112 
 207   0.0000       0.704772        19.1778 
 208   0.0000       0.711290        19.3552 
 209   0.0000       0.714196        19.4343 
 210   0.0000       0.723430        19.6855 
 211   0.0000       0.727712        19.8021 
 212   0.0000       0.733556        19.9611 
 213   0.0000       0.734170        19.9778 
 214   0.0000       0.736926        20.0528 
 215   0.0000       0.750609        20.4251 
 216   0.0000       0.754847        20.5404 
 217   0.0000       0.759397        20.6642 
 218   0.0000       0.769071        20.9275 
 219   0.0000       0.775743        21.1090 
 220   0.0000       0.780595        21.2411 
 221   0.0000       0.795265        21.6403 
 222   0.0000       0.802066        21.8253 
 223   0.0000       0.818779        22.2801 
 224   0.0000       0.829387        22.5688 
 225   0.0000       0.833636        22.6844 
 226   0.0000       0.848507        23.0890 
 227   0.0000       0.853856        23.2346 
 228   0.0000       0.862841        23.4791 
 229   0.0000       0.869624        23.6637 
 230   0.0000       0.875457        23.8224 
 231   0.0000       0.882197        24.0058 
 232   0.0000       0.900599        24.5065 
 233   0.0000       0.909043        24.7363 
 234   0.0000       0.911062        24.7913 
 235   0.0000       0.915960        24.9245 
 236   0.0000       0.935256        25.4496 
 237   0.0000       0.935395        25.4534 
 238   0.0000       0.945863        25.7382 
 239   0.0000       0.955054        25.9884 
 240   0.0000       0.976418        26.5697 
 241   0.0000       0.977218        26.5915 
 242   0.0000       0.979073        26.6419 
 243   0.0000       0.982521        26.7358 
 244   0.0000       0.993455        27.0333 
 245   0.0000       0.995699        27.0944 
 246   0.0000       1.001480        27.2516 
 247   0.0000       1.009095        27.4589 
 248   0.0000       1.029677        28.0189 
 249   0.0000       1.030305        28.0360 
 250   0.0000       1.031275        28.0624 
 251   0.0000       1.038621        28.2623 
 252   0.0000       1.038934        28.2708 
 253   0.0000       1.053134        28.6572 
 254   0.0000       1.058355        28.7993 
 255   0.0000       1.063088        28.9281 
 256   0.0000       1.065734        29.0001 
 257   0.0000       1.079975        29.3876 
 258   0.0000       1.096914        29.8485 
 259   0.0000       1.106387        30.1063 
 260   0.0000       1.116762        30.3886 
 261   0.0000       1.128077        30.6965 
 262   0.0000       1.143275        31.1101 
 263   0.0000       1.149288        31.2737 
 264   0.0000       1.167535        31.7702 
 265   0.0000       1.186486        32.2859 
 266   0.0000       1.199658        32.6444 
 267   0.0000       1.205629        32.8068 
 268   0.0000       1.208632        32.8885 
 269   0.0000       1.213692        33.0262 
 270   0.0000       1.215761        33.0825 
 271   0.0000       1.221000        33.2251 
 272   0.0000       1.223228        33.2857 
 273   0.0000       1.230697        33.4890 
 274   0.0000       1.232643        33.5419 
 275   0.0000       1.255647        34.1679 
 276   0.0000       1.277293        34.7569 
 277   0.0000       1.293065        35.1861 
 278   0.0000       1.293737        35.2044 
 279   0.0000       1.297784        35.3145 
 280   0.0000       1.311664        35.6922 
 281   0.0000       1.319978        35.9184 
 282   0.0000       1.327459        36.1220 
 283   0.0000       1.338658        36.4267 
 284   0.0000       1.344715        36.5916 
 285   0.0000       1.362615        37.0786 
 286   0.0000       1.376904        37.4675 
 287   0.0000       1.381723        37.5986 
[...]
      px      :     0.001019
      py      :     0.004320
      dz2     :    -0.000089  d :    -0.006926
      dxz     :    -0.006082
      dyz     :     0.000047
      dx2y2   :    -0.000251
      dxy     :    -0.000551
  3 C s       :     0.005901  s :     0.005901
      pz      :     0.157873  p :     0.166743
      px      :     0.004170
      py      :     0.004700
      dz2     :    -0.000763  d :    -0.009044
      dxz     :    -0.001933
      dyz     :    -0.004376
      dx2y2   :    -0.000942
      dxy     :    -0.001030
  4 C s       :    -0.006643  s :    -0.006643
      pz      :    -0.088243  p :    -0.103734
      px      :    -0.006627
      py      :    -0.008864
      dz2     :     0.000512  d :     0.039445
      dxz     :     0.010807
      dyz     :     0.025221
      dx2y2   :     0.001356
      dxy     :     0.001549
  5 C s       :     0.005688  s :     0.005688
      pz      :     0.161574  p :     0.170109
      px      :     0.004542
      py      :     0.003993
      dz2     :    -0.000670  d :    -0.007919
      dxz     :    -0.003961
      dyz     :    -0.001624
      dx2y2   :    -0.000628
      dxy     :    -0.001036
  6 C s       :    -0.003644  s :    -0.003644
      pz      :    -0.064119  p :    -0.071618
      px      :    -0.002841
      py      :    -0.004658
      dz2     :     0.000345  d :     0.016666
      dxz     :     0.001886
      dyz     :     0.012853
      dx2y2   :     0.000619
      dxy     :     0.000962
  7 C s       :     0.006099  s :     0.006099
      pz      :     0.166400  p :     0.175387
      px      :     0.004465
      py      :     0.004523
      dz2     :    -0.000704  d :    -0.006241
      dxz     :    -0.002914
      dyz     :    -0.001465
      dx2y2   :    -0.000558
      dxy     :    -0.000599
  8 C s       :    -0.003874  s :    -0.003874
      pz      :    -0.070514  p :    -0.078472
      px      :    -0.004389
      py      :    -0.003568
      dz2     :     0.000328  d :     0.017363
      dxz     :     0.011006
      dyz     :     0.004668
      dx2y2   :     0.000699
      dxy     :     0.000661
  9 H s       :    -0.004911  s :    -0.004911
      pz      :     0.004991  p :     0.005787
      px      :     0.000286
      py      :     0.000509
 10 H s       :     0.002090  s :     0.002090
      pz      :    -0.002068  p :    -0.002553
      px      :    -0.000199
      py      :    -0.000286
 11 C s       :     0.017993  s :     0.017993
      pz      :     0.546672  p :     0.569863
      px      :     0.011714
      py      :     0.011477
      dz2     :    -0.002115  d :    -0.006382
      dxz     :    -0.000353
      dyz     :    -0.001688
      dx2y2   :    -0.001249
      dxy     :    -0.000977
 12 H s       :    -0.015245  s :    -0.015245
      pz      :     0.016152  p :     0.018593
      px      :     0.002258
      py      :     0.000183
 13 C s       :    -0.003458  s :    -0.003458
      pz      :    -0.003892  p :    -0.017899
      px      :    -0.005048
      py      :    -0.008958
      dz2     :     0.000413  d :     0.026877
      dxz     :     0.012523
      dyz     :     0.012464
      dx2y2   :     0.000655
      dxy     :     0.000823
 14 H s       :     0.025438  s :     0.025438
      pz      :    -0.000182  p :    -0.000595
      px      :    -0.000340
      py      :    -0.000072
 15 H s       :     0.025382  s :     0.025382
      pz      :    -0.000181  p :    -0.000595
      px      :    -0.000341
      py      :    -0.000073
 16 C s       :     0.000137  s :     0.000137
      pz      :     0.001051  p :     0.001546
      px      :     0.000323
      py      :     0.000172
      dz2     :    -0.000061  d :    -0.000512
      dxz     :     0.000156
      dyz     :    -0.000129
      dx2y2   :    -0.000406
      dxy     :    -0.000072
 17 H s       :     0.000132  s :     0.000132
      pz      :     0.000033  p :     0.000169
      px      :     0.000079
      py      :     0.000057
 18 H s       :     0.000129  s :     0.000129
      pz      :     0.000033  p :     0.000169
      px      :     0.000079
      py      :     0.000057
 19 C s       :    -0.000177  s :    -0.000177
      pz      :     0.000398  p :     0.000020
      px      :    -0.000062
      py      :    -0.000316
      dz2     :    -0.000004  d :     0.000114
      dxz     :     0.000014
      dyz     :     0.000115
      dx2y2   :     0.000008
      dxy     :    -0.000019
 20 H s       :     0.000212  s :     0.000212
      pz      :     0.000001  p :     0.000037
      px      :     0.000017
      py      :     0.000019
 21 H s       :     0.000212  s :     0.000212
      pz      :     0.000001  p :     0.000038
      px      :     0.000017
      py      :     0.000019
 22 C s       :    -0.001186  s :    -0.001186
      pz      :    -0.000335  p :    -0.005280
      px      :    -0.002210
      py      :    -0.002734
      dz2     :     0.000152  d :     0.008634
      dxz     :     0.004816
      dyz     :     0.003146
      dx2y2   :     0.000217
      dxy     :     0.000304
 23 H s       :     0.008147  s :     0.008147
      pz      :    -0.000077  p :    -0.000196
      px      :    -0.000146
      py      :     0.000027
 24 H s       :     0.008145  s :     0.008145
      pz      :    -0.000077  p :    -0.000196
      px      :    -0.000146
      py      :     0.000027
 25 C s       :     0.000037  s :     0.000037
      pz      :     0.000024  p :     0.000199
      px      :     0.000101
      py      :     0.000075
      dz2     :    -0.000015  d :    -0.000073
      dxz     :     0.000120
      dyz     :    -0.000027
      dx2y2   :    -0.000104
      dxy     :    -0.000049
 26 H s       :     0.000038  s :     0.000038
      pz      :     0.000007  p :     0.000021
      px      :     0.000011
      py      :     0.000003
 27 H s       :     0.000038  s :     0.000038
      pz      :     0.000007  p :     0.000021
      px      :     0.000011
      py      :     0.000003
 28 C s       :    -0.000048  s :    -0.000048
      pz      :     0.000176  p :     0.000064
      px      :    -0.000025
      py      :    -0.000087
      dz2     :    -0.000002  d :     0.000001
      dxz     :    -0.000002
      dyz     :     0.000012
      dx2y2   :    -0.000001
      dxy     :    -0.000007
 29 H s       :     0.000070  s :     0.000070
      pz      :     0.000001  p :     0.000019
      px      :     0.000005
      py      :     0.000013
 30 H s       :     0.000070  s :     0.000070
      pz      :     0.000001  p :     0.000019
      px      :     0.000005
      py      :     0.000013
 31 C s       :    -0.000009  s :    -0.000009
      pz      :    -0.000001  p :    -0.000046
      px      :    -0.000013
      py      :    -0.000032
      dz2     :    -0.000000  d :     0.000017
      dxz     :     0.000012
      dyz     :     0.000007
      dx2y2   :    -0.000003
      dxy     :     0.000001
 32 H s       :     0.000018  s :     0.000018
      pz      :    -0.000000  p :    -0.000002
      px      :    -0.000000
      py      :    -0.000001
 33 H s       :     0.000018  s :     0.000018
      pz      :    -0.000000  p :    -0.000002
      px      :    -0.000000
      py      :    -0.000001
 34 C s       :    -0.001140  s :    -0.001140
      pz      :    -0.029358  p :    -0.034620
      px      :    -0.000526
      py      :    -0.004736
      dz2     :     0.000122  d :     0.001858
      dxz     :     0.001347
      dyz     :     0.000000
      dx2y2   :     0.000145
      dxy     :     0.000244
 35 H s       :    -0.002645  s :    -0.002645
      pz      :     0.002140  p :     0.002768
      px      :     0.000413
      py      :     0.000215
 36 H s       :    -0.000132  s :    -0.000132
      pz      :     0.000032  p :     0.000020
      px      :     0.000003
      py      :    -0.000015
 37 H s       :    -0.000004  s :    -0.000004
      pz      :    -0.000000  p :    -0.000003
      px      :    -0.000001
      py      :    -0.000002
 38 C s       :     0.000429  s :     0.000429
      pz      :     0.005715  p :     0.006754
      px      :     0.000746
      py      :     0.000293
      dz2     :    -0.000039  d :    -0.002275
      dxz     :    -0.001676
      dyz     :    -0.000174
      dx2y2   :    -0.000114
      dxy     :    -0.000273
 39 C s       :    -0.000340  s :    -0.000340
      pz      :    -0.008113  p :    -0.008633
      px      :    -0.000262
      py      :    -0.000258
      dz2     :     0.000033  d :     0.000465
      dxz     :     0.000207
      dyz     :     0.000128
      dx2y2   :     0.000049
      dxy     :     0.000047
 40 C s       :     0.000188  s :     0.000188
      pz      :     0.003692  p :     0.004073
      px      :     0.000218
      py      :     0.000163
      dz2     :    -0.000019  d :    -0.000819
      dxz     :    -0.000560
      dyz     :    -0.000171
      dx2y2   :    -0.000033
      dxy     :    -0.000036
 41 C s       :    -0.000302  s :    -0.000302
      pz      :    -0.008620  p :    -0.009047
      px      :    -0.000197
      py      :    -0.000230
      dz2     :     0.000038  d :     0.000324
      dxz     :     0.000040
      dyz     :     0.000188
      dx2y2   :     0.000030
      dxy     :     0.000029
 42 C s       :     0.000188  s :     0.000188
      pz      :     0.003686  p :     0.004066
      px      :     0.000213
      py      :     0.000167
      dz2     :    -0.000018  d :    -0.000818
      dxz     :    -0.000537
      dyz     :    -0.000194
      dx2y2   :    -0.000034
      dxy     :    -0.000035
 43 C s       :    -0.000339  s :    -0.000339
      pz      :    -0.008101  p :    -0.008617
      px      :    -0.000266
      py      :    -0.000251
      dz2     :     0.000033  d :     0.000465
      dxz     :     0.000217
      dyz     :     0.000118
      dx2y2   :     0.000052
      dxy     :     0.000045
 44 H s       :     0.000273  s :     0.000273
      pz      :    -0.000263  p :    -0.000305
      px      :    -0.000038
      py      :    -0.000005
 45 H s       :    -0.000119  s :    -0.000119
      pz      :     0.000106  p :     0.000130
      px      :     0.000010
      py      :     0.000014
 46 H s       :     0.000253  s :     0.000253
      pz      :    -0.000219  p :    -0.000263
      px      :    -0.000013
      py      :    -0.000031
 47 H s       :     0.000248  s :     0.000248
      pz      :    -0.000218  p :    -0.000262
      px      :    -0.000012
      py      :    -0.000032
 48 H s       :    -0.000119  s :    -0.000119
      pz      :     0.000106  p :     0.000130
      px      :     0.000009
      py      :     0.000014


                      *****************************
                      * MAYER POPULATION ANALYSIS *
                      *****************************

  NA   - Mulliken gross atomic population
  ZA   - Total nuclear charge
  QA   - Mulliken gross atomic charge
  VA   - Mayer's total valence
  BVA  - Mayer's bonded valence
  FA   - Mayer's free valence

  ATOM       NA         ZA         QA         VA         BVA        FA
  0 C      6.6058     6.0000    -0.6058     3.3843     3.3773     0.0070
  1 C      5.3654     6.0000     0.6346     2.8608     2.8592     0.0016
  2 C      5.7345     6.0000     0.2655     2.5268     2.5263     0.0006
  3 C      6.0500     6.0000    -0.0500     3.7443     3.7088     0.0354
  4 C      5.9188     6.0000     0.0812     4.1186     4.1038     0.0148
  5 C      6.0297     6.0000    -0.0297     3.8707     3.8359     0.0348
  6 C      6.1420     6.0000    -0.1420     3.8262     3.8193     0.0070
  7 C      6.0873     6.0000    -0.0873     4.1430     4.1046     0.0384
  8 C      5.9730     6.0000     0.0270     3.8906     3.8825     0.0081
  9 H      1.0536     1.0000    -0.0536     1.0032     1.0031     0.0001
 10 H      1.0515     1.0000    -0.0515     1.0028     1.0028     0.0000
 11 C      6.0983     6.0000    -0.0983     3.9291     3.5530     0.3761
 12 H      1.0221     1.0000    -0.0221     1.0093     1.0080     0.0012
 13 C      5.9666     6.0000     0.0334     4.0104     4.0089     0.0015
 14 H      0.9712     1.0000     0.0288     0.9627     0.9616     0.0011
 15 H      0.9712     1.0000     0.0288     0.9627     0.9616     0.0011
 16 C      6.0379     6.0000    -0.0379     4.1310     4.1310     0.0000
 17 H      0.9871     1.0000     0.0129     0.9642     0.9642     0.0000
 18 H      0.9871     1.0000     0.0129     0.9642     0.9642     0.0000
 19 C      5.9939     6.0000     0.0061     4.0163     4.0163     0.0000
 20 H      0.9829     1.0000     0.0171     0.9774     0.9774     0.0000
 21 H      0.9829     1.0000     0.0171     0.9774     0.9774     0.0000
 22 C      5.9605     6.0000     0.0395     4.0302     4.0300     0.0002
 23 H      0.9681     1.0000     0.0319     0.9688     0.9687     0.0001
 24 H      0.9681     1.0000     0.0319     0.9688     0.9687     0.0001
 25 C      6.0342     6.0000    -0.0342     4.1141     4.1141     0.0000
 26 H      0.9830     1.0000     0.0170     0.9630     0.9630     0.0000
 27 H      0.9830     1.0000     0.0170     0.9630     0.9630     0.0000
 28 C      6.0245     6.0000    -0.0245     4.1176     4.1176     0.0000
 29 H      0.9948     1.0000     0.0052     0.9674     0.9674     0.0000
 30 H      0.9948     1.0000     0.0052     0.9674     0.9674     0.0000
 31 C      5.9960     6.0000     0.0040     4.0169     4.0169     0.0000
 32 H      0.9827     1.0000     0.0173     0.9773     0.9773     0.0000
 33 H      0.9827     1.0000     0.0173     0.9773     0.9773     0.0000
 34 C      5.8667     6.0000     0.1333     2.6492     2.6479     0.0012
 35 H      1.0311     1.0000    -0.0311     1.0306     1.0306     0.0000
 36 H      0.9866     1.0000     0.0134     0.9733     0.9733     0.0000
 37 H      0.9877     1.0000     0.0123     0.9734     0.9734     0.0000
 38 C      6.2551     6.0000    -0.2551     3.9280     3.9280     0.0001
 39 C      5.9688     6.0000     0.0312     3.9943     3.9943     0.0001
 40 C      5.9592     6.0000     0.0408     3.9987     3.9987     0.0000
 41 C      5.9664     6.0000     0.0336     3.9988     3.9987     0.0001
 42 C      5.9595     6.0000     0.0405     3.9986     3.9985     0.0000
 43 C      5.9714     6.0000     0.0286     3.9936     3.9935     0.0001
 44 H      1.0274     1.0000    -0.0274     0.9688     0.9688     0.0000
 45 H      1.0275     1.0000    -0.0275     0.9685     0.9685     0.0000
 46 H      1.0405     1.0000    -0.0405     0.9836     0.9836     0.0000
 47 H      1.0396     1.0000    -0.0396     0.9832     0.9832     0.0000
 48 H      1.0274     1.0000    -0.0274     0.9684     0.9684     0.0000

  Mayer bond orders larger than 0.100000
B(  0-C ,  1-C ) :   2.0936 B(  0-C , 35-H ) :   1.1203 B(  1-C ,  3-C ) :   0.9053 
B(  2-C ,  6-C ) :   0.8773 B(  2-C , 34-C ) :   1.7564 B(  2-C , 38-C ) :  -0.1755 
B(  3-C ,  4-C ) :   1.2770 B(  3-C ,  8-C ) :   1.3921 B(  4-C ,  5-C ) :   1.2889 
B(  4-C , 11-C ) :   1.3674 B(  5-C ,  6-C ) :   1.4467 B(  5-C ,  9-H ) :   0.9197 
B(  6-C ,  7-C ) :   1.3491 B(  7-C ,  8-C ) :   1.4158 B(  7-C , 22-C ) :   1.0953 
B(  8-C , 10-H ) :   0.9200 B( 11-C , 12-H ) :   0.9016 B( 11-C , 13-C ) :   1.0838 
B( 13-C , 14-H ) :   0.9117 B( 13-C , 15-H ) :   0.9117 B( 13-C , 16-C ) :   1.0716 
B( 16-C , 17-H ) :   0.9437 B( 16-C , 18-H ) :   0.9437 B( 16-C , 19-C ) :   1.1066 
B( 19-C , 20-H ) :   0.9653 B( 19-C , 21-H ) :   0.9653 B( 19-C , 36-H ) :   0.9609 
B( 22-C , 23-H ) :   0.8961 B( 22-C , 24-H ) :   0.8961 B( 22-C , 25-C ) :   1.1040 
B( 25-C , 26-H ) :   0.9293 B( 25-C , 27-H ) :   0.9293 B( 25-C , 28-C ) :   1.0749 
B( 28-C , 29-H ) :   0.9409 B( 28-C , 30-H ) :   0.9409 B( 28-C , 31-C ) :   1.1062 
B( 31-C , 32-H ) :   0.9662 B( 31-C , 33-H ) :   0.9662 B( 31-C , 37-H ) :   0.9616 
B( 34-C , 38-C ) :   0.9293 B( 38-C , 39-C ) :   1.4425 B( 38-C , 43-C ) :   1.4395 
B( 39-C , 40-C ) :   1.4698 B( 39-C , 46-H ) :   0.9401 B( 40-C , 41-C ) :   1.4446 
B( 40-C , 48-H ) :   0.9380 B( 41-C , 42-C ) :   1.4438 B( 41-C , 44-H ) :   0.9433 
B( 42-C , 43-C ) :   1.4702 B( 42-C , 45-H ) :   0.9380 B( 43-C , 47-H ) :   0.9406 


-------
TIMINGS
-------

Total SCF time: 0 days 0 hours 1 min 0 sec 

Total time                  ....      60.080 sec
Sum of individual times     ....      56.804 sec  ( 94.5%)

Fock matrix formation       ....      50.218 sec  ( 83.6%)
  Split-RI-J                ....       3.779 sec  (  7.5% of F)
  Chain of spheres X        ....      33.978 sec  ( 67.7% of F)
  XC integration            ....       9.649 sec  ( 19.2% of F)
    Basis function eval.    ....       0.906 sec  (  9.4% of XC)
    Density eval.           ....       1.021 sec  ( 10.6% of XC)
    XC-Functional eval.     ....       0.229 sec  (  2.4% of XC)
    XC-Potential eval.      ....       0.656 sec  (  6.8% of XC)
Diagonalization             ....       0.979 sec  (  1.6%)
Density matrix formation    ....       0.329 sec  (  0.5%)
Population analysis         ....       0.571 sec  (  1.0%)
Initial guess               ....       0.175 sec  (  0.3%)
Orbital Transformation      ....       0.000 sec  (  0.0%)
Orbital Orthonormalization  ....       0.135 sec  (  0.2%)
DIIS solution               ....       0.552 sec  (  0.9%)
Grid generation             ....       3.980 sec  (  6.6%)

Maximum memory used throughout the entire SCF-calculation: 122.0 MB

-------------------------   --------------------
FINAL SINGLE POINT ENERGY      -928.901884379320
-------------------------   --------------------

                                *** OPTIMIZATION RUN DONE ***

                            ***************************************
                            *     ORCA property calculations      *
                            ***************************************

                                    ---------------------
                                    Active property flags
                                    ---------------------
   (+) Dipole Moment


------------------------------------------------------------------------------
                       ORCA ELECTRIC PROPERTIES CALCULATION
------------------------------------------------------------------------------

Dipole Moment Calculation                       ... on
Quadrupole Moment Calculation                   ... off
Polarizability Calculation                      ... off
GBWName                                         ... opt.gbw
Electron density                                ... opt.scfp
The origin for moment calculation is the CENTER OF MASS  = ( 3.160969,  0.006557 -0.005059)

-------------
DIPOLE MOMENT
-------------
                                X             Y             Z
Electronic contribution:      9.45016      -2.44955      -0.00478
Nuclear contribution   :     -9.07844       2.40891       0.00614
                        -----------------------------------------
Total Dipole Moment    :      0.37172      -0.04064       0.00137
                        -----------------------------------------
Magnitude (a.u.)       :      0.37394
Magnitude (Debye)      :      0.95048



--------------------
Rotational spectrum 
--------------------
 
Rotational constants in cm-1:     0.006649     0.004192     0.002580 
Rotational constants in MHz :   199.340829   125.673366    77.338746 

 Dipole components along the rotational axes: 
x,y,z [a.u.] :     0.328832    -0.178040     0.001357 
x,y,z [Debye]:     0.835823    -0.452541     0.003449 

 

Timings for individual modules:

Sum of individual times         ...      236.329 sec (=   3.939 min)
GTO integral calculation        ...        6.011 sec (=   0.100 min)   2.5 %
SCF iterations                  ...      209.194 sec (=   3.487 min)  88.5 %
SCF Gradient evaluation         ...       20.803 sec (=   0.347 min)   8.8 %
Geometry relaxation             ...        0.321 sec (=   0.005 min)   0.1 %
                             ****ORCA TERMINATED NORMALLY****
TOTAL RUN TIME: 0 days 0 hours 4 minutes 0 seconds 496 msec
