
                                 *****************
                                 * O   R   C   A *
                                 *****************

                                            #,                                       
                                            ###                                      
                                            ####                                     
                                            #####                                    
                                            ######                                   
                                           ########,                                 
                                     ,,################,,,,,                         
                               ,,#################################,,                 
                          ,,##########################################,,             
                       ,#########################################, ''#####,          
                    ,#############################################,,   '####,        
                  ,##################################################,,,,####,       
                ,###########''''           ''''###############################       
              ,#####''   ,,,,##########,,,,          '''####'''          '####       
            ,##' ,,,,###########################,,,                        '##       
           ' ,,###''''                  '''############,,,                           
         ,,##''                                '''############,,,,        ,,,,,,###''
      ,#''                                            '''#######################'''  
     '                                                          ''''####''''         
             ,#######,   #######,   ,#######,      ##                                
            ,#'     '#,  ##    ##  ,#'     '#,    #''#        ######   ,####,        
            ##       ##  ##   ,#'  ##            #'  '#       #        #'  '#        
            ##       ##  #######   ##           ,######,      #####,   #    #        
            '#,     ,#'  ##    ##  '#,     ,#' ,#      #,         ##   #,  ,#        
             '#######'   ##     ##  '#######'  #'      '#     #####' # '####'        



                  #######################################################
                  #                        -***-                        #
                  #          Department of theory and spectroscopy      #
                  #    Directorship and core code : Frank Neese         #
                  #        Max Planck Institute fuer Kohlenforschung    #
                  #                Kaiser Wilhelm Platz 1               #
                  #                 D-45470 Muelheim/Ruhr               #
                  #                      Germany                        #
                  #                                                     #
                  #                  All rights reserved                #
                  #                        -***-                        #
                  #######################################################


                         Program Version 5.0.4 -  RELEASE  -


 With contributions from (in alphabetic order):
   Daniel Aravena         : Magnetic Suceptibility
   Michael Atanasov       : Ab Initio Ligand Field Theory (pilot matlab implementation)
   Alexander A. Auer      : GIAO ZORA, VPT2 properties, NMR spectrum
   Ute Becker             : Parallelization
   Giovanni Bistoni       : ED, misc. LED, open-shell LED, HFLD
   Martin Brehm           : Molecular dynamics
   Dmytro Bykov           : SCF Hessian
   Vijay G. Chilkuri      : MRCI spin determinant printing, contributions to CSF-ICE
   Dipayan Datta          : RHF DLPNO-CCSD density
   Achintya Kumar Dutta   : EOM-CC, STEOM-CC
   Dmitry Ganyushin       : Spin-Orbit,Spin-Spin,Magnetic field MRCI
   Miquel Garcia          : C-PCM and meta-GGA Hessian, CC/C-PCM, Gaussian charge scheme
   Yang Guo               : DLPNO-NEVPT2, F12-NEVPT2, CIM, IAO-localization
   Andreas Hansen         : Spin unrestricted coupled pair/coupled cluster methods
   Benjamin Helmich-Paris : MC-RPA, TRAH-SCF, COSX integrals
   Lee Huntington         : MR-EOM, pCC
   Robert Izsak           : Overlap fitted RIJCOSX, COSX-SCS-MP3, EOM
   Marcus Kettner         : VPT2
   Christian Kollmar      : KDIIS, OOCD, Brueckner-CCSD(T), CCSD density, CASPT2, CASPT2-K
   Simone Kossmann        : Meta GGA functionals, TD-DFT gradient, OOMP2, MP2 Hessian
   Martin Krupicka        : Initial AUTO-CI
   Lucas Lang             : DCDCAS
   Marvin Lechner         : AUTO-CI (C++ implementation), FIC-MRCC
   Dagmar Lenk            : GEPOL surface, SMD
   Dimitrios Liakos       : Extrapolation schemes; Compound Job, initial MDCI parallelization
   Dimitrios Manganas     : Further ROCIS development; embedding schemes
   Dimitrios Pantazis     : SARC Basis sets
   Anastasios Papadopoulos: AUTO-CI, single reference methods and gradients
   Taras Petrenko         : DFT Hessian,TD-DFT gradient, ASA, ECA, R-Raman, ABS, FL, XAS/XES, NRVS
   Peter Pinski           : DLPNO-MP2, DLPNO-MP2 Gradient
   Christoph Reimann      : Effective Core Potentials
   Marius Retegan         : Local ZFS, SOC
   Christoph Riplinger    : Optimizer, TS searches, QM/MM, DLPNO-CCSD(T), (RO)-DLPNO pert. Triples
   Tobias Risthaus        : Range-separated hybrids, TD-DFT gradient, RPA, STAB
   Michael Roemelt        : Original ROCIS implementation
   Masaaki Saitow         : Open-shell DLPNO-CCSD energy and density
   Barbara Sandhoefer     : DKH picture change effects
   Avijit Sen             : IP-ROCIS
   Kantharuban Sivalingam : CASSCF convergence, NEVPT2, FIC-MRCI
   Bernardo de Souza      : ESD, SOC TD-DFT
   Georgi Stoychev        : AutoAux, RI-MP2 NMR, DLPNO-MP2 response
   Willem Van den Heuvel  : Paramagnetic NMR
   Boris Wezisla          : Elementary symmetry handling
   Frank Wennmohs         : Technical directorship


 We gratefully acknowledge several colleagues who have allowed us to
 interface, adapt or use parts of their codes:
   Stefan Grimme, W. Hujo, H. Kruse, P. Pracht,  : VdW corrections, initial TS optimization,
                  C. Bannwarth, S. Ehlert          DFT functionals, gCP, sTDA/sTD-DF
   Ed Valeev, F. Pavosevic, A. Kumar             : LibInt (2-el integral package), F12 methods
   Garnet Chan, S. Sharma, J. Yang, R. Olivares  : DMRG
   Ulf Ekstrom                                   : XCFun DFT Library
   Mihaly Kallay                                 : mrcc  (arbitrary order and MRCC methods)
   Jiri Pittner, Ondrej Demel                    : Mk-CCSD
   Frank Weinhold                                : gennbo (NPA and NBO analysis)
   Christopher J. Cramer and Donald G. Truhlar   : smd solvation model
   Lars Goerigk                                  : TD-DFT with DH, B97 family of functionals
   V. Asgeirsson, H. Jonsson                     : NEB implementation
   FAccTs GmbH                                   : IRC, NEB, NEB-TS, DLPNO-Multilevel, CI-OPT
                                                   MM, QMMM, 2- and 3-layer-ONIOM, Crystal-QMMM,
                                                   LR-CPCM, SF, NACMEs, symmetry and pop. for TD-DFT,
                                                   nearIR, NL-DFT gradient (VV10), updates on ESD,
                                                   ML-optimized integration grids
   S Lehtola, MJT Oliveira, MAL Marques          : LibXC Library
   Liviu Ungur et al                             : ANISO software


 Your calculation uses the libint2 library for the computation of 2-el integrals
 For citations please refer to: http://libint.valeyev.net

 Your ORCA version has been built with support for libXC version: 5.1.0
 For citations please refer to: https://tddft.org/programs/libxc/

 This ORCA versions uses:
   CBLAS   interface :  Fast vector & matrix operations
   LAPACKE interface :  Fast linear algebra routines
   SCALAPACK package :  Parallel linear algebra routines
   Shared memory     :  Shared parallel matrices
   BLAS/LAPACK       :  OpenBLAS 0.3.15  USE64BITINT DYNAMIC_ARCH NO_AFFINITY SkylakeX SINGLE_THREADED
        Core in use  :  SkylakeX
   Copyright (c) 2011-2014, The OpenBLAS Project




***************************************
The coordinates will be read from file: model.xyz
***************************************


================================================================================

----- Orbital basis set information -----
Your calculation utilizes the basis: EPR-II
   V. Barone, in Recent Advances in Density Functional Methods, Part 1 (ed. D. P. Chong), World Scientific, Singapore, 1995, p. 287.

----- AuxJ basis set information -----
Your calculation utilizes the auxiliary basis: def2/J
   F. Weigend, Phys. Chem. Chem. Phys. 8, 1057 (2006).

================================================================================
                                        WARNINGS
                       Please study these warnings very carefully!
================================================================================


WARNING: your system is open-shell and RHF/RKS was chosen
  ===> : WILL SWITCH to UHF/UKS


WARNING: Geometry Optimization
  ===> : Switching off AutoStart
         For restart on a previous wavefunction, please use MOREAD

INFO   : the flag for use of the SHARK integral package has been found!

================================================================================
                                       INPUT FILE
================================================================================
NAME = opt_EPRII.inp
|  1> ! B3LYP EPR-II OPT
|  2> %pal nprocs 16 end
|  3> *XYZFile 0 2 model.xyz
|  4> 
|  5>                          ****END OF INPUT****
================================================================================

                       *****************************
                       * Geometry Optimization Run *
                       *****************************

Geometry optimization settings:
Update method            Update   .... BFGS
Choice of coordinates    CoordSys .... Z-matrix Internals
Initial Hessian          InHess   .... Almoef's Model

Convergence Tolerances:
Energy Change            TolE     ....  5.0000e-06 Eh
Max. Gradient            TolMAXG  ....  3.0000e-04 Eh/bohr
RMS Gradient             TolRMSG  ....  1.0000e-04 Eh/bohr
Max. Displacement        TolMAXD  ....  4.0000e-03 bohr
RMS Displacement         TolRMSD  ....  2.0000e-03 bohr
Strict Convergence                ....  False
------------------------------------------------------------------------------
                        ORCA OPTIMIZATION COORDINATE SETUP
------------------------------------------------------------------------------

The optimization will be done in new redundant internal coordinates
Making redundant internal coordinates   ...  (new redundants) done
Evaluating the initial hessian          ...  (Almloef) done
Evaluating the coordinates              ...  done
Calculating the B-matrix                .... done
Calculating the G-matrix                .... done
Diagonalizing the G-matrix              .... done
Small eigenvalue found = 7.140e-04
Small eigenvalue found = 1.974e-03
Small eigenvalue found = 5.866e-03
Small eigenvalue found = 8.376e-03
Small eigenvalue found = 1.619e-02
Small eigenvalue found = 1.885e-02
Small eigenvalue found = 1.983e-02
Small eigenvalue found = 2.419e-02
Small eigenvalue found = 2.969e-02
Small eigenvalue found = 2.974e-02
The first mode is                       ....  111
The number of degrees of freedom        ....  141

    -----------------------------------------------------------------
                    Redundant Internal Coordinates


    -----------------------------------------------------------------
         Definition                    Initial Value    Approx d2E/dq
    -----------------------------------------------------------------
      1. B(C   1,C   0)                  1.2174         1.178083   
      2. B(C   3,C   1)                  1.4274         0.544570   
      3. B(C   4,C   3)                  1.4430         0.514349   
      4. B(C   5,C   4)                  1.4228         0.553797   
      5. B(C   6,C   2)                  1.4288         0.541711   
      6. B(C   6,C   5)                  1.3979         0.606964   
      7. B(C   7,C   6)                  1.4312         0.537037   
      8. B(C   8,C   7)                  1.3966         0.609921   
      9. B(C   8,C   3)                  1.4057         0.589879   
     10. B(H   9,C   5)                  1.0902         0.359874   
     11. B(H  10,C   8)                  1.0899         0.360271   
     12. B(C  11,C   4)                  1.4131         0.573989   
     13. B(H  12,C  11)                  1.0932         0.355900   
     14. B(C  13,C  11)                  1.4993         0.418120   
     15. B(H  14,C  13)                  1.1098         0.334819   
     16. B(H  15,C  13)                  1.1098         0.334839   
     17. B(C  16,C  13)                  1.5342         0.367868   
     18. B(H  17,C  16)                  1.1053         0.340403   
     19. B(H  18,C  16)                  1.1053         0.340401   
     20. B(C  19,C  16)                  1.5297         0.373952   
     21. B(H  20,C  19)                  1.1038         0.342257   
     22. B(H  21,C  19)                  1.1038         0.342257   
     23. B(C  22,C   7)                  1.5145         0.395535   
     24. B(H  23,C  22)                  1.1063         0.339232   
     25. B(H  24,C  22)                  1.1062         0.339235   
     26. B(C  25,C  22)                  1.5310         0.372268   
     27. B(H  26,C  25)                  1.1056         0.340035   
     28. B(H  27,C  25)                  1.1056         0.340033   
     29. B(C  28,C  25)                  1.5334         0.368911   
     30. B(H  29,C  28)                  1.1059         0.339615   
     31. B(H  30,C  28)                  1.1059         0.339616   
     32. B(C  31,C  28)                  1.5306         0.372688   
     33. B(H  32,C  31)                  1.1037         0.342374   
     34. B(H  33,C  31)                  1.1037         0.342374   
     35. B(C  34,C   2)                  1.2220         1.158113   
     36. B(H  35,C   0)                  1.0723         0.384240   
     37. B(H  36,C  19)                  1.1019         0.344733   
     38. B(H  37,C  31)                  1.1021         0.344408   
     39. B(C  38,C  34)                  1.4283         0.542784   
     40. B(C  39,C  38)                  1.4120         0.576268   
     41. B(C  40,C  39)                  1.3945         0.614455   
     42. B(C  41,C  40)                  1.3995         0.603358   
     43. B(C  42,C  41)                  1.3996         0.603118   
     44. B(C  43,C  42)                  1.3944         0.614694   
     45. B(C  43,C  38)                  1.4121         0.576042   
     46. B(H  44,C  41)                  1.0925         0.356802   
     47. B(H  45,C  42)                  1.0927         0.356561   
     48. B(H  46,C  39)                  1.0916         0.357957   
     49. B(H  47,C  43)                  1.0916         0.357944   
     50. B(H  48,C  40)                  1.0927         0.356559   
     51. L(C   1,C   0,H  35, 2)       179.8830         0.398693   
     52. L(C   1,C   0,H  35, 1)       180.2853         0.398693   
     53. L(C   0,C   1,C   3,C   8, 2) 179.8220         0.476481   
     54. L(C   0,C   1,C   3,C   8, 1) 178.9995         0.476481   
     55. L(C   6,C   2,C  34,C   5, 2) 179.8861         0.474525   
     56. L(C   6,C   2,C  34,C   5, 1) 179.6816         0.474525   
     57. A(C   1,C   3,C   8)          118.8515         0.420326   
     58. A(C   4,C   3,C   8)          120.0557         0.416072   
     59. A(C   1,C   3,C   4)          121.0928         0.410209   
     60. A(C   3,C   4,C   5)          116.4637         0.411432   
     61. A(C   5,C   4,C  11)          121.8079         0.419539   
     62. A(C   3,C   4,C  11)          121.7284         0.414057   
     63. A(C   4,C   5,H   9)          119.1914         0.346213   
     64. A(C   4,C   5,C   6)          122.7372         0.423745   
     65. A(C   6,C   5,H   9)          118.0715         0.351605   
     66. A(C   5,C   6,C   7)          120.2570         0.421424   
     67. A(C   2,C   6,C   5)          119.2478         0.422077   
     68. A(C   2,C   6,C   7)          120.4951         0.412976   
     69. A(C   8,C   7,C  22)          122.8183         0.399534   
     70. A(C   6,C   7,C  22)          119.6350         0.390716   
     71. A(C   6,C   7,C   8)          117.5468         0.421790   
     72. A(C   3,C   8,H  10)          117.4039         0.349979   
     73. A(C   7,C   8,H  10)          119.6565         0.351960   
     74. A(C   3,C   8,C   7)          122.9397         0.428935   
     75. A(C   4,C  11,C  13)          124.9014         0.399169   
     76. A(H  12,C  11,C  13)          117.8879         0.329756   
     77. A(C   4,C  11,H  12)          117.2108         0.347655   
     78. A(H  15,C  13,C  16)          109.1778         0.319672   
     79. A(H  14,C  13,C  16)          109.1775         0.319669   
     80. A(C  11,C  13,C  16)          113.4881         0.369458   
     81. A(H  14,C  13,H  15)          104.6238         0.284300   
     82. A(C  11,C  13,H  15)          109.9972         0.326454   
     83. A(C  11,C  13,H  14)          109.9957         0.326451   
     84. A(C  13,C  16,C  19)          113.1332         0.362460   
     85. A(H  17,C  16,H  18)          106.0151         0.285765   
     86. A(C  13,C  16,H  18)          108.9891         0.320533   
     87. A(C  13,C  16,H  17)          108.9879         0.320534   
     88. A(H  18,C  16,C  19)          109.7317         0.321395   
     89. A(H  17,C  16,C  19)          109.7319         0.321395   
     90. A(H  20,C  19,H  21)          107.3554         0.286249   
     91. A(C  16,C  19,H  21)          111.3083         0.321681   
     92. A(C  16,C  19,H  20)          111.3084         0.321681   
     93. A(H  21,C  19,H  36)          107.6099         0.286571   
     94. A(H  20,C  19,H  36)          107.6094         0.286571   
     95. A(C  16,C  19,H  36)          111.4438         0.322061   
     96. A(H  24,C  22,C  25)          109.1973         0.320977   
     97. A(H  23,C  22,C  25)          109.1956         0.320977   
     98. A(C   7,C  22,C  25)          116.9415         0.366701   
     99. A(H  23,C  22,H  24)          104.4054         0.285458   
    100. A(C   7,C  22,H  24)          108.1854         0.324182   
    101. A(C   7,C  22,H  23)          108.1850         0.324182   
    102. A(H  27,C  25,C  28)          109.0347         0.320625   
    103. A(H  26,C  25,C  28)          109.0343         0.320625   
    104. A(C  22,C  25,C  28)          112.6256         0.362356   
    105. A(H  26,C  25,H  27)          106.2147         0.285668   
    106. A(C  22,C  25,H  27)          109.8609         0.321101   
    107. A(C  22,C  25,H  26)          109.8615         0.321101   
    108. A(H  30,C  28,C  31)          109.5571         0.321095   
    109. A(H  29,C  28,C  31)          109.5574         0.321095   
    110. A(C  25,C  28,C  31)          113.1757         0.362425   
    111. A(H  29,C  28,H  30)          105.8739         0.285559   
    112. A(C  25,C  28,H  30)          109.2076         0.320561   
    113. A(C  25,C  28,H  29)          109.2081         0.320561   
    114. A(H  32,C  31,H  33)          107.3585         0.286280   
    115. A(C  28,C  31,H  33)          111.2884         0.321520   
    116. A(C  28,C  31,H  32)          111.2883         0.321520   
    117. A(H  33,C  31,H  37)          107.5919         0.286544   
    118. A(H  32,C  31,H  37)          107.5922         0.286544   
    119. A(C  28,C  31,H  37)          111.5139         0.321832   
    120. L(C   2,C  34,C  38,C  39, 2) 180.1283         0.474697   
    121. L(C   2,C  34,C  38,C  39, 1) 179.9545         0.474697   
    122. A(C  39,C  38,C  43)          118.7746         0.422798   
    123. A(C  34,C  38,C  43)          120.6127         0.418306   
    124. A(C  34,C  38,C  39)          120.6127         0.418335   
    125. A(C  40,C  39,H  46)          120.4971         0.352017   
    126. A(C  38,C  39,H  46)          119.0997         0.348225   
    127. A(C  38,C  39,C  40)          120.4031         0.427711   
    128. A(C  41,C  40,H  48)          120.0276         0.350703   
    129. A(C  39,C  40,H  48)          119.6209         0.351784   
    130. A(C  39,C  40,C  41)          120.3515         0.431251   
    131. A(C  42,C  41,H  44)          120.1447         0.350719   
    132. A(C  40,C  41,H  44)          120.1389         0.350743   
    133. A(C  40,C  41,C  42)          119.7163         0.429811   
    134. A(C  43,C  42,H  45)          119.5985         0.351808   
    135. A(C  41,C  42,H  45)          120.0629         0.350679   
    136. A(C  41,C  42,C  43)          120.3386         0.431250   
    137. A(C  42,C  43,H  47)          120.4656         0.352038   
    138. A(C  38,C  43,H  47)          119.1186         0.348200   
    139. A(C  38,C  43,C  42)          120.4159         0.427711   
    140. D(C  11,C   4,C   3,C   8)   -179.9928         0.018034   
    141. D(C   5,C   4,C   3,C   1)   -179.9959         0.018034   
    142. D(C   5,C   4,C   3,C   8)      0.0073         0.018034   
    143. D(C  11,C   4,C   3,C   1)      0.0039         0.018034   
    144. D(H   9,C   5,C   4,C  11)     -0.0004         0.020991   
    145. D(C   6,C   5,C   4,C  11)    179.9949         0.020991   
    146. D(H   9,C   5,C   4,C   3)    179.9995         0.020991   
    147. D(C   6,C   5,C   4,C   3)     -0.0053         0.020991   
    148. D(C   7,C   6,C   5,C   4)      0.0045         0.025429   
    149. D(C   7,C   6,C   5,H   9)    179.9998         0.025429   
    150. D(C   2,C   6,C   5,H   9)      0.0019         0.025429   
    151. D(C   2,C   6,C   5,C   4)   -179.9934         0.025429   
    152. D(C  22,C   7,C   6,C   2)     -0.0047         0.019700   
    153. D(C  22,C   7,C   6,C   5)    179.9974         0.019700   
    154. D(C   8,C   7,C   6,C   5)     -0.0055         0.019700   
    155. D(C   8,C   7,C   6,C   2)    179.9924         0.019700   
    156. D(H  10,C   8,C   7,C   6)   -179.9951         0.025692   
    157. D(H  10,C   8,C   7,C  22)      0.0019         0.025692   
    158. D(C   3,C   8,C   7,C  22)   -179.9950         0.025692   
    159. D(H  10,C   8,C   3,C   4)    179.9938         0.023945   
    160. D(C   7,C   8,C   3,C   4)     -0.0091         0.023945   
    161. D(C   3,C   8,C   7,C   6)      0.0080         0.025692   
    162. D(C   7,C   8,C   3,C   1)    179.9940         0.023945   
    163. D(H  10,C   8,C   3,C   1)     -0.0030         0.023945   
    164. D(C  13,C  11,C   4,C   5)      0.0019         0.022614   
    165. D(C  13,C  11,C   4,C   3)   -179.9980         0.022614   
    166. D(H  12,C  11,C   4,C   5)   -179.9915         0.022614   
    167. D(H  12,C  11,C   4,C   3)      0.0086         0.022614   
    168. D(H  15,C  13,C  11,C   4)     57.3066         0.012931   
    169. D(H  14,C  13,C  11,H  12)    122.5709         0.012931   
    170. D(H  14,C  13,C  11,C   4)    -57.4224         0.012931   
    171. D(C  16,C  13,C  11,H  12)     -0.0638         0.012931   
    172. D(C  16,C  13,C  11,C   4)    179.9429         0.012931   
    173. D(H  15,C  13,C  11,H  12)   -122.7001         0.012931   
    174. D(C  19,C  16,C  13,C  11)    179.9971         0.010826   
    175. D(C  19,C  16,C  13,H  14)     56.9116         0.010826   
    176. D(H  18,C  16,C  13,H  15)   -179.2781         0.010826   
    177. D(H  18,C  16,C  13,H  14)    -65.4512         0.010826   
    178. D(H  18,C  16,C  13,C  11)     57.6343         0.010826   
    179. D(H  17,C  16,C  13,H  15)     65.4468         0.010826   
    180. D(H  17,C  16,C  13,H  14)    179.2738         0.010826   
    181. D(C  19,C  16,C  13,H  15)    -56.9153         0.010826   
    182. D(H  17,C  16,C  13,C  11)    -57.6408         0.010826   
    183. D(H  36,C  19,C  16,H  18)    -58.0513         0.011165   
    184. D(H  36,C  19,C  16,H  17)     58.0547         0.011165   
    185. D(H  36,C  19,C  16,C  13)   -179.9990         0.011165   
    186. D(H  21,C  19,C  16,H  18)     62.0870         0.011165   
    187. D(H  21,C  19,C  16,H  17)    178.1930         0.011165   
    188. D(H  21,C  19,C  16,C  13)    -59.8607         0.011165   
    189. D(H  20,C  19,C  16,H  18)   -178.1890         0.011165   
    190. D(H  20,C  19,C  16,H  17)    -62.0830         0.011165   
    191. D(H  20,C  19,C  16,C  13)     59.8633         0.011165   
    192. D(C  25,C  22,C   7,C   8)     -0.0016         0.011623   
    193. D(C  25,C  22,C   7,C   6)    179.9954         0.011623   
    194. D(H  24,C  22,C   7,C   8)   -123.7263         0.011623   
    195. D(H  24,C  22,C   7,C   6)     56.2706         0.011623   
    196. D(H  23,C  22,C   7,C   8)    123.7206         0.011623   
    197. D(H  23,C  22,C   7,C   6)    -56.2824         0.011623   
    198. D(H  27,C  25,C  22,H  23)    -64.9515         0.011070   
    199. D(H  27,C  25,C  22,C   7)     58.2534         0.011070   
    200. D(H  26,C  25,C  22,H  24)     64.9626         0.011070   
    201. D(H  26,C  25,C  22,H  23)    178.5508         0.011070   
    202. D(H  26,C  25,C  22,C   7)    -58.2442         0.011070   
    203. D(C  28,C  25,C  22,H  24)    -56.7885         0.011070   
    204. D(C  28,C  25,C  22,H  23)     56.7997         0.011070   
    205. D(C  28,C  25,C  22,C   7)   -179.9953         0.011070   
    206. D(H  27,C  25,C  22,H  24)   -178.5397         0.011070   
    207. D(C  31,C  28,C  25,H  27)    -57.7703         0.010883   
    208. D(C  31,C  28,C  25,C  22)   -179.9887         0.010883   
    209. D(H  30,C  28,C  25,H  27)    179.9034         0.010883   
    210. D(H  30,C  28,C  25,H  26)    -64.5338         0.010883   
    211. D(H  30,C  28,C  25,C  22)     57.6850         0.010883   
    212. D(H  29,C  28,C  25,H  27)     64.5566         0.010883   
    213. D(C  31,C  28,C  25,H  26)     57.7925         0.010883   
    214. D(H  29,C  28,C  25,H  26)   -179.8806         0.010883   
    215. D(H  29,C  28,C  25,C  22)    -57.6618         0.010883   
    216. D(H  37,C  31,C  28,H  30)    -57.8639         0.011094   
    217. D(H  37,C  31,C  28,H  29)     57.8729         0.011094   
    218. D(H  37,C  31,C  28,C  25)   -179.9951         0.011094   
    219. D(H  33,C  31,C  28,H  30)     62.2855         0.011094   
    220. D(H  33,C  31,C  28,H  29)    178.0222         0.011094   
    221. D(H  33,C  31,C  28,C  25)    -59.8457         0.011094   
    222. D(H  32,C  31,C  28,H  30)   -178.0135         0.011094   
    223. D(H  32,C  31,C  28,H  29)    -62.2768         0.011094   
    224. D(H  32,C  31,C  28,C  25)     59.8552         0.011094   
    225. D(C  43,C  38,C   6,C   7)      0.0365         0.001500   
    226. D(C  43,C  38,C   6,C   5)   -179.9831         0.001500   
    227. D(C  39,C  38,C   6,C   7)   -179.9891         0.001500   
    228. D(C  39,C  38,C   6,C   5)     -0.0087         0.001500   
    229. D(H  46,C  39,C  38,C  43)   -179.9979         0.022802   
    230. D(H  46,C  39,C  38,C  34)      0.0029         0.022802   
    231. D(C  40,C  39,C  38,C  43)      0.0027         0.022802   
    232. D(C  40,C  39,C  38,C  34)   -179.9965         0.022802   
    233. D(H  48,C  40,C  39,H  46)     -0.0003         0.026098   
    234. D(H  48,C  40,C  39,C  38)    179.9990         0.026098   
    235. D(C  41,C  40,C  39,H  46)    179.9993         0.026098   
    236. D(C  41,C  40,C  39,C  38)     -0.0013         0.026098   
    237. D(H  44,C  41,C  40,H  48)     -0.0003         0.025111   
    238. D(H  44,C  41,C  40,C  39)   -179.9999         0.025111   
    239. D(C  42,C  41,C  40,H  48)    179.9996         0.025111   
    240. D(C  42,C  41,C  40,C  39)     -0.0000         0.025111   
    241. D(H  45,C  42,C  41,H  44)      0.0002         0.025090   
    242. D(H  45,C  42,C  41,C  40)   -179.9997         0.025090   
    243. D(C  43,C  42,C  41,H  44)    179.9999         0.025090   
    244. D(C  43,C  42,C  41,C  40)     -0.0001         0.025090   
    245. D(H  47,C  43,C  42,H  45)      0.0002         0.026119   
    246. D(H  47,C  43,C  42,C  41)   -179.9994         0.026119   
    247. D(C  38,C  43,C  42,H  45)   -179.9989         0.026119   
    248. D(C  38,C  43,C  42,C  41)      0.0015         0.026119   
    249. D(H  47,C  43,C  38,C  39)    179.9981         0.022783   
    250. D(H  47,C  43,C  38,C  34)     -0.0027         0.022783   
    251. D(C  42,C  43,C  38,C  39)     -0.0028         0.022783   
    252. D(C  42,C  43,C  38,C  34)    179.9964         0.022783   
    -----------------------------------------------------------------

Number of atoms                         .... 49
Number of degrees of freedom            .... 252

         *************************************************************
         *                GEOMETRY OPTIMIZATION CYCLE   1            *
         *************************************************************
---------------------------------
CARTESIAN COORDINATES (ANGSTROEM)
---------------------------------
  C     -4.052268    0.115614   -0.001692
  C     -2.836565    0.052160   -0.003421
  C      2.842829   -0.004216   -0.002352
  C     -1.410014    0.002656   -0.003149
  C     -0.708139   -1.258090   -0.002726
  C      0.713185   -1.192512   -0.002392
  C      1.414143    0.016922   -0.002570
  C      0.706182    1.260759   -0.003012
  C     -0.689438    1.209567   -0.003370
  H      1.288191   -2.118709   -0.002058
  H     -1.263059    2.136269   -0.003793
  C     -1.396801   -2.492011   -0.002645
  H     -2.489358   -2.454708   -0.003064
  C     -0.741126   -3.840380   -0.002172
  H     -0.069922   -3.936290   -0.880793
  H     -0.068807   -3.935156    0.875698
  C     -1.739120   -5.005603   -0.000787
  H     -2.397379   -4.914277    0.882428
  H     -2.398569   -4.915385   -0.883231
  C     -1.061646   -6.377131   -0.000385
  H     -0.420496   -6.507557    0.888639
  H     -0.421640   -6.508641   -0.890074
  C      1.479774    2.562726   -0.003141
  H      2.157489    2.561725    0.871211
  H      2.158029    2.561237   -0.877070
  C      0.660782    3.856198   -0.003729
  H     -0.002282    3.880554   -0.888104
  H     -0.002671    3.881100    0.880341
  C      1.541048    5.111788   -0.003930
  H      2.207161    5.089300    0.878622
  H      2.207254    5.088941   -0.886402
  C      0.734674    6.412803   -0.004240
  H      0.084530    6.481508    0.885049
  H      0.084510    6.481072   -0.893549
  C      4.064589   -0.029084   -0.003390
  H     -5.122850    0.176841    0.002017
  H     -1.802776   -7.192512    0.000594
  H      1.393262    7.296517   -0.004468
  C      5.492574   -0.059283   -0.003026
  C      6.185759   -1.289431   -0.002819
  C      7.580089   -1.313817   -0.002390
  C      8.308273   -0.118677   -0.002188
  C      7.631219    1.106277   -0.002419
  C      6.237203    1.140549   -0.002850
  H      9.400533   -0.141833   -0.001853
  H      8.194107    2.042827   -0.002269
  H      5.615401   -2.220203   -0.002988
  H      5.707015    2.094785   -0.003040
  H      8.103468   -2.273007   -0.002217

----------------------------
CARTESIAN COORDINATES (A.U.)
----------------------------
  NO LB      ZA    FRAG     MASS         X           Y           Z
   0 C     6.0000    0    12.011   -7.657677    0.218479   -0.003198
   1 C     6.0000    0    12.011   -5.360331    0.098568   -0.006465
   2 C     6.0000    0    12.011    5.372169   -0.007967   -0.004444
   3 C     6.0000    0    12.011   -2.664541    0.005019   -0.005951
   4 C     6.0000    0    12.011   -1.338189   -2.377445   -0.005152
   5 C     6.0000    0    12.011    1.347725   -2.253522   -0.004520
   6 C     6.0000    0    12.011    2.672344    0.031979   -0.004857
   7 C     6.0000    0    12.011    1.334492    2.382489   -0.005692
   8 C     6.0000    0    12.011   -1.302849    2.285750   -0.006369
   9 H     1.0000    0     1.008    2.434329   -4.003780   -0.003889
  10 H     1.0000    0     1.008   -2.386836    4.036963   -0.007168
  11 C     6.0000    0    12.011   -2.639571   -4.709218   -0.004998
  12 H     1.0000    0     1.008   -4.704205   -4.638725   -0.005790
  13 C     6.0000    0    12.011   -1.400526   -7.257266   -0.004105
  14 H     1.0000    0     1.008   -0.132134   -7.438510   -1.664458
  15 H     1.0000    0     1.008   -0.130026   -7.436367    1.654830
  16 C     6.0000    0    12.011   -3.286461   -9.459219   -0.001488
  17 H     1.0000    0     1.008   -4.530390   -9.286638    1.667547
  18 H     1.0000    0     1.008   -4.532639   -9.288732   -1.669064
  19 C     6.0000    0    12.011   -2.006221  -12.051031   -0.000728
  20 H     1.0000    0     1.008   -0.794621  -12.297500    1.679284
  21 H     1.0000    0     1.008   -0.796784  -12.299549   -1.681996
  22 C     6.0000    0    12.011    2.796368    4.842850   -0.005935
  23 H     1.0000    0     1.008    4.077063    4.840958    1.646350
  24 H     1.0000    0     1.008    4.078084    4.840037   -1.657422
  25 C     6.0000    0    12.011    1.248696    7.287158   -0.007047
  26 H     1.0000    0     1.008   -0.004313    7.333185   -1.678274
  27 H     1.0000    0     1.008   -0.005048    7.334215    1.663603
  28 C     6.0000    0    12.011    2.912159    9.659880   -0.007426
  29 H     1.0000    0     1.008    4.170930    9.617383    1.660355
  30 H     1.0000    0     1.008    4.171105    9.616705   -1.675058
  31 C     6.0000    0    12.011    1.388332   12.118442   -0.008013
  32 H     1.0000    0     1.008    0.159738   12.248276    1.672501
  33 H     1.0000    0     1.008    0.159700   12.247452   -1.688563
  34 C     6.0000    0    12.011    7.680960   -0.054961   -0.006406
  35 H     1.0000    0     1.008   -9.680783    0.334181    0.003811
  36 H     1.0000    0     1.008   -3.406754  -13.591879    0.001122
  37 H     1.0000    0     1.008    2.632883   13.788418   -0.008442
  38 C     6.0000    0    12.011   10.379460   -0.112029   -0.005718
  39 C     6.0000    0    12.011   11.689391   -2.436671   -0.005326
  40 C     6.0000    0    12.011   14.324292   -2.482754   -0.004516
  41 C     6.0000    0    12.011   15.700361   -0.224267   -0.004135
  42 C     6.0000    0    12.011   14.420914    2.090561   -0.004572
  43 C     6.0000    0    12.011   11.786606    2.155326   -0.005386
  44 H     1.0000    0     1.008   17.764432   -0.268026   -0.003502
  45 H     1.0000    0     1.008   15.484619    3.860384   -0.004288
  46 H     1.0000    0     1.008   10.611570   -4.195575   -0.005647
  47 H     1.0000    0     1.008   10.784695    3.958571   -0.005746
  48 H     1.0000    0     1.008   15.313335   -4.295361   -0.004190

--------------------------------
INTERNAL COORDINATES (ANGSTROEM)
--------------------------------
 C      0   0   0     0.000000000000     0.00000000     0.00000000
 C      1   0   0     1.217359260364     0.00000000     0.00000000
 C      2   1   0     5.679674327504   177.57909499     0.00000000
 C      2   1   3     1.427409552105   178.99534651     3.08808618
 C      4   2   1     1.442951425572   121.09278371   174.71811389
 C      5   4   2     1.422836285811   116.46367031   180.00407821
 C      6   5   4     1.397882258686   122.73715019     0.00000000
 C      7   6   5     1.431201738527   120.25703922     0.00000000
 C      8   7   6     1.396559095721   117.54676217     0.00000000
 H      6   5   4     1.090170958943   119.19138482   179.99948449
 H      9   8   7     1.089870544167   119.65647988   180.00493673
 C      5   4   2     1.413087871575   121.72841724     0.00000000
 H     12   5   4     1.093193664881   117.21076493     0.00000000
 C     12   5   4     1.499335667753   124.90135308   180.00200593
 H     14  12   5     1.109814590441   109.99569207   302.57756505
 H     14  12   5     1.109798677346   109.99718402    57.30659809
 C     14  12   5     1.534190058153   113.48814276   179.94286128
 H     17  14  12     1.105312120549   108.98789398   302.35921625
 H     17  14  12     1.105313671011   108.98908084    57.63428164
 C     17  14  12     1.529725173464   113.13319790   179.99705768
 H     20  17  14     1.103833908636   111.30840897    59.86326630
 H     20  17  14     1.103833841714   111.30827615   300.13931194
 C      8   7   6     1.514450838400   119.63497019   179.99741455
 H     23   8   7     1.106250292653   108.18504701   303.71758795
 H     23   8   7     1.106247903877   108.18538127    56.27063565
 C     23   8   7     1.530953628554   116.94152217   179.99536478
 H     26  23   8     1.105606971055   109.86150781   301.75578256
 H     26  23   8     1.105607966662   109.86090980    58.25344213
 C     26  23   8     1.533419801342   112.62564205   180.00467961
 H     29  26  23     1.105942745177   109.20811490   302.33823521
 H     29  26  23     1.105942536750   109.20759569    57.68502110
 C     29  26  23     1.530647016941   113.17574209   180.01128968
 H     32  29  26     1.103740707934   111.28832870    59.85524771
 H     32  29  26     1.103740858252   111.28837505   300.15428281
 C      3   2   1     1.222013211744   179.39972339   183.50339480
 H      1   2   4     1.072337309213   179.69168392   343.00096738
 H     20  17  14     1.101871872811   111.44384015   180.00101100
 H     32  29  26     1.102128421739   111.51385020   180.00492423
 C     35   3   7     1.428304078639   179.92207852   295.47244443
 C     39  35   3     1.412008938125   120.61267562    54.30194255
 C     40  39  35     1.394543110631   120.40313695   180.00350810
 C     41  40  39     1.399504386554   120.35146742     0.00000000
 C     42  41  40     1.399612460365   119.71634157     0.00000000
 C     43  42  41     1.394437327793   120.33855062     0.00000000
 H     42  41  40     1.092504659132   120.13892208   180.00005377
 H     43  42  41     1.092688694510   120.06294536   180.00032209
 H     40  39  35     1.091624690355   119.09971744     0.00000000
 H     44  43  42     1.091634750457   120.46557739   180.00056615
 H     41  40  39     1.092689909688   119.62092764   179.99904039

---------------------------
INTERNAL COORDINATES (A.U.)
---------------------------
 C      0   0   0     0.000000000000     0.00000000     0.00000000
 C      1   0   0     2.300475608681     0.00000000     0.00000000
 C      2   1   0    10.733029008846   177.57909499     0.00000000
 C      2   1   3     2.697413134421   178.99534651     3.08808618
 C      4   2   1     2.726783018883   121.09278371   174.71811389
 C      5   4   2     2.688770913588   116.46367031   180.00407821
 C      6   5   4     2.641614636385   122.73715019     0.00000000
 C      7   6   5     2.704579328209   120.25703922     0.00000000
 C      8   7   6     2.639114220749   117.54676217     0.00000000
 H      6   5   4     2.060124551556   119.19138482   179.99948449
 H      9   8   7     2.059556849904   119.65647988   180.00493673
 C      5   4   2     2.670349080442   121.72841724     0.00000000
 H     12   5   4     2.065836637963   117.21076493     0.00000000
 C     12   5   4     2.833333794873   124.90135308   180.00200593
 H     14  12   5     2.097245635363   109.99569207   302.57756505
 H     14  12   5     2.097215563971   109.99718402    57.30659809
 C     14  12   5     2.899199047294   113.48814276   179.94286128
 H     17  14  12     2.088737200342   108.98789398   302.35921625
 H     17  14  12     2.088740130290   108.98908084    57.63428164
 C     17  14  12     2.890761638011   113.13319790   179.99705768
 H     20  17  14     2.085943784658   111.30840897    59.86326630
 H     20  17  14     2.085943658193   111.30827615   300.13931194
 C      8   7   6     2.861897327863   119.63497019   179.99741455
 H     23   8   7     2.090510088684   108.18504701   303.71758795
 H     23   8   7     2.090505574553   108.18538127    56.27063565
 C     23   8   7     2.893083081700   116.94152217   179.99536478
 H     26  23   8     2.089294387049   109.86150781   301.75578256
 H     26  23   8     2.089296268473   109.86090980    58.25344213
 C     26  23   8     2.897743472868   112.62564205   180.00467961
 H     29  26  23     2.089928908181   109.20811490   302.33823521
 H     29  26  23     2.089928514311   109.20759569    57.68502110
 C     29  26  23     2.892503669722   113.17574209   180.01128968
 H     32  29  26     2.085767660856   111.28832870    59.85524771
 H     32  29  26     2.085767944915   111.28837505   300.15428281
 C      3   2   1     2.309270302229   179.39972339   183.50339480
 H      1   2   4     2.026423837598   179.69168392   343.00096738
 H     20  17  14     2.082236074284   111.44384015   180.00101100
 H     32  29  26     2.082720881497   111.51385020   180.00492423
 C     35   3   7     2.699103544590   179.92207852   295.47244443
 C     39  35   3     2.668310191706   120.61267562    54.30194255
 C     40  39  35     2.635304561040   120.40313695   180.00350810
 C     41  40  39     2.644680013809   120.35146742     0.00000000
 C     42  41  40     2.644884243713   119.71634157     0.00000000
 C     43  42  41     2.635104660446   120.33855062     0.00000000
 H     42  41  40     2.064534605792   120.13892208   180.00005377
 H     43  42  41     2.064882382255   120.06294536   180.00032209
 H     40  39  35     2.062871705797   119.09971744     0.00000000
 H     44  43  42     2.062890716636   120.46557739   180.00056615
 H     41  40  39     2.064884678610   119.62092764   179.99904039

---------------------
BASIS SET INFORMATION
---------------------
There are 2 groups of distinct atoms

 Group   1 Type C   : 10s5p1d contracted to 6s2p1d pattern {511111/41/1}
 Group   2 Type H   : 6s1p contracted to 4s1p pattern {3111/1}

Atom   0C    basis set group =>   1
Atom   1C    basis set group =>   1
Atom   2C    basis set group =>   1
Atom   3C    basis set group =>   1
Atom   4C    basis set group =>   1
Atom   5C    basis set group =>   1
Atom   6C    basis set group =>   1
Atom   7C    basis set group =>   1
Atom   8C    basis set group =>   1
Atom   9H    basis set group =>   2
Atom  10H    basis set group =>   2
Atom  11C    basis set group =>   1
Atom  12H    basis set group =>   2
Atom  13C    basis set group =>   1
Atom  14H    basis set group =>   2
Atom  15H    basis set group =>   2
Atom  16C    basis set group =>   1
Atom  17H    basis set group =>   2
Atom  18H    basis set group =>   2
Atom  19C    basis set group =>   1
Atom  20H    basis set group =>   2
Atom  21H    basis set group =>   2
Atom  22C    basis set group =>   1
Atom  23H    basis set group =>   2
Atom  24H    basis set group =>   2
Atom  25C    basis set group =>   1
Atom  26H    basis set group =>   2
Atom  27H    basis set group =>   2
Atom  28C    basis set group =>   1
Atom  29H    basis set group =>   2
Atom  30H    basis set group =>   2
Atom  31C    basis set group =>   1
Atom  32H    basis set group =>   2
Atom  33H    basis set group =>   2
Atom  34C    basis set group =>   1
Atom  35H    basis set group =>   2
Atom  36H    basis set group =>   2
Atom  37H    basis set group =>   2
Atom  38C    basis set group =>   1
Atom  39C    basis set group =>   1
Atom  40C    basis set group =>   1
Atom  41C    basis set group =>   1
Atom  42C    basis set group =>   1
Atom  43C    basis set group =>   1
Atom  44H    basis set group =>   2
Atom  45H    basis set group =>   2
Atom  46H    basis set group =>   2
Atom  47H    basis set group =>   2
Atom  48H    basis set group =>   2
---------------------------------
AUXILIARY/J BASIS SET INFORMATION
---------------------------------
There are 2 groups of distinct atoms

 Group   1 Type C   : 12s5p4d2f1g contracted to 6s4p3d1f1g pattern {711111/2111/211/2/1}
 Group   2 Type H   : 5s2p1d contracted to 3s1p1d pattern {311/2/1}

Atom   0C    basis set group =>   1
Atom   1C    basis set group =>   1
Atom   2C    basis set group =>   1
Atom   3C    basis set group =>   1
Atom   4C    basis set group =>   1
Atom   5C    basis set group =>   1
Atom   6C    basis set group =>   1
Atom   7C    basis set group =>   1
Atom   8C    basis set group =>   1
Atom   9H    basis set group =>   2
Atom  10H    basis set group =>   2
Atom  11C    basis set group =>   1
Atom  12H    basis set group =>   2
Atom  13C    basis set group =>   1
Atom  14H    basis set group =>   2
Atom  15H    basis set group =>   2
Atom  16C    basis set group =>   1
Atom  17H    basis set group =>   2
Atom  18H    basis set group =>   2
Atom  19C    basis set group =>   1
Atom  20H    basis set group =>   2
Atom  21H    basis set group =>   2
Atom  22C    basis set group =>   1
Atom  23H    basis set group =>   2
Atom  24H    basis set group =>   2
Atom  25C    basis set group =>   1
Atom  26H    basis set group =>   2
Atom  27H    basis set group =>   2
Atom  28C    basis set group =>   1
Atom  29H    basis set group =>   2
Atom  30H    basis set group =>   2
Atom  31C    basis set group =>   1
Atom  32H    basis set group =>   2
Atom  33H    basis set group =>   2
Atom  34C    basis set group =>   1
Atom  35H    basis set group =>   2
Atom  36H    basis set group =>   2
Atom  37H    basis set group =>   2
Atom  38C    basis set group =>   1
Atom  39C    basis set group =>   1
Atom  40C    basis set group =>   1
Atom  41C    basis set group =>   1
Atom  42C    basis set group =>   1
Atom  43C    basis set group =>   1
Atom  44H    basis set group =>   2
Atom  45H    basis set group =>   2
Atom  46H    basis set group =>   2
Atom  47H    basis set group =>   2
Atom  48H    basis set group =>   2


           ************************************************************
           *        Program running with 16 parallel MPI-processes    *
           *              working on a common directory               *
           ************************************************************
------------------------------------------------------------------------------
                           ORCA GTO INTEGRAL CALCULATION
                           -- RI-GTO INTEGRALS CHOSEN --
------------------------------------------------------------------------------
------------------------------------------------------------------------------
                   ___                                                        
                  /   \      - P O W E R E D   B Y -                         
                 /     \                                                     
                 |  |  |   _    _      __       _____    __    __             
                 |  |  |  | |  | |    /  \     |  _  \  |  |  /  |          
                  \  \/   | |  | |   /    \    | | | |  |  | /  /          
                 / \  \   | |__| |  /  /\  \   | |_| |  |  |/  /          
                |  |  |   |  __  | /  /__\  \  |    /   |      \           
                |  |  |   | |  | | |   __   |  |    \   |  |\   \          
                \     /   | |  | | |  |  |  |  | |\  \  |  | \   \       
                 \___/    |_|  |_| |__|  |__|  |_| \__\ |__|  \__/        
                                                                              
                      - O R C A' S   B I G   F R I E N D -                    
                                      &                                       
                       - I N T E G R A L  F E E D E R -                       
                                                                              
 v1 FN, 2020, v2 2021                                                         
------------------------------------------------------------------------------


Reading SHARK input file opt_EPRII.SHARKINP.tmp ... ok
----------------------
SHARK INTEGRAL PACKAGE
----------------------

Number of atoms                             ...     49
Number of basis functions                   ...    583
Number of shells                            ...    341
Maximum angular momentum                    ...      2
Integral batch strategy                     ... SHARK/LIBINT Hybrid
RI-J (if used) integral strategy            ... SPLIT-RIJ (Revised 2003 algorithm where possible)
Printlevel                                  ...      1
Contraction scheme used                     ... SEGMENTED contraction
Coulomb Range Separation                    ... NOT USED
Exchange Range Separation                   ... NOT USED
Finite Nucleus Model                        ... NOT USED
Auxiliary Coulomb fitting basis             ... AVAILABLE
   # of basis functions in Aux-J            ...   1451
   # of shells in Aux-J                     ...    485
   Maximum angular momentum in Aux-J        ...      4
Auxiliary J/K fitting basis                 ... NOT available
Auxiliary Correlation fitting basis         ... NOT available
Auxiliary 'external' fitting basis          ... NOT available
Integral threshold                          ...     2.500000e-11
Primitive cut-off                           ...     2.500000e-12
Primitive pair pre-selection threshold      ...     2.500000e-12

Calculating pre-screening integrals         ... done (  0.0 sec) Dimension = 341
Organizing shell pair data                  ... done (  0.2 sec)
Shell pair information
Total number of shell pairs                 ...     58311
Shell pairs after pre-screening             ...     30041
Total number of primitive shell pairs       ...    156979
Primitive shell pairs kept                  ...     56624
          la=0 lb=0:  13751 shell pairs
          la=1 lb=0:  10321 shell pairs
          la=1 lb=1:   1855 shell pairs
          la=2 lb=0:   2862 shell pairs
          la=2 lb=1:   1087 shell pairs
          la=2 lb=2:    165 shell pairs

Calculating one electron integrals          ... done (  0.0 sec)
Calculating RI/J V-Matrix + Cholesky decomp.... done (  0.2 sec)
Calculating Nuclear repulsion               ... done (  0.0 sec) ENN=   1724.022777785751 Eh

SHARK setup successfully completed in   1.1 seconds

Maximum memory used throughout the entire GTOINT-calculation: 41.5 MB


           ************************************************************
           *        Program running with 16 parallel MPI-processes    *
           *              working on a common directory               *
           ************************************************************
-------------------------------------------------------------------------------
                                 ORCA SCF
-------------------------------------------------------------------------------

------------
SCF SETTINGS
------------
Hamiltonian:
 Density Functional     Method          .... DFT(GTOs)
 Exchange Functional    Exchange        .... B88
   X-Alpha parameter    XAlpha          ....  0.666667
   Becke's b parameter  XBeta           ....  0.004200
 Correlation Functional Correlation     .... LYP
 LDA part of GGA corr.  LDAOpt          .... VWN-5
 Gradients option       PostSCFGGA      .... off
 Hybrid DFT is turned on
   Fraction HF Exchange ScalHFX         ....  0.200000
   Scaling of DF-GGA-X  ScalDFX         ....  0.720000
   Scaling of DF-GGA-C  ScalDFC         ....  0.810000
   Scaling of DF-LDA-C  ScalLDAC        ....  1.000000
   Perturbative correction              ....  0.000000
   Density functional embedding theory  .... OFF
   NL short-range parameter             ....  4.800000
 RI-approximation to the Coulomb term is turned on
   Number of AuxJ basis functions       .... 1451
   RIJ-COSX (HFX calculated with COS-X)).... on


General Settings:
 Integral files         IntName         .... opt_EPRII
 Hartree-Fock type      HFTyp           .... UHF
 Total Charge           Charge          ....    0
 Multiplicity           Mult            ....    2
 Number of Electrons    NEL             ....  169
 Basis Dimension        Dim             ....  583
 Nuclear Repulsion      ENuc            ....   1724.0227777858 Eh

Convergence Acceleration:
 DIIS                   CNVDIIS         .... on
   Start iteration      DIISMaxIt       ....    12
   Startup error        DIISStart       ....  0.200000
   # of expansion vecs  DIISMaxEq       ....     5
   Bias factor          DIISBfac        ....   1.050
   Max. coefficient     DIISMaxC        ....  10.000
 Trust-Rad. Augm. Hess. CNVTRAH         .... auto
   Auto Start mean grad. ratio tolernc. ....  1.125000
   Auto Start start iteration           ....    20
   Auto Start num. interpolation iter.  ....    10
   Max. Number of Micro iterations      ....    16
   Max. Number of Macro iterations      .... Maxiter - #DIIS iter
   Number of Davidson start vectors     ....     2
   Converg. threshold I  (grad. norm)   ....   1.000e-05
   Converg. threshold II (energy diff.) ....   1.000e-08
   Grad. Scal. Fac. for Micro threshold ....   0.100
   Minimum threshold for Micro iter.    ....   0.010
   NR start threshold (gradient norm)   ....   0.001
   Initial trust radius                 ....   0.400
   Minimum AH scaling param. (alpha)    ....   1.000
   Maximum AH scaling param. (alpha)    .... 1000.000
   Orbital update algorithm             .... Taylor
   White noise on init. David. guess    .... on
   Maximum white noise                  ....   0.010
   Quad. conv. algorithm                .... NR
 SOSCF                  CNVSOSCF        .... off
 Level Shifting         CNVShift        .... on
   Level shift para.    LevelShift      ....    0.2500
   Turn off err/grad.   ShiftErr        ....    0.0010
 Zerner damping         CNVZerner       .... off
 Static damping         CNVDamp         .... on
   Fraction old density DampFac         ....    0.7000
   Max. Damping (<1)    DampMax         ....    0.9800
   Min. Damping (>=0)   DampMin         ....    0.0000
   Turn off err/grad.   DampErr         ....    0.1000
 Fernandez-Rico         CNVRico         .... off

SCF Procedure:
 Maximum # iterations   MaxIter         ....   125
 SCF integral mode      SCFMode         .... Direct
   Integral package                     .... SHARK and LIBINT hybrid scheme
 Reset frequency        DirectResetFreq ....    20
 Integral Threshold     Thresh          ....  2.500e-11 Eh
 Primitive CutOff       TCut            ....  2.500e-12 Eh

Convergence Tolerance:
 Convergence Check Mode ConvCheckMode   .... Total+1el-Energy
 Convergence forced     ConvForced      .... 0
 Energy Change          TolE            ....  1.000e-08 Eh
 1-El. energy change                    ....  1.000e-05 Eh
 DIIS Error             TolErr          ....  5.000e-07


Diagonalization of the overlap matrix:
Smallest eigenvalue                        ... 7.283e-05
Time for diagonalization                   ...    0.068 sec
Threshold for overlap eigenvalues          ... 1.000e-08
Number of eigenvalues below threshold      ... 0
Time for construction of square roots      ...    0.066 sec
Total time needed                          ...    0.135 sec

Time for model grid setup =    0.375 sec

------------------------------
INITIAL GUESS: MODEL POTENTIAL
------------------------------
Loading Hartree-Fock densities                     ... done
Calculating cut-offs                               ... done
Initializing the effective Hamiltonian             ... done
Setting up the integral package (SHARK)            ... done
Starting the Coulomb interaction                   ... done (   0.3 sec)
Reading the grid                                   ... done
Mapping shells                                     ... done
Starting the XC term evaluation                    ... done (   0.1 sec)
  promolecular density results
     # of electrons  =    168.989218491
     EX              =   -130.677553880
     EC              =     -5.564730705
     EX+EC           =   -136.242284585
Transforming the Hamiltonian                       ... done (   0.0 sec)
Diagonalizing the Hamiltonian                      ... done (   0.1 sec)
Back transforming the eigenvectors                 ... done (   0.0 sec)
Now organizing SCF variables                       ... done
                      ------------------
                      INITIAL GUESS DONE (   1.2 sec)
                      ------------------
-------------------
DFT GRID GENERATION
-------------------

General Integration Accuracy     IntAcc      ... 4.388
Radial Grid Type                 RadialGrid  ... OptM3 with GC (2021)
Angular Grid (max. ang.)         AngularGrid ... 4 (Lebedev-302)
Angular grid pruning method      GridPruning ... 4 (adaptive)
Weight generation scheme         WeightScheme... Becke
Basis function cutoff            BFCut       ... 1.0000e-11
Integration weight cutoff        WCut        ... 1.0000e-14
Angular grids for H and He will be reduced by one unit
Partially contracted basis set               ... off
Rotationally invariant grid construction     ... off

Total number of grid points                  ...   223167
Total number of batches                      ...     3511
Average number of points per batch           ...       63
Average number of grid points per atom       ...     4554
Time for grid setup =    1.583 sec

--------------------
COSX GRID GENERATION
--------------------

GRIDX 1
-------
General Integration Accuracy     IntAcc      ... 3.816
Radial Grid Type                 RadialGrid  ... OptM3 with GC (2021)
Angular Grid (max. ang.)         AngularGrid ... 1 (Lebedev-50)
Angular grid pruning method      GridPruning ... 4 (adaptive)
Weight generation scheme         WeightScheme... Becke
Basis function cutoff            BFCut       ... 1.0000e-11
Integration weight cutoff        WCut        ... 1.0000e-14
Angular grids for H and He will be reduced by one unit
Partially contracted basis set               ... on
Rotationally invariant grid construction     ... off

Total number of grid points                  ...    28454
Total number of batches                      ...      471
Average number of points per batch           ...       60
Average number of grid points per atom       ...      581
UseSFitting                                  ... on

GRIDX 2
-------
General Integration Accuracy     IntAcc      ... 4.020
Radial Grid Type                 RadialGrid  ... OptM3 with GC (2021)
Angular Grid (max. ang.)         AngularGrid ... 2 (Lebedev-110)
Angular grid pruning method      GridPruning ... 4 (adaptive)
Weight generation scheme         WeightScheme... Becke
Basis function cutoff            BFCut       ... 1.0000e-11
Integration weight cutoff        WCut        ... 1.0000e-14
Angular grids for H and He will be reduced by one unit
Partially contracted basis set               ... on
Rotationally invariant grid construction     ... off

Total number of grid points                  ...    60638
Total number of batches                      ...      972
Average number of points per batch           ...       62
Average number of grid points per atom       ...     1238
UseSFitting                                  ... on

GRIDX 3
-------
General Integration Accuracy     IntAcc      ... 4.338
Radial Grid Type                 RadialGrid  ... OptM3 with GC (2021)
Angular Grid (max. ang.)         AngularGrid ... 3 (Lebedev-194)
Angular grid pruning method      GridPruning ... 4 (adaptive)
Weight generation scheme         WeightScheme... Becke
Basis function cutoff            BFCut       ... 1.0000e-11
Integration weight cutoff        WCut        ... 1.0000e-14
Angular grids for H and He will be reduced by one unit
Partially contracted basis set               ... on
Rotationally invariant grid construction     ... off

Total number of grid points                  ...   132616
Total number of batches                      ...     2098
Average number of points per batch           ...       63
Average number of grid points per atom       ...     2706
UseSFitting                                  ... on

Time for X-Grid setup             =    2.844 sec

--------------
SCF ITERATIONS
--------------
ITER       Energy         Delta-E        Max-DP      RMS-DP      [F,P]     Damp
               ***  Starting incremental Fock matrix formation  ***
  0   -928.4456009954   0.000000000000 0.07596141  0.00086926  0.0795994 0.7000
  1   -928.6768560825  -0.231255087157 0.05071655  0.00061749  0.0426102 0.7000
                               ***Turning on DIIS***
  2   -928.7819545677  -0.105098485227 0.12559754  0.00129357  0.0165445 0.0000
  3   -928.9301838598  -0.148229292058 0.03006182  0.00035607  0.0233561 0.0000
  4   -928.9696287544  -0.039444894572 0.02959023  0.00019709  0.0050610 0.0000
  5   -928.9715763367  -0.001947582314 0.01614757  0.00009777  0.0029502 0.0000
  6   -928.9718825171  -0.000306180440 0.00615179  0.00003975  0.0021709 0.0000
  7   -928.9719983259  -0.000115808757 0.00285187  0.00002062  0.0015140 0.0000
  8   -928.9720634130  -0.000065087147 0.00454063  0.00002470  0.0009570 0.0000
               *** Restarting incremental Fock matrix formation ***
                                   *** Resetting DIIS ***
  9   -928.9724033917  -0.000339978639 0.00296288  0.00002154  0.0008498 0.0000
 10   -928.9723947106   0.000008681087 0.00077496  0.00000466  0.0018857 0.0000
 11   -928.9724145586  -0.000019848051 0.00068210  0.00000467  0.0006525 0.0000
 12   -928.9724193339  -0.000004775249 0.00080276  0.00000411  0.0002035 0.0000
 13   -928.9724213717  -0.000002037853 0.00038799  0.00000230  0.0001913 0.0000
 14   -928.9724223312  -0.000000959467 0.00030452  0.00000172  0.0001036 0.0000
 15   -928.9724226070  -0.000000275812 0.00012780  0.00000065  0.0000854 0.0000
 16   -928.9724226863  -0.000000079302 0.00006544  0.00000045  0.0000418 0.0000
 17   -928.9724227274  -0.000000041047 0.00005159  0.00000034  0.0000273 0.0000
 18   -928.9724227293  -0.000000001973 0.00004982  0.00000029  0.0000110 0.0000
 19   -928.9724227138   0.000000015565 0.00002350  0.00000015  0.0000114 0.0000
 20   -928.9724227218  -0.000000008028 0.00003860  0.00000021  0.0000037 0.0000
 21   -928.9724227198   0.000000002025 0.00002450  0.00000017  0.0000061 0.0000
 22   -928.9724227219  -0.000000002125 0.00001621  0.00000012  0.0000029 0.0000
 23   -928.9724227104   0.000000011453 0.00002046  0.00000013  0.0000018 0.0000
 24   -928.9724227328  -0.000000022359 0.00002824  0.00000013  0.0000012 0.0000
                            ***DIIS convergence achieved***

               *****************************************************
               *                     SUCCESS                       *
               *           SCF CONVERGED AFTER  25 CYCLES          *
               *****************************************************

Old exchange energy                            =    -26.606224650 Eh
New exchange energy                            =    -26.606240984 Eh
Exchange energy change after final integration =     -0.000016333 Eh
Total energy after final integration           =   -928.972439067 Eh
Final COS-X integration done in                =    10.856 sec

----------------
TOTAL SCF ENERGY
----------------

Total Energy       :         -928.97243907 Eh          -25278.62521 eV

Components:
Nuclear Repulsion  :         1724.02277779 Eh           46913.04480 eV
Electronic Energy  :        -2652.99521685 Eh          -72191.67000 eV
One Electron Energy:        -4676.89862904 Eh         -127264.88172 eV
Two Electron Energy:         2023.90341219 Eh           55073.21171 eV
Max COSX asymmetry :            0.00000330 Eh               0.00009 eV

Virial components:
Potential Energy   :        -1850.54732800 Eh          -50355.95284 eV
Kinetic Energy     :          921.57488893 Eh           25077.32763 eV
Virial Ratio       :            2.00802707


DFT components:
N(Alpha)           :       85.000160501030 electrons
N(Beta)            :       84.000150103216 electrons
N(Total)           :      169.000310604246 electrons
E(X)               :     -105.550963587430 Eh       
E(C)               :       -6.576860583528 Eh       
E(XC)              :     -112.127824170958 Eh       
DFET-embed. en.    :        0.000000000000 Eh       

---------------
SCF CONVERGENCE
---------------

  Last Energy change         ...   -2.6625e-10  Tolerance :   1.0000e-08
  Last MAX-Density change    ...    0.0000e+00  Tolerance :   1.0000e-07
  Last RMS-Density change    ...    0.0000e+00  Tolerance :   5.0000e-09
  Last DIIS Error            ...    7.7498e-07  Tolerance :   5.0000e-07

             **** THE GBW FILE WAS UPDATED (opt_EPRII.gbw) ****
             **** DENSITY opt_EPRII.scfp WAS UPDATED ****
             **** ENERGY FILE WAS UPDATED (opt_EPRII.en.tmp) ****
----------------------
UHF SPIN CONTAMINATION
----------------------

Warning: in a DFT calculation there is little theoretical justification to 
         calculate <S**2> as in Hartree-Fock theory. We will do it anyways
         but you should keep in mind that the values have only limited relevance

Expectation value of <S**2>     :     0.787156
Ideal value S*(S+1) for S=0.5   :     0.750000
Deviation                       :     0.037156

             **** THE GBW FILE WAS UPDATED (opt_EPRII.gbw) ****
             **** DENSITY opt_EPRII.scfp WAS UPDATED ****
----------------
ORBITAL ENERGIES
----------------
                 SPIN UP ORBITALS
  NO   OCC          E(Eh)            E(eV) 
   0   1.0000     -10.227899      -278.3153 
   1   1.0000     -10.223338      -278.1912 
   2   1.0000     -10.221685      -278.1462 
   3   1.0000     -10.211057      -277.8570 
   4   1.0000     -10.208313      -277.7823 
   5   1.0000     -10.205657      -277.7100 
   6   1.0000     -10.205541      -277.7069 
   7   1.0000     -10.205315      -277.7007 
   8   1.0000     -10.204596      -277.6812 
   9   1.0000     -10.204403      -277.6759 
  10   1.0000     -10.203307      -277.6461 
  11   1.0000     -10.202277      -277.6181 
  12   1.0000     -10.201038      -277.5844 
  13   1.0000     -10.200136      -277.5598 
  14   1.0000     -10.197707      -277.4937 
  15   1.0000     -10.196999      -277.4745 
  16   1.0000     -10.195774      -277.4411 
  17   1.0000     -10.189601      -277.2731 
  18   1.0000     -10.188011      -277.2299 
  19   1.0000     -10.184618      -277.1375 
  20   1.0000     -10.182705      -277.0855 
  21   1.0000     -10.182356      -277.0760 
  22   1.0000     -10.174878      -276.8725 
  23   1.0000     -10.173188      -276.8265 
  24   1.0000      -0.873443       -23.7676 
  25   1.0000      -0.863738       -23.5035 
  26   1.0000      -0.819127       -22.2896 
  27   1.0000      -0.797915       -21.7124 
  28   1.0000      -0.794960       -21.6320 
  29   1.0000      -0.778813       -21.1926 
  30   1.0000      -0.766741       -20.8641 
  31   1.0000      -0.751743       -20.4560 
  32   1.0000      -0.745034       -20.2734 
  33   1.0000      -0.729127       -19.8406 
  34   1.0000      -0.714869       -19.4526 
  35   1.0000      -0.696601       -18.9555 
  36   1.0000      -0.655655       -17.8413 
  37   1.0000      -0.644157       -17.5284 
  38   1.0000      -0.619977       -16.8704 
  39   1.0000      -0.611666       -16.6443 
  40   1.0000      -0.610135       -16.6026 
  41   1.0000      -0.592143       -16.1130 
  42   1.0000      -0.579286       -15.7632 
  43   1.0000      -0.561616       -15.2823 
  44   1.0000      -0.542614       -14.7653 
  45   1.0000      -0.531169       -14.4538 
  46   1.0000      -0.507360       -13.8060 
  47   1.0000      -0.490946       -13.3593 
  48   1.0000      -0.481057       -13.0902 
  49   1.0000      -0.476318       -12.9613 
  50   1.0000      -0.470496       -12.8029 
  51   1.0000      -0.462077       -12.5738 
  52   1.0000      -0.457629       -12.4527 
  53   1.0000      -0.438330       -11.9276 
  54   1.0000      -0.431779       -11.7493 
  55   1.0000      -0.429124       -11.6771 
  56   1.0000      -0.425953       -11.5908 
  57   1.0000      -0.425399       -11.5757 
  58   1.0000      -0.421911       -11.4808 
  59   1.0000      -0.411407       -11.1949 
  60   1.0000      -0.398254       -10.8370 
  61   1.0000      -0.397368       -10.8129 
  62   1.0000      -0.383706       -10.4412 
  63   1.0000      -0.378400       -10.2968 
  64   1.0000      -0.377425       -10.2703 
  65   1.0000      -0.364622        -9.9219 
  66   1.0000      -0.362877        -9.8744 
  67   1.0000      -0.356560        -9.7025 
  68   1.0000      -0.354341        -9.6421 
  69   1.0000      -0.352293        -9.5864 
  70   1.0000      -0.339514        -9.2387 
  71   1.0000      -0.332412        -9.0454 
  72   1.0000      -0.332065        -9.0359 
  73   1.0000      -0.330376        -8.9900 
  74   1.0000      -0.327199        -8.9035 
  75   1.0000      -0.323171        -8.7939 
  76   1.0000      -0.321375        -8.7451 
  77   1.0000      -0.298080        -8.1112 
  78   1.0000      -0.275365        -7.4931 
  79   1.0000      -0.275353        -7.4927 
  80   1.0000      -0.269673        -7.3382 
  81   1.0000      -0.259547        -7.0626 
  82   1.0000      -0.256656        -6.9840 
  83   1.0000      -0.215641        -5.8679 
  84   1.0000      -0.173701        -4.7267 
  85   0.0000      -0.062155        -1.6913 
  86   0.0000      -0.014782        -0.4022 
  87   0.0000      -0.012370        -0.3366 
  88   0.0000       0.014225         0.3871 
  89   0.0000       0.014279         0.3886 
  90   0.0000       0.021344         0.5808 
  91   0.0000       0.022132         0.6022 
  92   0.0000       0.029995         0.8162 
  93   0.0000       0.033674         0.9163 
  94   0.0000       0.035598         0.9687 
  95   0.0000       0.040091         1.0909 
  96   0.0000       0.045311         1.2330 
  97   0.0000       0.048090         1.3086 
  98   0.0000       0.050443         1.3726 
  99   0.0000       0.055375         1.5068 
 100   0.0000       0.060920         1.6577 
 101   0.0000       0.061028         1.6607 
 102   0.0000       0.067640         1.8406 
 103   0.0000       0.076832         2.0907 
 104   0.0000       0.081141         2.2080 
 105   0.0000       0.083700         2.2776 
 106   0.0000       0.090232         2.4553 
 107   0.0000       0.106244         2.8911 
 108   0.0000       0.109816         2.9882 
 109   0.0000       0.113477         3.0879 
 110   0.0000       0.117462         3.1963 
 111   0.0000       0.127501         3.4695 
 112   0.0000       0.137716         3.7475 
 113   0.0000       0.153628         4.1804 
 114   0.0000       0.154016         4.1910 
 115   0.0000       0.158116         4.3026 
 116   0.0000       0.160995         4.3809 
 117   0.0000       0.172246         4.6871 
 118   0.0000       0.175941         4.7876 
 119   0.0000       0.181548         4.9402 
 120   0.0000       0.183562         4.9950 
 121   0.0000       0.192256         5.2315 
 122   0.0000       0.193342         5.2611 
 123   0.0000       0.199462         5.4276 
 124   0.0000       0.200200         5.4477 
 125   0.0000       0.200275         5.4497 
 126   0.0000       0.203162         5.5283 
 127   0.0000       0.206910         5.6303 
 128   0.0000       0.215422         5.8619 
 129   0.0000       0.217208         5.9105 
 130   0.0000       0.219131         5.9629 
 131   0.0000       0.221453         6.0260 
 132   0.0000       0.225045         6.1238 
 133   0.0000       0.235575         6.4103 
 134   0.0000       0.238654         6.4941 
 135   0.0000       0.244771         6.6606 
 136   0.0000       0.246917         6.7189 
 137   0.0000       0.251201         6.8355 
 138   0.0000       0.251667         6.8482 
 139   0.0000       0.253904         6.9091 
 140   0.0000       0.260099         7.0777 
 141   0.0000       0.265263         7.2182 
 142   0.0000       0.270815         7.3693 
 143   0.0000       0.274816         7.4781 
 144   0.0000       0.276747         7.5307 
 145   0.0000       0.277249         7.5443 
 146   0.0000       0.285087         7.7576 
 147   0.0000       0.285319         7.7639 
 148   0.0000       0.287376         7.8199 
 149   0.0000       0.291969         7.9449 
 150   0.0000       0.292810         7.9678 
 151   0.0000       0.297742         8.1020 
 152   0.0000       0.299022         8.1368 
 153   0.0000       0.303519         8.2592 
 154   0.0000       0.308380         8.3914 
 155   0.0000       0.309751         8.4287 
 156   0.0000       0.311344         8.4721 
 157   0.0000       0.312603         8.5064 
 158   0.0000       0.316844         8.6218 
 159   0.0000       0.318002         8.6533 
 160   0.0000       0.318782         8.6745 
 161   0.0000       0.323541         8.8040 
 162   0.0000       0.329394         8.9633 
 163   0.0000       0.334979         9.1152 
 164   0.0000       0.338660         9.2154 
 165   0.0000       0.344379         9.3710 
 166   0.0000       0.347589         9.4584 
 167   0.0000       0.348232         9.4759 
 168   0.0000       0.349623         9.5137 
 169   0.0000       0.356960         9.7134 
 170   0.0000       0.359962         9.7951 
 171   0.0000       0.370382        10.0786 
 172   0.0000       0.372181        10.1276 
 173   0.0000       0.376689        10.2502 
 174   0.0000       0.378090        10.2884 
 175   0.0000       0.383727        10.4417 
 176   0.0000       0.388857        10.5813 
 177   0.0000       0.397939        10.8285 
 178   0.0000       0.400991        10.9115 
 179   0.0000       0.404851        11.0165 
 180   0.0000       0.407952        11.1009 
 181   0.0000       0.414735        11.2855 
 182   0.0000       0.416857        11.3433 
 183   0.0000       0.420311        11.4372 
 184   0.0000       0.427285        11.6270 
 185   0.0000       0.428323        11.6553 
 186   0.0000       0.430403        11.7119 
 187   0.0000       0.439356        11.9555 
 188   0.0000       0.445060        12.1107 
 189   0.0000       0.447788        12.1849 
 190   0.0000       0.449994        12.2450 
 191   0.0000       0.455766        12.4020 
 192   0.0000       0.459663        12.5081 
 193   0.0000       0.468113        12.7380 
 194   0.0000       0.470900        12.8138 
 195   0.0000       0.473846        12.8940 
 196   0.0000       0.476169        12.9572 
 197   0.0000       0.481812        13.1108 
 198   0.0000       0.483828        13.1656 
 199   0.0000       0.488970        13.3055 
 200   0.0000       0.501777        13.6540 
 201   0.0000       0.502721        13.6797 
 202   0.0000       0.512038        13.9333 
 203   0.0000       0.517395        14.0790 
 204   0.0000       0.522480        14.2174 
 205   0.0000       0.524660        14.2767 
 206   0.0000       0.532087        14.4788 
 207   0.0000       0.534891        14.5551 
 208   0.0000       0.538290        14.6476 
 209   0.0000       0.546732        14.8773 
 210   0.0000       0.550883        14.9903 
 211   0.0000       0.554617        15.0919 
 212   0.0000       0.558563        15.1993 
 213   0.0000       0.570150        15.5146 
 214   0.0000       0.586514        15.9599 
 215   0.0000       0.587101        15.9758 
 216   0.0000       0.595055        16.1923 
 217   0.0000       0.595756        16.2113 
 218   0.0000       0.604009        16.4359 
 219   0.0000       0.606248        16.4969 
 220   0.0000       0.611719        16.6457 
 221   0.0000       0.627867        17.0851 
 222   0.0000       0.633791        17.2463 
 223   0.0000       0.647287        17.6136 
 224   0.0000       0.648086        17.6353 
 225   0.0000       0.666984        18.1496 
 226   0.0000       0.671953        18.2848 
 227   0.0000       0.673349        18.3228 
 228   0.0000       0.678107        18.4522 
 229   0.0000       0.683347        18.5948 
 230   0.0000       0.706515        19.2252 
 231   0.0000       0.725624        19.7452 
 232   0.0000       0.727895        19.8070 
 233   0.0000       0.763887        20.7864 
 234   0.0000       0.769488        20.9388 
 235   0.0000       0.776848        21.1391 
 236   0.0000       0.791050        21.5256 
 237   0.0000       0.795255        21.6400 
 238   0.0000       0.813024        22.1235 
 239   0.0000       0.829945        22.5839 
 240   0.0000       0.836350        22.7582 
 241   0.0000       0.840071        22.8595 
 242   0.0000       0.847321        23.0568 
 243   0.0000       0.850371        23.1398 
 244   0.0000       0.853017        23.2118 
 245   0.0000       0.857017        23.3206 
 246   0.0000       0.861361        23.4388 
 247   0.0000       0.867333        23.6013 
 248   0.0000       0.867735        23.6123 
 249   0.0000       0.870614        23.6906 
 250   0.0000       0.884249        24.0616 
 251   0.0000       0.891962        24.2715 
 252   0.0000       0.895372        24.3643 
 253   0.0000       0.901982        24.5442 
 254   0.0000       0.910554        24.7774 
 255   0.0000       0.912145        24.8207 
 256   0.0000       0.915559        24.9136 
 257   0.0000       0.926391        25.2084 
 258   0.0000       0.926945        25.2235 
 259   0.0000       0.929500        25.2930 
 260   0.0000       0.935294        25.4506 
 261   0.0000       0.935688        25.4614 
 262   0.0000       0.940218        25.5846 
 263   0.0000       0.946414        25.7532 
 264   0.0000       0.956820        26.0364 
 265   0.0000       0.958399        26.0794 
 266   0.0000       0.962326        26.1862 
 267   0.0000       0.970088        26.3974 
 268   0.0000       0.977217        26.5914 
 269   0.0000       0.977983        26.6123 
 270   0.0000       0.979100        26.6427 
 271   0.0000       0.992424        27.0052 
 272   0.0000       0.994236        27.0545 
 273   0.0000       0.997288        27.1376 
 274   0.0000       1.001581        27.2544 
 275   0.0000       1.003576        27.3087 
 276   0.0000       1.005559        27.3626 
 277   0.0000       1.013176        27.5699 
 278   0.0000       1.027262        27.9532 
 279   0.0000       1.029270        28.0079 
 280   0.0000       1.030032        28.0286 
 281   0.0000       1.034653        28.1543 
 282   0.0000       1.038067        28.2472 
 283   0.0000       1.042629        28.3714 
 284   0.0000       1.051830        28.6217 
 285   0.0000       1.058423        28.8012 
 286   0.0000       1.064622        28.9698 
 287   0.0000       1.066831        29.0300 
 288   0.0000       1.067361        29.0444 
 289   0.0000       1.094217        29.7752 
 290   0.0000       1.102085        29.9893 
 291   0.0000       1.113113        30.2893 
 292   0.0000       1.113795        30.3079 
 293   0.0000       1.114837        30.3363 
 294   0.0000       1.124257        30.5926 
 295   0.0000       1.130348        30.7583 
 296   0.0000       1.138027        30.9673 
 297   0.0000       1.150701        31.3122 
 298   0.0000       1.156205        31.4619 
 299   0.0000       1.172642        31.9092 
 300   0.0000       1.178910        32.0798 
 301   0.0000       1.179291        32.0901 
 302   0.0000       1.187222        32.3059 
 303   0.0000       1.190389        32.3921 
 304   0.0000       1.201743        32.7011 
 305   0.0000       1.203685        32.7539 
 306   0.0000       1.218988        33.1703 
 307   0.0000       1.221395        33.2358 
 308   0.0000       1.241875        33.7931 
 309   0.0000       1.242600        33.8129 
 310   0.0000       1.253802        34.1177 
 311   0.0000       1.257078        34.2068 
 312   0.0000       1.264121        34.3985 
 313   0.0000       1.274397        34.6781 
 314   0.0000       1.288530        35.0627 
 315   0.0000       1.299683        35.3662 
 316   0.0000       1.307573        35.5809 
 317   0.0000       1.312934        35.7267 
[...]
      dz2     :    -0.000101  d :    -0.007160
      dxz     :    -0.006276
      dyz     :     0.000052
      dx2y2   :    -0.000270
      dxy     :    -0.000564
  3 C s       :     0.005882  s :     0.005882
      pz      :     0.158413  p :     0.167412
      px      :     0.004206
      py      :     0.004793
      dz2     :    -0.000876  d :    -0.009286
      dxz     :    -0.001921
      dyz     :    -0.004438
      dx2y2   :    -0.000975
      dxy     :    -0.001077
  4 C s       :    -0.006412  s :    -0.006412
      pz      :    -0.088922  p :    -0.104673
      px      :    -0.006700
      py      :    -0.009051
      dz2     :     0.000581  d :     0.039844
      dxz     :     0.011033
      dyz     :     0.025201
      dx2y2   :     0.001401
      dxy     :     0.001628
  5 C s       :     0.005474  s :     0.005474
      pz      :     0.163627  p :     0.172295
      px      :     0.004646
      py      :     0.004022
      dz2     :    -0.000671  d :    -0.007920
      dxz     :    -0.003981
      dyz     :    -0.001641
      dx2y2   :    -0.000643
      dxy     :    -0.000984
  6 C s       :    -0.003606  s :    -0.003606
      pz      :    -0.064897  p :    -0.072533
      px      :    -0.002898
      py      :    -0.004738
      dz2     :     0.000397  d :     0.017091
      dxz     :     0.001925
      dyz     :     0.013105
      dx2y2   :     0.000652
      dxy     :     0.001013
  7 C s       :     0.006117  s :     0.006117
      pz      :     0.167662  p :     0.176847
      px      :     0.004563
      py      :     0.004622
      dz2     :    -0.000808  d :    -0.006452
      dxz     :    -0.002938
      dyz     :    -0.001488
      dx2y2   :    -0.000587
      dxy     :    -0.000631
  8 C s       :    -0.003711  s :    -0.003711
      pz      :    -0.071384  p :    -0.079480
      px      :    -0.004503
      py      :    -0.003593
      dz2     :     0.000339  d :     0.017520
      dxz     :     0.011121
      dyz     :     0.004691
      dx2y2   :     0.000722
      dxy     :     0.000647
  9 H s       :    -0.004828  s :    -0.004828
      pz      :     0.005168  p :     0.006043
      px      :     0.000303
      py      :     0.000572
 10 H s       :     0.002080  s :     0.002080
      pz      :    -0.002151  p :    -0.002668
      px      :    -0.000206
      py      :    -0.000311
 11 C s       :     0.017433  s :     0.017433
      pz      :     0.547851  p :     0.571083
      px      :     0.011543
      py      :     0.011689
      dz2     :    -0.002057  d :    -0.006154
      dxz     :    -0.000310
      dyz     :    -0.001667
      dx2y2   :    -0.001082
      dxy     :    -0.001039
 12 H s       :    -0.014974  s :    -0.014974
      pz      :     0.016874  p :     0.019542
      px      :     0.002502
      py      :     0.000165
 13 C s       :    -0.003127  s :    -0.003127
      pz      :    -0.003372  p :    -0.017436
      px      :    -0.004995
      py      :    -0.009069
      dz2     :     0.000371  d :     0.024111
      dxz     :     0.010346
      dyz     :     0.011948
      dx2y2   :     0.000612
      dxy     :     0.000833
 14 H s       :     0.025127  s :     0.025127
      pz      :    -0.000286  p :    -0.000767
      px      :    -0.000392
      py      :    -0.000089
 15 H s       :     0.025026  s :     0.025026
      pz      :    -0.000282  p :    -0.000766
      px      :    -0.000394
      py      :    -0.000090
 16 C s       :     0.000056  s :     0.000056
      pz      :     0.000878  p :     0.001286
      px      :     0.000296
      py      :     0.000112
      dz2     :    -0.000056  d :    -0.000398
      dxz     :     0.000239
      dyz     :    -0.000122
      dx2y2   :    -0.000386
      dxy     :    -0.000073
 17 H s       :    -0.000202  s :    -0.000202
      pz      :     0.000033  p :     0.000155
      px      :     0.000073
      py      :     0.000050
 18 H s       :    -0.000202  s :    -0.000202
      pz      :     0.000033  p :     0.000155
      px      :     0.000071
      py      :     0.000051
 19 C s       :    -0.000240  s :    -0.000240
      pz      :     0.000399  p :    -0.000012
      px      :    -0.000077
      py      :    -0.000334
      dz2     :    -0.000003  d :     0.000086
      dxz     :     0.000003
      dyz     :     0.000093
      dx2y2   :     0.000009
      dxy     :    -0.000017
 20 H s       :     0.000170  s :     0.000170
      pz      :     0.000001  p :     0.000031
      px      :     0.000014
      py      :     0.000016
 21 H s       :     0.000170  s :     0.000170
      pz      :     0.000001  p :     0.000032
      px      :     0.000014
      py      :     0.000017
 22 C s       :    -0.001086  s :    -0.001086
      pz      :    -0.000156  p :    -0.005173
      px      :    -0.002219
      py      :    -0.002797
      dz2     :     0.000138  d :     0.007877
      dxz     :     0.004086
      dyz     :     0.003140
      dx2y2   :     0.000198
      dxy     :     0.000315
 23 H s       :     0.008438  s :     0.008438
      pz      :    -0.000108  p :    -0.000237
      px      :    -0.000161
      py      :     0.000032
 24 H s       :     0.008440  s :     0.008440
      pz      :    -0.000108  p :    -0.000237
      px      :    -0.000161
      py      :     0.000032
 25 C s       :     0.000043  s :     0.000043
      pz      :    -0.000000  p :     0.000197
      px      :     0.000115
      py      :     0.000082
      dz2     :    -0.000014  d :    -0.000042
      dxz     :     0.000148
      dyz     :    -0.000028
      dx2y2   :    -0.000099
      dxy     :    -0.000049
 26 H s       :    -0.000011  s :    -0.000011
      pz      :     0.000006  p :     0.000019
      px      :     0.000009
      py      :     0.000003
 27 H s       :    -0.000011  s :    -0.000011
      pz      :     0.000006  p :     0.000019
      px      :     0.000009
      py      :     0.000003
 28 C s       :    -0.000053  s :    -0.000053
      pz      :     0.000177  p :     0.000049
      px      :    -0.000032
      py      :    -0.000096
      dz2     :    -0.000002  d :    -0.000001
      dxz     :    -0.000006
      dyz     :     0.000013
      dx2y2   :     0.000000
      dxy     :    -0.000008
 29 H s       :     0.000040  s :     0.000040
      pz      :     0.000001  p :     0.000019
      px      :     0.000003
      py      :     0.000014
 30 H s       :     0.000040  s :     0.000040
      pz      :     0.000001  p :     0.000019
      px      :     0.000003
      py      :     0.000014
 31 C s       :    -0.000009  s :    -0.000009
      pz      :     0.000006  p :    -0.000039
      px      :    -0.000013
      py      :    -0.000032
      dz2     :    -0.000000  d :     0.000013
      dxz     :     0.000010
      dyz     :     0.000005
      dx2y2   :    -0.000003
      dxy     :     0.000001
 32 H s       :     0.000017  s :     0.000017
      pz      :    -0.000000  p :    -0.000002
      px      :    -0.000001
      py      :    -0.000001
 33 H s       :     0.000017  s :     0.000017
      pz      :    -0.000000  p :    -0.000002
      px      :    -0.000001
      py      :    -0.000001
 34 C s       :    -0.001157  s :    -0.001157
      pz      :    -0.029577  p :    -0.034919
      px      :    -0.000535
      py      :    -0.004807
      dz2     :     0.000135  d :     0.001969
      dxz     :     0.001413
      dyz     :     0.000000
      dx2y2   :     0.000161
      dxy     :     0.000259
 35 H s       :    -0.002430  s :    -0.002430
      pz      :     0.002225  p :     0.002890
      px      :     0.000443
      py      :     0.000222
 36 H s       :    -0.000099  s :    -0.000099
      pz      :     0.000025  p :     0.000014
      px      :     0.000003
      py      :    -0.000014
 37 H s       :    -0.000003  s :    -0.000003
      pz      :    -0.000000  p :    -0.000003
      px      :    -0.000001
      py      :    -0.000002
 38 C s       :     0.000423  s :     0.000423
      pz      :     0.005875  p :     0.006941
      px      :     0.000772
      py      :     0.000294
      dz2     :    -0.000045  d :    -0.002335
      dxz     :    -0.001701
      dyz     :    -0.000180
      dx2y2   :    -0.000123
      dxy     :    -0.000286
 39 C s       :    -0.000337  s :    -0.000337
      pz      :    -0.008270  p :    -0.008816
      px      :    -0.000283
      py      :    -0.000263
      dz2     :     0.000033  d :     0.000473
      dxz     :     0.000212
      dyz     :     0.000132
      dx2y2   :     0.000050
      dxy     :     0.000045
 40 C s       :     0.000183  s :     0.000183
      pz      :     0.003797  p :     0.004191
      px      :     0.000227
      py      :     0.000167
      dz2     :    -0.000019  d :    -0.000836
      dxz     :    -0.000573
      dyz     :    -0.000174
      dx2y2   :    -0.000035
      dxy     :    -0.000036
 41 C s       :    -0.000294  s :    -0.000294
      pz      :    -0.008812  p :    -0.009247
      px      :    -0.000194
      py      :    -0.000241
      dz2     :     0.000037  d :     0.000328
      dxz     :     0.000041
      dyz     :     0.000192
      dx2y2   :     0.000027
      dxy     :     0.000031
 42 C s       :     0.000183  s :     0.000183
      pz      :     0.003793  p :     0.004187
      px      :     0.000223
      py      :     0.000172
      dz2     :    -0.000019  d :    -0.000836
      dxz     :    -0.000547
      dyz     :    -0.000200
      dx2y2   :    -0.000036
      dxy     :    -0.000035
 43 C s       :    -0.000338  s :    -0.000338
      pz      :    -0.008260  p :    -0.008806
      px      :    -0.000289
      py      :    -0.000257
      dz2     :     0.000033  d :     0.000473
      dxz     :     0.000223
      dyz     :     0.000121
      dx2y2   :     0.000053
      dxy     :     0.000043
 44 H s       :     0.000266  s :     0.000266
      pz      :    -0.000281  p :    -0.000328
      px      :    -0.000043
      py      :    -0.000005
 45 H s       :    -0.000115  s :    -0.000115
      pz      :     0.000113  p :     0.000139
      px      :     0.000010
      py      :     0.000016
 46 H s       :     0.000252  s :     0.000252
      pz      :    -0.000231  p :    -0.000280
      px      :    -0.000015
      py      :    -0.000034
 47 H s       :     0.000251  s :     0.000251
      pz      :    -0.000231  p :    -0.000280
      px      :    -0.000013
      py      :    -0.000036
 48 H s       :    -0.000115  s :    -0.000115
      pz      :     0.000113  p :     0.000139
      px      :     0.000010
      py      :     0.000016


                      *****************************
                      * MAYER POPULATION ANALYSIS *
                      *****************************

  NA   - Mulliken gross atomic population
  ZA   - Total nuclear charge
  QA   - Mulliken gross atomic charge
  VA   - Mayer's total valence
  BVA  - Mayer's bonded valence
  FA   - Mayer's free valence

  ATOM       NA         ZA         QA         VA         BVA        FA
  0 C      6.5424     6.0000    -0.5424     3.8858     3.8787     0.0071
  1 C      6.0140     6.0000    -0.0140     3.8068     3.8053     0.0015
  2 C      6.3880     6.0000    -0.3880     3.7672     3.7666     0.0005
  3 C      5.6561     6.0000     0.3439     3.9091     3.8740     0.0351
  4 C      5.5548     6.0000     0.4452     3.8291     3.8145     0.0146
  5 C      6.4578     6.0000    -0.4578     4.2268     4.1908     0.0360
  6 C      5.4527     6.0000     0.5473     3.9009     3.8939     0.0070
  7 C      5.7604     6.0000     0.2396     3.9206     3.8819     0.0387
  8 C      6.3802     6.0000    -0.3802     4.3133     4.3050     0.0083
  9 H      0.8697     1.0000     0.1303     0.9660     0.9659     0.0002
 10 H      0.8662     1.0000     0.1338     0.9658     0.9658     0.0000
 11 C      6.2976     6.0000    -0.2976     4.0389     3.6497     0.3893
 12 H      0.8657     1.0000     0.1343     0.9800     0.9784     0.0016
 13 C      6.2717     6.0000    -0.2717     3.9620     3.9607     0.0014
 14 H      0.8476     1.0000     0.1524     0.9639     0.9630     0.0009
 15 H      0.8478     1.0000     0.1522     0.9640     0.9631     0.0009
 16 C      6.2895     6.0000    -0.2895     3.8996     3.8996     0.0000
 17 H      0.8441     1.0000     0.1559     0.9634     0.9634     0.0000
 18 H      0.8441     1.0000     0.1559     0.9634     0.9634     0.0000
 19 C      6.5094     6.0000    -0.5094     3.9053     3.9053     0.0000
 20 H      0.8411     1.0000     0.1589     0.9654     0.9654     0.0000
 21 H      0.8411     1.0000     0.1589     0.9654     0.9654     0.0000
 22 C      6.3564     6.0000    -0.3564     4.0235     4.0233     0.0002
 23 H      0.8476     1.0000     0.1524     0.9628     0.9626     0.0001
 24 H      0.8476     1.0000     0.1524     0.9628     0.9626     0.0001
 25 C      6.2713     6.0000    -0.2713     4.0240     4.0240     0.0000
 26 H      0.8580     1.0000     0.1420     0.9663     0.9663     0.0000
 27 H      0.8580     1.0000     0.1420     0.9663     0.9663     0.0000
 28 C      6.2626     6.0000    -0.2626     3.8911     3.8911     0.0000
 29 H      0.8559     1.0000     0.1441     0.9671     0.9671     0.0000
 30 H      0.8559     1.0000     0.1441     0.9671     0.9671     0.0000
 31 C      6.5104     6.0000    -0.5104     3.9019     3.9019     0.0000
 32 H      0.8401     1.0000     0.1599     0.9652     0.9652     0.0000
 33 H      0.8401     1.0000     0.1599     0.9652     0.9652     0.0000
 34 C      6.2992     6.0000    -0.2992     3.9551     3.9539     0.0013
 35 H      0.8157     1.0000     0.1843     0.9777     0.9776     0.0000
 36 H      0.8537     1.0000     0.1463     0.9671     0.9671     0.0000
 37 H      0.8563     1.0000     0.1437     0.9669     0.9669     0.0000
 38 C      5.4126     6.0000     0.5874     3.9275     3.9275     0.0001
 39 C      6.2807     6.0000    -0.2807     4.1965     4.1965     0.0001
 40 C      6.0980     6.0000    -0.0980     4.0956     4.0956     0.0000
 41 C      6.1221     6.0000    -0.1221     4.0770     4.0769     0.0001
 42 C      6.1021     6.0000    -0.1021     4.0997     4.0997     0.0000
 43 C      6.2721     6.0000    -0.2721     4.1815     4.1814     0.0001
 44 H      0.8929     1.0000     0.1071     0.9580     0.9580     0.0000
 45 H      0.8940     1.0000     0.1060     0.9613     0.9613     0.0000
 46 H      0.8802     1.0000     0.1198     0.9603     0.9603     0.0000
 47 H      0.8806     1.0000     0.1194     0.9603     0.9603     0.0000
 48 H      0.8939     1.0000     0.1061     0.9615     0.9615     0.0000

  Mayer bond orders larger than 0.100000
B(  0-C ,  1-C ) :   2.6935 B(  0-C , 35-H ) :   0.9862 B(  1-C ,  3-C ) :   0.9243 
B(  2-C ,  6-C ) :   0.7863 B(  2-C , 34-C ) :   2.5207 B(  3-C ,  4-C ) :   1.2449 
B(  3-C ,  8-C ) :   1.4267 B(  4-C ,  5-C ) :   1.2332 B(  4-C ,  6-C ) :   0.1125 
B(  4-C , 11-C ) :   1.2672 B(  5-C ,  6-C ) :   1.4949 B(  5-C ,  9-H ) :   0.9694 
B(  6-C ,  7-C ) :   1.3267 B(  6-C ,  8-C ) :   0.1217 B(  7-C ,  8-C ) :   1.4176 
B(  7-C , 22-C ) :   0.9657 B(  8-C , 10-H ) :   0.9706 B( 11-C , 12-H ) :   0.9899 
B( 11-C , 13-C ) :   1.0031 B( 13-C , 14-H ) :   0.9554 B( 13-C , 15-H ) :   0.9553 
B( 13-C , 16-C ) :   0.9807 B( 16-C , 17-H ) :   0.9723 B( 16-C , 18-H ) :   0.9722 
B( 16-C , 19-C ) :   0.9614 B( 19-C , 20-H ) :   0.9729 B( 19-C , 21-H ) :   0.9729 
B( 19-C , 36-H ) :   0.9674 B( 22-C , 23-H ) :   0.9552 B( 22-C , 24-H ) :   0.9553 
B( 22-C , 25-C ) :   1.0233 B( 25-C , 26-H ) :   0.9616 B( 25-C , 27-H ) :   0.9616 
B( 25-C , 28-C ) :   0.9863 B( 28-C , 29-H ) :   0.9720 B( 28-C , 30-H ) :   0.9720 
B( 28-C , 31-C ) :   0.9547 B( 31-C , 32-H ) :   0.9731 B( 31-C , 33-H ) :   0.9731 
B( 31-C , 37-H ) :   0.9674 B( 34-C , 38-C ) :   1.0056 B( 38-C , 39-C ) :   1.3900 
B( 38-C , 43-C ) :   1.3847 B( 39-C , 40-C ) :   1.4770 B( 39-C , 46-H ) :   0.9820 
B( 40-C , 41-C ) :   1.4526 B( 40-C , 48-H ) :   0.9758 B( 41-C , 42-C ) :   1.4555 
B( 41-C , 44-H ) :   0.9657 B( 42-C , 43-C ) :   1.4766 B( 42-C , 45-H ) :   0.9768 
B( 43-C , 47-H ) :   0.9797 

-------
TIMINGS
-------

Total SCF time: 0 days 0 hours 1 min 17 sec 

Total time                  ....      77.590 sec
Sum of individual times     ....      73.664 sec  ( 94.9%)

Fock matrix formation       ....      65.800 sec  ( 84.8%)
  Split-RI-J                ....       4.992 sec  (  7.6% of F)
  Chain of spheres X        ....      43.814 sec  ( 66.6% of F)
  XC integration            ....      12.353 sec  ( 18.8% of F)
    Basis function eval.    ....       1.110 sec  (  9.0% of XC)
    Density eval.           ....       1.848 sec  ( 15.0% of XC)
    XC-Functional eval.     ....       0.265 sec  (  2.1% of XC)
    XC-Potential eval.      ....       0.810 sec  (  6.6% of XC)
Diagonalization             ....       1.755 sec  (  2.3%)
Density matrix formation    ....       0.157 sec  (  0.2%)
Population analysis         ....       0.548 sec  (  0.7%)
Initial guess               ....       0.314 sec  (  0.4%)
Orbital Transformation      ....       0.000 sec  (  0.0%)
Orbital Orthonormalization  ....       0.249 sec  (  0.3%)
DIIS solution               ....       1.045 sec  (  1.3%)
Grid generation             ....       4.045 sec  (  5.2%)

Maximum memory used throughout the entire SCF-calculation: 137.7 MB

-------------------------   --------------------
FINAL SINGLE POINT ENERGY      -928.973613680530
-------------------------   --------------------

                                *** OPTIMIZATION RUN DONE ***

                            ***************************************
                            *     ORCA property calculations      *
                            ***************************************

                                    ---------------------
                                    Active property flags
                                    ---------------------
   (+) Dipole Moment


------------------------------------------------------------------------------
                       ORCA ELECTRIC PROPERTIES CALCULATION
------------------------------------------------------------------------------

Dipole Moment Calculation                       ... on
Quadrupole Moment Calculation                   ... off
Polarizability Calculation                      ... off
GBWName                                         ... opt_EPRII.gbw
Electron density                                ... opt_EPRII.scfp
The origin for moment calculation is the CENTER OF MASS  = ( 3.164677,  0.007177 -0.005311)

-------------
DIPOLE MOMENT
-------------
                                X             Y             Z
Electronic contribution:      9.61082      -2.45569      -0.01183
Nuclear contribution   :     -9.17689       2.39246       0.01285
                        -----------------------------------------
Total Dipole Moment    :      0.43393      -0.06323       0.00102
                        -----------------------------------------
Magnitude (a.u.)       :      0.43852
Magnitude (Debye)      :      1.11462



--------------------
Rotational spectrum 
--------------------
 
Rotational constants in cm-1:     0.006624     0.004171     0.002568 
Rotational constants in MHz :   198.575673   125.029999    76.977840 

 Dipole components along the rotational axes: 
x,y,z [a.u.] :     0.377929    -0.222407     0.000998 
x,y,z [Debye]:     0.960620    -0.565313     0.002536 

 

Timings for individual modules:

Sum of individual times         ...      931.818 sec (=  15.530 min)
GTO integral calculation        ...       21.462 sec (=   0.358 min)   2.3 %
SCF iterations                  ...      739.355 sec (=  12.323 min)  79.3 %
SCF Gradient evaluation         ...      168.790 sec (=   2.813 min)  18.1 %
Geometry relaxation             ...        2.211 sec (=   0.037 min)   0.2 %
                             ****ORCA TERMINATED NORMALLY****
TOTAL RUN TIME: 0 days 0 hours 15 minutes 55 seconds 38 msec
