
                                 *****************
                                 * O   R   C   A *
                                 *****************

           --- An Ab Initio, DFT and Semiempirical electronic structure package ---

                  #######################################################
                  #                        -***-                        #
                  #          Department of theory and spectroscopy      #
                  #               Directorship: Frank Neese             #
                  #        Max Planck Institute fuer Kohlenforschung    #
                  #                Kaiser Wilhelm Platz 1               #
                  #                 D-45470 Muelheim/Ruhr               #
                  #                      Germany                        #
                  #                                                     #
                  #                  All rights reserved                #
                  #                        -***-                        #
                  #######################################################


                         Program Version 4.2.1 -  RELEASE  -


 With contributions from (in alphabetic order):
   Daniel Aravena         : Magnetic Suceptibility
   Michael Atanasov       : Ab Initio Ligand Field Theory (pilot matlab implementation)
   Alexander A. Auer      : GIAO ZORA, VPT2
   Ute Becker             : Parallelization
   Giovanni Bistoni       : ED, misc. LED, open-shell LED, HFLD
   Martin Brehm           : Molecular dynamics
   Dmytro Bykov           : SCF Hessian
   Vijay G. Chilkuri      : MRCI spin determinant printing, contributions to CSF-ICE
   Dipayan Datta          : RHF DLPNO-CCSD density
   Achintya Kumar Dutta   : EOM-CC, STEOM-CC
   Dmitry Ganyushin       : Spin-Orbit,Spin-Spin,Magnetic field MRCI
   Miquel Garcia          : C-PCM Hessian, Gaussian charge scheme
   Yang Guo               : DLPNO-NEVPT2, CIM, IAO-localization
   Andreas Hansen         : Spin unrestricted coupled pair/coupled cluster methods
   Benjamin Helmich-Paris : CASSCF linear response (MC-RPA)
   Lee Huntington         : MR-EOM, pCC
   Robert Izsak           : Overlap fitted RIJCOSX, COSX-SCS-MP3, EOM
   Christian Kollmar      : KDIIS, OOCD, Brueckner-CCSD(T), CCSD density
   Simone Kossmann        : Meta GGA functionals, TD-DFT gradient, OOMP2, MP2 Hessian
   Martin Krupicka        : AUTO-CI
   Lucas Lang             : DCDCAS
   Dagmar Lenk            : GEPOL surface, SMD
   Dimitrios Liakos       : Extrapolation schemes; Compound Job, initial MDCI parallelization
   Dimitrios Manganas     : Further ROCIS development; embedding schemes
   Dimitrios Pantazis     : SARC Basis sets
   Taras Petrenko         : DFT Hessian,TD-DFT gradient, ASA, ECA, R-Raman, ABS, FL, XAS/XES, NRVS
   Peter Pinski           : DLPNO-MP2, DLPNO-MP2 Gradient
   Christoph Reimann      : Effective Core Potentials
   Marius Retegan         : Local ZFS, SOC
   Christoph Riplinger    : Optimizer, TS searches, QM/MM, DLPNO-CCSD(T), (RO)-DLPNO pert. Triples
   Tobias Risthaus        : Range-separated hybrids, TD-DFT gradient, RPA, STAB
   Michael Roemelt        : Original ROCIS implementation
   Masaaki Saitow         : Open-shell DLPNO-CCSD energy and density
   Barbara Sandhoefer     : DKH picture change effects
   Avijit Sen             : IP-ROCIS
   Kantharuban Sivalingam : CASSCF convergence, NEVPT2, FIC-MRCI
   Bernardo de Souza      : ESD, SOC TD-DFT
   Georgi Stoychev        : AutoAux, RI-MP2 NMR
   Willem Van den Heuvel  : Paramagnetic NMR
   Boris Wezisla          : Elementary symmetry handling
   Frank Wennmohs         : Technical directorship


 We gratefully acknowledge several colleagues who have allowed us to
 interface, adapt or use parts of their codes:
   Stefan Grimme, W. Hujo, H. Kruse,             : VdW corrections, initial TS optimization,
                  C. Bannwarth                     DFT functionals, gCP, sTDA/sTD-DF
   Ed Valeev, F. Pavosevic, A. Kumar             : LibInt (2-el integral package), F12 methods
   Garnet Chan, S. Sharma, J. Yang, R. Olivares  : DMRG
   Ulf Ekstrom                                   : XCFun DFT Library
   Mihaly Kallay                                 : mrcc  (arbitrary order and MRCC methods)
   Andreas Klamt, Michael Diedenhofen            : otool_cosmo (COSMO solvation model)
   Jiri Pittner, Ondrej Demel                    : Mk-CCSD
   Frank Weinhold                                : gennbo (NPA and NBO analysis)
   Christopher J. Cramer and Donald G. Truhlar   : smd solvation model
   Lars Goerigk                                  : TD-DFT with DH, B97 family of functionals
   V. Asgeirsson, H. Jonsson                     : NEB implementation
   FAccTs GmbH                                   : IRC, NEB, NEB-TS, Multilevel, MM, QM/MM, CI optimization
   S Lehtola, MJT Oliveira, MAL Marques          : LibXC Library


 Your calculation uses the libint2 library for the computation of 2-el integrals
 For citations please refer to: http://libint.valeyev.net

 Your ORCA version has been built with support for libXC version: 4.2.3
 For citations please refer to: https://tddft.org/programs/libxc/

 This ORCA versions uses:
   CBLAS   interface :  Fast vector & matrix operations
   LAPACKE interface :  Fast linear algebra routines
   SCALAPACK package :  Parallel linear algebra routines




***************************************
The coordinates will be read from file: opt.xyz
***************************************


----- Orbital basis set information -----
Your calculation utilizes the basis: EPR-II
   V. Barone, in Recent Advances in Density Functional Methods, Part 1 (ed. D. P. Chong), World Scientific, Singapore, 1995, p. 287.

----- AuxJ basis set information -----
Your calculation utilizes the AutoAux generation procedure.
  G. L. Stoychev, A. A. Auer, F. Neese, J. Chem. Theory Comput. 13, 554 (2017)

----- AuxC basis set information -----
Your calculation utilizes the AutoAux generation procedure.
  G. L. Stoychev, A. A. Auer, F. Neese, J. Chem. Theory Comput. 13, 554 (2017)

----- AuxJK basis set information -----
Your calculation utilizes the AutoAux generation procedure.
  G. L. Stoychev, A. A. Auer, F. Neese, J. Chem. Theory Comput. 13, 554 (2017)

================================================================================
                                        WARNINGS
                       Please study these warnings very carefully!
================================================================================


WARNING: your system is open-shell and RHF/RKS was chosen
  ===> : WILL SWITCH to UHF/UKS


INFO   : the flag for use of LIBINT has been found!

================================================================================
                                       INPUT FILE
================================================================================
NAME = g-tensor_EPRII_invariant.inp
|  1> ! B3LYP EPR-II AUTOAUX
|  2> %pal nprocs 16 end
|  3> *XYZFile 0 2 opt.xyz
|  4> %EPRNMR
|  5>         GTENSOR   TRUE
|  6>         NUCLEI    = ALL H {AISO, ADIP, AORB}
|  7>         ORI       GIAO
|  8> END
|  9> 
| 10>                          ****END OF INPUT****
================================================================================

                       ****************************
                       * Single Point Calculation *
                       ****************************

---------------------------------
CARTESIAN COORDINATES (ANGSTROEM)
---------------------------------
  C      4.056606   -0.083885    0.001340
  C      2.834131   -0.022584   -0.001991
  C     -2.844474    0.021416   -0.003157
  C      1.413990    0.023414   -0.002480
  C      0.705203    1.283606   -0.002002
  C     -0.716979    1.213022   -0.002166
  C     -1.410940    0.002984   -0.002915
  C     -0.702181   -1.239913   -0.003468
  C      0.692321   -1.186243   -0.003332
  H     -1.295057    2.137223   -0.001764
  H      1.266908   -2.112260   -0.003759
  C      1.385870    2.519460   -0.001435
  H      2.478940    2.487759   -0.001660
  C      0.724508    3.865171   -0.000848
  H      0.053448    3.958997   -0.879854
  H      0.051480    3.957323    0.876812
  C      1.717495    5.034226    0.001357
  H      2.375731    4.945234    0.885342
  H      2.377519    4.947080   -0.881486
  C      1.034517    6.402751    0.002096
  H      0.392365    6.530045    0.890965
  H      0.394079    6.531870   -0.887744
  C     -1.475825   -2.542283   -0.004047
  H     -2.154051   -2.542044    0.870279
  H     -2.155231   -2.540608   -0.877436
  C     -0.656113   -3.834963   -0.005550
  H      0.007182   -3.858056   -0.890364
  H      0.007541   -3.859866    0.878949
  C     -1.535229   -5.090971   -0.006562
  H     -2.201509   -5.069825    0.876288
  H     -2.201758   -5.068247   -0.889184
  C     -0.727517   -6.390715   -0.007820
  H     -0.076985   -6.459617    0.881483
  H     -0.077300   -6.458082   -0.897471
  C     -4.060267    0.041397   -0.004577
  H     -5.132582    0.064681   -0.007401
  H      1.772383    7.220977    0.003655
  H     -1.385175   -7.274915   -0.008473
  C      8.295215   -0.306468    0.012726
  C      7.656499    0.939059    0.015688
  C      6.264623    1.017702    0.011911
  C      5.481131   -0.158199    0.005080
  C      6.136523   -1.409508    0.002014
  C      7.529084   -1.477808    0.005831
  H      9.386448   -0.364569    0.015808
  H      5.538350   -2.322645   -0.003424
  H      8.248688    1.857412    0.021089
  H      8.022056   -2.453043    0.003392
  H      5.766520    1.989128    0.014327

----------------------------
CARTESIAN COORDINATES (A.U.)
----------------------------
  NO LB      ZA    FRAG     MASS         X           Y           Z
   0 C     6.0000    0    12.011    7.665873   -0.158520    0.002533
   1 C     6.0000    0    12.011    5.355732   -0.042678   -0.003763
   2 C     6.0000    0    12.011   -5.375278    0.040470   -0.005966
   3 C     6.0000    0    12.011    2.672053    0.044246   -0.004686
   4 C     6.0000    0    12.011    1.332641    2.425664   -0.003784
   5 C     6.0000    0    12.011   -1.354894    2.292279   -0.004094
   6 C     6.0000    0    12.011   -2.666290    0.005639   -0.005508
   7 C     6.0000    0    12.011   -1.326930   -2.343095   -0.006554
   8 C     6.0000    0    12.011    1.308297   -2.241674   -0.006297
   9 H     1.0000    0     1.008   -2.447303    4.038765   -0.003333
  10 H     1.0000    0     1.008    2.394109   -3.991592   -0.007103
  11 C     6.0000    0    12.011    2.618916    4.761090   -0.002712
  12 H     1.0000    0     1.008    4.684518    4.701183   -0.003137
  13 C     6.0000    0    12.011    1.369122    7.304115   -0.001602
  14 H     1.0000    0     1.008    0.101002    7.481420   -1.662684
  15 H     1.0000    0     1.008    0.097283    7.478257    1.656935
  16 C     6.0000    0    12.011    3.245595    9.513308    0.002564
  17 H     1.0000    0     1.008    4.489481    9.345137    1.673053
  18 H     1.0000    0     1.008    4.492859    9.348627   -1.665767
  19 C     6.0000    0    12.011    1.954954   12.099447    0.003961
  20 H     1.0000    0     1.008    0.741462   12.339997    1.683680
  21 H     1.0000    0     1.008    0.744701   12.343446   -1.677592
  22 C     6.0000    0    12.011   -2.788905   -4.804220   -0.007647
  23 H     1.0000    0     1.008   -4.070566   -4.803767    1.644589
  24 H     1.0000    0     1.008   -4.072797   -4.801054   -1.658115
  25 C     6.0000    0    12.011   -1.239873   -7.247030   -0.010487
  26 H     1.0000    0     1.008    0.013572   -7.290668   -1.682544
  27 H     1.0000    0     1.008    0.014250   -7.294090    1.660973
  28 C     6.0000    0    12.011   -2.901162   -9.620541   -0.012400
  29 H     1.0000    0     1.008   -4.160249   -9.580581    1.655944
  30 H     1.0000    0     1.008   -4.160720   -9.577599   -1.680314
  31 C     6.0000    0    12.011   -1.374807  -12.076702   -0.014778
  32 H     1.0000    0     1.008   -0.145481  -12.206907    1.665761
  33 H     1.0000    0     1.008   -0.146075  -12.204007   -1.695974
  34 C     6.0000    0    12.011   -7.672792    0.078230   -0.008650
  35 H     1.0000    0     1.008   -9.699175    0.122228   -0.013986
  36 H     1.0000    0     1.008    3.349318   13.645668    0.006907
  37 H     1.0000    0     1.008   -2.617602  -13.747598   -0.016012
  38 C     6.0000    0    12.011   15.675684   -0.579141    0.024048
  39 C     6.0000    0    12.011   14.468686    1.774564    0.029646
  40 C     6.0000    0    12.011   11.838421    1.923179    0.022509
  41 C     6.0000    0    12.011   10.357836   -0.298954    0.009600
  42 C     6.0000    0    12.011   11.596347   -2.663585    0.003806
  43 C     6.0000    0    12.011   14.227908   -2.792652    0.011019
  44 H     1.0000    0     1.008   17.737815   -0.688935    0.029874
  45 H     1.0000    0     1.008   10.465964   -4.389164   -0.006470
  46 H     1.0000    0     1.008   15.587762    3.510000    0.039853
  47 H     1.0000    0     1.008   15.159488   -4.635579    0.006411
  48 H     1.0000    0     1.008   10.897143    3.758907    0.027073

--------------------------------
INTERNAL COORDINATES (ANGSTROEM)
--------------------------------
 C      0   0   0     0.000000000000     0.00000000     0.00000000
 C      1   0   0     1.224014613976     0.00000000     0.00000000
 C      2   1   0     5.678776470693   177.56899402     0.00000000
 C      2   1   3     1.420886631210   178.97539702     4.24314948
 C      4   2   1     1.445843113904   121.21043402   172.32326937
 C      5   4   2     1.423932776411   116.51393976   180.01767613
 C      6   5   4     1.394909859363   122.67574847     0.00000000
 C      7   6   5     1.430779726252   120.47175371     0.00000000
 C      8   7   6     1.395534429669   117.48977866     0.00000000
 H      6   5   4     1.090101793235   119.18421803   179.99652552
 H      9   8   7     1.089797225983   119.61525027   180.00105392
 C      5   4   2     1.410901514349   121.80022433     0.00000000
 H     12   5   4     1.093529379662   117.18325012     0.00000000
 C     12   5   4     1.499445862750   124.98325303   180.00330981
 H     14  12   5     1.109854949916   110.01397975   302.54900427
 H     14  12   5     1.109840723452   110.01721335    57.31118191
 C     14  12   5     1.533856691401   113.48342551   179.93237094
 H     17  14  12     1.105723347927   108.97719239   302.34797749
 H     17  14  12     1.105729113157   108.97848661    57.66369983
 C     17  14  12     1.529484095736   113.13369231   180.00624400
 H     20  17  14     1.103925641900   111.30405236    59.85309648
 H     20  17  14     1.103923724823   111.30450441   300.15115483
 C      8   7   6     1.514824845168   119.59470825   179.98993116
 H     23   8   7     1.106542327925   108.21247041   303.71472306
 H     23   8   7     1.106528685301   108.21462890    56.19587519
 C     23   8   7     1.530670321363   116.90900240   179.96108544
 H     26  23   8     1.106069285530   109.85033598   301.77685117
 H     26  23   8     1.106071589144   109.84939284    58.27468580
 C     26  23   8     1.533102161341   112.63118884   180.02155019
 H     29  26  23     1.106254573733   109.21882408   302.33200339
 H     29  26  23     1.106254962309   109.21967891    57.68622773
 C     29  26  23     1.530273136452   113.15228274   180.01011572
 H     32  29  26     1.103991989083   111.30719829    59.85676997
 H     32  29  26     1.103992191457   111.30682354   300.13616740
 C      3   2   1     1.215957169687   179.49933853   182.92258216
 H     35   3   7     1.072572125377   179.68625511   359.91649109
 H     20  17  14     1.101789551520   111.43428296   180.00151041
 H     32  29  26     1.101964020035   111.50009466   179.99696145
 C      1   2   4     4.244464560812   179.86463275     8.59703028
 C     39   1   2     1.399751273128    59.84545599   179.27325731
 C     40  39   1     1.394101425449   120.38238146     0.00000000
 C     41  40  39     1.413029003624   120.44161657     0.00000000
 C     42  41  40     1.412558544888   118.68114145     0.00000000
 C     43  42  41     1.394241026571   120.45123676     0.00000000
 H     39   1   2     1.092783080324   179.95754768   348.26639574
 H     43  42  41     1.091631701642   119.12847721   180.00973055
 H     40  39   1     1.092743859819   120.03564094   179.99118878
 H     44  43  42     1.092753401909   119.62338734   179.99978698
 H     41  40  39     1.091686785971   120.37997194   179.99363069

---------------------------
INTERNAL COORDINATES (A.U.)
---------------------------
 C      0   0   0     0.000000000000     0.00000000     0.00000000
 C      1   0   0     2.313052404333     0.00000000     0.00000000
 C      2   1   0    10.731332305366   177.56899402     0.00000000
 C      2   1   3     2.685086600336   178.97539702     4.24314948
 C      4   2   1     2.732247517894   121.21043402   172.32326937
 C      5   4   2     2.690842980530   116.51393976   180.01767613
 C      6   5   4     2.635997615703   122.67574847     0.00000000
 C      7   6   5     2.703781840584   120.47175371     0.00000000
 C      8   7   6     2.637177882532   117.48977866     0.00000000
 H      6   5   4     2.059993847310   119.18421803   179.99652552
 H      9   8   7     2.059418298615   119.61525027   180.00105392
 C      5   4   2     2.666217464055   121.80022433     0.00000000
 H     12   5   4     2.066471046958   117.18325012     0.00000000
 C     12   5   4     2.833542033238   124.98325303   180.00330981
 H     14  12   5     2.097321903718   110.01397975   302.54900427
 H     14  12   5     2.097295019598   110.01721335    57.31118191
 C     14  12   5     2.898569075430   113.48342551   179.93237094
 H     17  14  12     2.089514307465   108.97719239   302.34797749
 H     17  14  12     2.089525202171   108.97848661    57.66369983
 C     17  14  12     2.890306067128   113.13369231   180.00624400
 H     20  17  14     2.086117135404   111.30405236    59.85309648
 H     20  17  14     2.086113512653   111.30450441   300.15115483
 C      8   7   6     2.862604098228   119.59470825   179.98993116
 H     23   8   7     2.091061955369   108.21247041   303.71472306
 H     23   8   7     2.091036174546   108.21462890    56.19587519
 C     23   8   7     2.892547708698   116.90900240   179.96108544
 H     26  23   8     2.090168034794   109.85033598   301.77685117
 H     26  23   8     2.090172387994   109.84939284    58.27468580
 C     26  23   8     2.897143220258   112.63118884   180.02155019
 H     29  26  23     2.090518178754   109.21882408   302.33200339
 H     29  26  23     2.090518913055   109.21967891    57.68622773
 C     29  26  23     2.891797137990   113.15228274   180.01011572
 H     32  29  26     2.086242513409   111.30719829    59.85676997
 H     32  29  26     2.086242895841   111.30682354   300.13616740
 C      3   2   1     2.297826041286   179.49933853   182.92258216
 H     35   3   7     2.026867575841   179.68625511   359.91649109
 H     20  17  14     2.082080509588   111.43428296   180.00151041
 H     32  29  26     2.082410207302   111.50009466   179.99696145
 C      1   2   4     8.020875605069   179.86463275     8.59703028
 C     39   1   2     2.645146561819    59.84545599   179.27325731
 C     40  39   1     2.634469897009   120.38238146     0.00000000
 C     41  40  39     2.670237836136   120.44161657     0.00000000
 C     42  41  40     2.669348797968   118.68114145     0.00000000
 C     43  42  41     2.634733704896   120.45123676     0.00000000
 H     39   1   2     2.065060745594   179.95754768   348.26639574
 H     43  42  41     2.062884955211   119.12847721   180.00973055
 H     40  39   1     2.064986629582   120.03564094   179.99118878
 H     44  43  42     2.065004661518   119.62338734   179.99978698
 H     41  40  39     2.062989049506   120.37997194   179.99363069

---------------------
BASIS SET INFORMATION
---------------------
There are 2 groups of distinct atoms

 Group   1 Type C   : 10s5p1d contracted to 6s2p1d pattern {511111/41/1}
 Group   2 Type H   : 6s1p contracted to 4s1p pattern {3111/1}

Atom   0C    basis set group =>   1
Atom   1C    basis set group =>   1
Atom   2C    basis set group =>   1
Atom   3C    basis set group =>   1
Atom   4C    basis set group =>   1
Atom   5C    basis set group =>   1
Atom   6C    basis set group =>   1
Atom   7C    basis set group =>   1
Atom   8C    basis set group =>   1
Atom   9H    basis set group =>   2
Atom  10H    basis set group =>   2
Atom  11C    basis set group =>   1
Atom  12H    basis set group =>   2
Atom  13C    basis set group =>   1
Atom  14H    basis set group =>   2
Atom  15H    basis set group =>   2
Atom  16C    basis set group =>   1
Atom  17H    basis set group =>   2
Atom  18H    basis set group =>   2
Atom  19C    basis set group =>   1
Atom  20H    basis set group =>   2
Atom  21H    basis set group =>   2
Atom  22C    basis set group =>   1
Atom  23H    basis set group =>   2
Atom  24H    basis set group =>   2
Atom  25C    basis set group =>   1
Atom  26H    basis set group =>   2
Atom  27H    basis set group =>   2
Atom  28C    basis set group =>   1
Atom  29H    basis set group =>   2
Atom  30H    basis set group =>   2
Atom  31C    basis set group =>   1
Atom  32H    basis set group =>   2
Atom  33H    basis set group =>   2
Atom  34C    basis set group =>   1
Atom  35H    basis set group =>   2
Atom  36H    basis set group =>   2
Atom  37H    basis set group =>   2
Atom  38C    basis set group =>   1
Atom  39C    basis set group =>   1
Atom  40C    basis set group =>   1
Atom  41C    basis set group =>   1
Atom  42C    basis set group =>   1
Atom  43C    basis set group =>   1
Atom  44H    basis set group =>   2
Atom  45H    basis set group =>   2
Atom  46H    basis set group =>   2
Atom  47H    basis set group =>   2
Atom  48H    basis set group =>   2
---------------------------------
AUXILIARY/J BASIS SET INFORMATION
---------------------------------
There are 2 groups of distinct atoms

 Group   1 Type C   : 17s13p12d2f contracted to 17s13p12d2f pattern {11111111111111111/1111111111111/111111111111/11}
 Group   2 Type H   : 15s6p1d contracted to 15s6p1d pattern {111111111111111/111111/1}

Atom   0C    basis set group =>   1
Atom   1C    basis set group =>   1
Atom   2C    basis set group =>   1
Atom   3C    basis set group =>   1
Atom   4C    basis set group =>   1
Atom   5C    basis set group =>   1
Atom   6C    basis set group =>   1
Atom   7C    basis set group =>   1
Atom   8C    basis set group =>   1
Atom   9H    basis set group =>   2
Atom  10H    basis set group =>   2
Atom  11C    basis set group =>   1
Atom  12H    basis set group =>   2
Atom  13C    basis set group =>   1
Atom  14H    basis set group =>   2
Atom  15H    basis set group =>   2
Atom  16C    basis set group =>   1
Atom  17H    basis set group =>   2
Atom  18H    basis set group =>   2
Atom  19C    basis set group =>   1
Atom  20H    basis set group =>   2
Atom  21H    basis set group =>   2
Atom  22C    basis set group =>   1
Atom  23H    basis set group =>   2
Atom  24H    basis set group =>   2
Atom  25C    basis set group =>   1
Atom  26H    basis set group =>   2
Atom  27H    basis set group =>   2
Atom  28C    basis set group =>   1
Atom  29H    basis set group =>   2
Atom  30H    basis set group =>   2
Atom  31C    basis set group =>   1
Atom  32H    basis set group =>   2
Atom  33H    basis set group =>   2
Atom  34C    basis set group =>   1
Atom  35H    basis set group =>   2
Atom  36H    basis set group =>   2
Atom  37H    basis set group =>   2
Atom  38C    basis set group =>   1
Atom  39C    basis set group =>   1
Atom  40C    basis set group =>   1
Atom  41C    basis set group =>   1
Atom  42C    basis set group =>   1
Atom  43C    basis set group =>   1
Atom  44H    basis set group =>   2
Atom  45H    basis set group =>   2
Atom  46H    basis set group =>   2
Atom  47H    basis set group =>   2
Atom  48H    basis set group =>   2
---------------------------------
AUXILIARY/C BASIS SET INFORMATION
---------------------------------
There are 2 groups of distinct atoms

 Group   1 Type C   : 17s13p12d2f contracted to 17s13p12d2f pattern {11111111111111111/1111111111111/111111111111/11}
 Group   2 Type H   : 15s6p1d contracted to 15s6p1d pattern {111111111111111/111111/1}

Atom   0C    basis set group =>   1
Atom   1C    basis set group =>   1
Atom   2C    basis set group =>   1
Atom   3C    basis set group =>   1
Atom   4C    basis set group =>   1
Atom   5C    basis set group =>   1
Atom   6C    basis set group =>   1
Atom   7C    basis set group =>   1
Atom   8C    basis set group =>   1
Atom   9H    basis set group =>   2
Atom  10H    basis set group =>   2
Atom  11C    basis set group =>   1
Atom  12H    basis set group =>   2
Atom  13C    basis set group =>   1
Atom  14H    basis set group =>   2
Atom  15H    basis set group =>   2
Atom  16C    basis set group =>   1
Atom  17H    basis set group =>   2
Atom  18H    basis set group =>   2
Atom  19C    basis set group =>   1
Atom  20H    basis set group =>   2
Atom  21H    basis set group =>   2
Atom  22C    basis set group =>   1
Atom  23H    basis set group =>   2
Atom  24H    basis set group =>   2
Atom  25C    basis set group =>   1
Atom  26H    basis set group =>   2
Atom  27H    basis set group =>   2
Atom  28C    basis set group =>   1
Atom  29H    basis set group =>   2
Atom  30H    basis set group =>   2
Atom  31C    basis set group =>   1
Atom  32H    basis set group =>   2
Atom  33H    basis set group =>   2
Atom  34C    basis set group =>   1
Atom  35H    basis set group =>   2
Atom  36H    basis set group =>   2
Atom  37H    basis set group =>   2
Atom  38C    basis set group =>   1
Atom  39C    basis set group =>   1
Atom  40C    basis set group =>   1
Atom  41C    basis set group =>   1
Atom  42C    basis set group =>   1
Atom  43C    basis set group =>   1
Atom  44H    basis set group =>   2
Atom  45H    basis set group =>   2
Atom  46H    basis set group =>   2
Atom  47H    basis set group =>   2
Atom  48H    basis set group =>   2
----------------------------------
AUXILIARY/JK BASIS SET INFORMATION
----------------------------------
There are 2 groups of distinct atoms

 Group   1 Type C   : 17s13p12d2f contracted to 17s13p12d2f pattern {11111111111111111/1111111111111/111111111111/11}
 Group   2 Type H   : 15s6p1d contracted to 15s6p1d pattern {111111111111111/111111/1}

Atom   0C    basis set group =>   1
Atom   1C    basis set group =>   1
Atom   2C    basis set group =>   1
Atom   3C    basis set group =>   1
Atom   4C    basis set group =>   1
Atom   5C    basis set group =>   1
Atom   6C    basis set group =>   1
Atom   7C    basis set group =>   1
Atom   8C    basis set group =>   1
Atom   9H    basis set group =>   2
Atom  10H    basis set group =>   2
Atom  11C    basis set group =>   1
Atom  12H    basis set group =>   2
Atom  13C    basis set group =>   1
Atom  14H    basis set group =>   2
Atom  15H    basis set group =>   2
Atom  16C    basis set group =>   1
Atom  17H    basis set group =>   2
Atom  18H    basis set group =>   2
Atom  19C    basis set group =>   1
Atom  20H    basis set group =>   2
Atom  21H    basis set group =>   2
Atom  22C    basis set group =>   1
Atom  23H    basis set group =>   2
Atom  24H    basis set group =>   2
Atom  25C    basis set group =>   1
Atom  26H    basis set group =>   2
Atom  27H    basis set group =>   2
Atom  28C    basis set group =>   1
Atom  29H    basis set group =>   2
Atom  30H    basis set group =>   2
Atom  31C    basis set group =>   1
Atom  32H    basis set group =>   2
Atom  33H    basis set group =>   2
Atom  34C    basis set group =>   1
Atom  35H    basis set group =>   2
Atom  36H    basis set group =>   2
Atom  37H    basis set group =>   2
Atom  38C    basis set group =>   1
Atom  39C    basis set group =>   1
Atom  40C    basis set group =>   1
Atom  41C    basis set group =>   1
Atom  42C    basis set group =>   1
Atom  43C    basis set group =>   1
Atom  44H    basis set group =>   2
Atom  45H    basis set group =>   2
Atom  46H    basis set group =>   2
Atom  47H    basis set group =>   2
Atom  48H    basis set group =>   2


           ************************************************************
           *        Program running with 16 parallel MPI-processes    *
           *              working on a common directory               *
           ************************************************************
------------------------------------------------------------------------------
                           ORCA GTO INTEGRAL CALCULATION
------------------------------------------------------------------------------

                         BASIS SET STATISTICS AND STARTUP INFO

 # of primitive gaussian shells          ...  559
 # of primitive gaussian functions       ...  945
 # of contracted shells                  ...  341
 # of contracted basis functions         ...  583
 Highest angular momentum                ...    2
 Maximum contraction depth               ...    5
 Integral package used                   ... LIBINT
 Integral threshhold            Thresh   ...  1.000e-10
 Primitive cut-off              TCut     ...  1.000e-11


------------------------------ INTEGRAL EVALUATION ----------------------------


 * One electron integrals 
 Pre-screening matrix                    ... done
 Shell pair data                         ... done (   0.011 sec)



           ************************************************************
           *        Program running with 16 parallel MPI-processes    *
           *              working on a common directory               *
           ************************************************************
-------------------------------------------------------------------------------
                                 ORCA SCF
-------------------------------------------------------------------------------

------------
SCF SETTINGS
------------
Hamiltonian:
 Density Functional     Method          .... DFT(GTOs)
 Exchange Functional    Exchange        .... B88
   X-Alpha parameter    XAlpha          ....  0.666667
   Becke's b parameter  XBeta           ....  0.004200
 Correlation Functional Correlation     .... LYP
 LDA part of GGA corr.  LDAOpt          .... VWN-5
 Gradients option       PostSCFGGA      .... off
 Hybrid DFT is turned on
   Fraction HF Exchange ScalHFX         ....  0.200000
   Scaling of DF-GGA-X  ScalDFX         ....  0.720000
   Scaling of DF-GGA-C  ScalDFC         ....  0.810000
   Scaling of DF-LDA-C  ScalLDAC        ....  1.000000
   Perturbative correction              ....  0.000000
   Density functional embedding theory  .... OFF
   NL short-range parameter             ....  4.800000


General Settings:
 Integral files         IntName         .... g-tensor_EPRII_invariant
 Hartree-Fock type      HFTyp           .... UHF
 Total Charge           Charge          ....    0
 Multiplicity           Mult            ....    2
 Number of Electrons    NEL             ....  169
 Basis Dimension        Dim             ....  583
 Nuclear Repulsion      ENuc            ....   1724.2825736150 Eh

Convergence Acceleration:
 DIIS                   CNVDIIS         .... on
   Start iteration      DIISMaxIt       ....    12
   Startup error        DIISStart       ....  0.200000
   # of expansion vecs  DIISMaxEq       ....     5
   Bias factor          DIISBfac        ....   1.050
   Max. coefficient     DIISMaxC        ....  10.000
 Newton-Raphson         CNVNR           .... off
 SOSCF                  CNVSOSCF        .... off
 Level Shifting         CNVShift        .... on
   Level shift para.    LevelShift      ....    0.2500
   Turn off err/grad.   ShiftErr        ....    0.0010
 Zerner damping         CNVZerner       .... off
 Static damping         CNVDamp         .... on
   Fraction old density DampFac         ....    0.7000
   Max. Damping (<1)    DampMax         ....    0.9800
   Min. Damping (>=0)   DampMin         ....    0.0000
   Turn off err/grad.   DampErr         ....    0.1000
 Fernandez-Rico         CNVRico         .... off

SCF Procedure:
 Maximum # iterations   MaxIter         ....   125
 SCF integral mode      SCFMode         .... Direct
   Integral package                     .... LIBINT
 Reset frequency        DirectResetFreq ....    20
 Integral Threshold     Thresh          ....  1.000e-10 Eh
 Primitive CutOff       TCut            ....  1.000e-11 Eh

Convergence Tolerance:
 Convergence Check Mode ConvCheckMode   .... Total+1el-Energy
 Convergence forced     ConvForced      .... 0
 Energy Change          TolE            ....  1.000e-06 Eh
 1-El. energy change                    ....  1.000e-03 Eh
 DIIS Error             TolErr          ....  1.000e-06


Diagonalization of the overlap matrix:
Smallest eigenvalue                        ... 6.529e-05
Time for diagonalization                   ...    0.076 sec
Threshold for overlap eigenvalues          ... 1.000e-08
Number of eigenvalues below threshold      ... 0
Time for construction of square roots      ...    0.063 sec
Total time needed                          ...    0.140 sec

-------------------
DFT GRID GENERATION
-------------------

General Integration Accuracy     IntAcc      ...  4.340
Radial Grid Type                 RadialGrid  ... Gauss-Chebyshev
Angular Grid (max. acc.)         AngularGrid ... Lebedev-110
Angular grid pruning method      GridPruning ... 3 (G Style)
Weight generation scheme         WeightScheme... Becke
Basis function cutoff            BFCut       ...    1.0000e-10
Integration weight cutoff        WCut        ...    1.0000e-14
Grids for H and He will be reduced by one unit

# of grid points (after initial pruning)     ...  59594 (   0.0 sec)
# of grid points (after weights+screening)   ...  53239 (   0.1 sec)
nearest neighbour list constructed           ...    0.0 sec
Grid point re-assignment to atoms done       ...    0.0 sec
Grid point division into batches done        ...    0.0 sec
Reduced shell lists constructed in    0.1 sec

Total number of grid points                  ...    53239
Total number of batches                      ...      853
Average number of points per batch           ...       62
Average number of grid points per atom       ...     1087
Average number of shells per batch           ...   125.22 (36.72%)
Average number of basis functions per batch  ...   242.31 (41.56%)
Average number of large shells per batch     ...    83.55 (66.72%)
Average number of large basis fcns per batch ...   160.89 (66.40%)
Maximum spatial batch extension              ...  15.72, 11.62, 19.29 au
Average spatial batch extension              ...   0.14,  0.17,  0.27 au

Time for grid setup =    0.338 sec

------------------------------
INITIAL GUESS: MODEL POTENTIAL
------------------------------
Loading Hartree-Fock densities                     ... done
Calculating cut-offs                               ... done
Setting up the integral package                    ... done
Initializing the effective Hamiltonian             ... done
Starting the Coulomb interaction                   ... done (   0.2 sec)
Reading the grid                                   ... done
Mapping shells                                     ... done
Starting the XC term evaluation                    ... done (   0.1 sec)
  promolecular density results
     # of electrons  =    169.019665395
     EX              =   -130.680607872
     EC              =     -5.564643599
     EX+EC           =   -136.245251471
Transforming the Hamiltonian                       ... done (   0.0 sec)
Diagonalizing the Hamiltonian                      ... done (   0.1 sec)
Back transforming the eigenvectors                 ... done (   0.0 sec)
Now organizing SCF variables                       ... done
                      ------------------
                      INITIAL GUESS DONE (   1.1 sec)
                      ------------------
--------------
SCF ITERATIONS
--------------
ITER       Energy         Delta-E        Max-DP      RMS-DP      [F,P]     Damp
               ***  Starting incremental Fock matrix formation  ***
  0   -928.4473784630   0.000000000000 0.07738373  0.00087346  0.1587433 0.7000
  1   -928.6783585553  -0.230980092304 0.04596656  0.00060962  0.0849219 0.7000
                               ***Turning on DIIS***
  2   -928.7834145008  -0.105055945504 0.09529105  0.00126456  0.0328906 0.0000
  3   -928.9315847067  -0.148170205928 0.03048224  0.00034869  0.0466319 0.0000
  4   -928.9709583353  -0.039373628627 0.02665301  0.00019390  0.0091036 0.0000
  5   -928.9729491853  -0.001990849909 0.01489261  0.00009309  0.0024383 0.0000
  6   -928.9732761690  -0.000326983764 0.00578772  0.00003876  0.0013757 0.0000
  7   -928.9734083226  -0.000132153615 0.00277956  0.00001834  0.0010430 0.0000
  8   -928.9734819000  -0.000073577377 0.00489159  0.00002448  0.0007741 0.0000
  9   -928.9735744506  -0.000092550640 0.00166975  0.00000886  0.0006710 0.0000
 10   -928.9735926758  -0.000018225198 0.00124698  0.00000554  0.0004194 0.0000
 11   -928.9735993508  -0.000006674950 0.00062813  0.00000270  0.0000965 0.0000
 12   -928.9736013973  -0.000002046528 0.00024997  0.00000118  0.0001073 0.0000
                 **** Energy Check signals convergence ****

               *****************************************************
               *                     SUCCESS                       *
               *           SCF CONVERGED AFTER  13 CYCLES          *
               *****************************************************

Setting up the final grid:

General Integration Accuracy     IntAcc      ...  4.670
Radial Grid Type                 RadialGrid  ... Gauss-Chebyshev
Angular Grid (max. acc.)         AngularGrid ... Lebedev-302
Angular grid pruning method      GridPruning ... 3 (G Style)
Weight generation scheme         WeightScheme... Becke
Basis function cutoff            BFCut       ...    1.0000e-10
Integration weight cutoff        WCut        ...    1.0000e-14
Grids for H and He will be reduced by one unit

# of grid points (after initial pruning)     ... 233938 (   0.0 sec)
# of grid points (after weights+screening)   ... 205178 (   0.5 sec)
nearest neighbour list constructed           ...    0.0 sec
Grid point re-assignment to atoms done       ...    0.1 sec
Grid point division into batches done        ...    0.8 sec
Reduced shell lists constructed in    1.1 sec

Total number of grid points                  ...   205178
Total number of batches                      ...     3231
Average number of points per batch           ...       63
Average number of grid points per atom       ...     4187
Average number of shells per batch           ...   116.36 (34.12%)
Average number of basis functions per batch  ...   224.12 (38.44%)
Average number of large shells per batch     ...    76.53 (65.77%)
Average number of large basis fcns per batch ...   146.02 (65.15%)
Maximum spatial batch extension              ...  16.79, 11.27, 15.04 au
Average spatial batch extension              ...   0.10,  0.12,  0.12 au

Final grid set up in    1.7 sec
Final integration                            ... done (   0.8 sec)
Change in XC energy                          ...     0.001861022
Integrated number of electrons               ...   169.000051618
Previous integrated no of electrons          ...   169.022933809

----------------
TOTAL SCF ENERGY
----------------

Total Energy       :         -928.97174104 Eh          -25278.60621 eV

Components:
Nuclear Repulsion  :         1724.28257361 Eh           46920.11420 eV
Electronic Energy  :        -2653.25431466 Eh          -72198.72041 eV
One Electron Energy:        -4677.40223195 Eh         -127278.58545 eV
Two Electron Energy:         2024.14791730 Eh           55079.86504 eV

Virial components:
Potential Energy   :        -1850.50553561 Eh          -50354.81561 eV
Kinetic Energy     :          921.53379457 Eh           25076.20940 eV
Virial Ratio       :            2.00807127


DFT components:
N(Alpha)           :       85.000035335556 electrons
N(Beta)            :       84.000016282694 electrons
N(Total)           :      169.000051618250 electrons
E(X)               :     -105.545747691196 Eh       
E(C)               :       -6.576913287753 Eh       
E(XC)              :     -112.122660978949 Eh       
DFET-embed. en.    :        0.000000000000 Eh       

---------------
SCF CONVERGENCE
---------------

  Last Energy change         ...   -6.6602e-07  Tolerance :   1.0000e-06
  Last MAX-Density change    ...    2.4766e-04  Tolerance :   1.0000e-05
  Last RMS-Density change    ...    1.1011e-06  Tolerance :   1.0000e-06
  Last DIIS Error            ...    5.5761e-05  Tolerance :   1.0000e-06

             **** THE GBW FILE WAS UPDATED (g-tensor_EPRII_invariant.gbw) ****
             **** DENSITY FILE WAS UPDATED (g-tensor_EPRII_invariant.scfp) ****
             **** ENERGY FILE WAS UPDATED (g-tensor_EPRII_invariant.en.tmp) ****
----------------------
UHF SPIN CONTAMINATION
----------------------

Warning: in a DFT calculation there is little theoretical justification to 
         calculate <S**2> as in Hartree-Fock theory. We will do it anyways
         but you should keep in mind that the values have only limited relevance

Expectation value of <S**2>     :     0.785848
Ideal value S*(S+1) for S=0.5   :     0.750000
Deviation                       :     0.035848

             **** THE GBW FILE WAS UPDATED (g-tensor_EPRII_invariant.gbw) ****
             **** DENSITY FILE WAS UPDATED (g-tensor_EPRII_invariant.scfp) ****
----------------
ORBITAL ENERGIES
----------------
                 SPIN UP ORBITALS
  NO   OCC          E(Eh)            E(eV) 
   0   1.0000     -10.226672      -278.2819 
   1   1.0000     -10.224072      -278.2111 
   2   1.0000     -10.221992      -278.1545 
   3   1.0000     -10.211973      -277.8819 
   4   1.0000     -10.208492      -277.7872 
   5   1.0000     -10.205713      -277.7116 
   6   1.0000     -10.204978      -277.6916 
   7   1.0000     -10.204701      -277.6840 
   8   1.0000     -10.204570      -277.6805 
   9   1.0000     -10.203572      -277.6533 
  10   1.0000     -10.203395      -277.6485 
  11   1.0000     -10.202406      -277.6216 
  12   1.0000     -10.202092      -277.6130 
  13   1.0000     -10.199365      -277.5388 
  14   1.0000     -10.198959      -277.5278 
  15   1.0000     -10.197222      -277.4805 
  16   1.0000     -10.196696      -277.4662 
  17   1.0000     -10.190433      -277.2958 
  18   1.0000     -10.188072      -277.2315 
  19   1.0000     -10.185998      -277.1751 
  20   1.0000     -10.182746      -277.0866 
  21   1.0000     -10.182431      -277.0780 
  22   1.0000     -10.175680      -276.8943 
  23   1.0000     -10.173456      -276.8338 
  24   1.0000      -0.873770       -23.7765 
  25   1.0000      -0.862893       -23.4805 
  26   1.0000      -0.819528       -22.3005 
  27   1.0000      -0.799024       -21.7425 
  28   1.0000      -0.794617       -21.6226 
  29   1.0000      -0.778773       -21.1915 
  30   1.0000      -0.766883       -20.8679 
  31   1.0000      -0.750898       -20.4330 
  32   1.0000      -0.745708       -20.2917 
  33   1.0000      -0.729804       -19.8590 
  34   1.0000      -0.714622       -19.4459 
  35   1.0000      -0.696856       -18.9624 
  36   1.0000      -0.656153       -17.8548 
  37   1.0000      -0.644589       -17.5402 
  38   1.0000      -0.617824       -16.8118 
  39   1.0000      -0.613201       -16.6860 
  40   1.0000      -0.609132       -16.5753 
  41   1.0000      -0.592589       -16.1252 
  42   1.0000      -0.580035       -15.7835 
  43   1.0000      -0.562176       -15.2976 
  44   1.0000      -0.542300       -14.7567 
  45   1.0000      -0.530953       -14.4480 
  46   1.0000      -0.507112       -13.7992 
  47   1.0000      -0.493120       -13.4185 
  48   1.0000      -0.480390       -13.0721 
  49   1.0000      -0.476627       -12.9697 
  50   1.0000      -0.470270       -12.7967 
  51   1.0000      -0.462853       -12.5949 
  52   1.0000      -0.456718       -12.4279 
  53   1.0000      -0.437176       -11.8962 
  54   1.0000      -0.432522       -11.7695 
  55   1.0000      -0.429474       -11.6866 
  56   1.0000      -0.426037       -11.5931 
  57   1.0000      -0.424847       -11.5607 
  58   1.0000      -0.421649       -11.4737 
  59   1.0000      -0.411730       -11.2037 
  60   1.0000      -0.398831       -10.8527 
  61   1.0000      -0.397797       -10.8246 
  62   1.0000      -0.384012       -10.4495 
  63   1.0000      -0.378868       -10.3095 
  64   1.0000      -0.377104       -10.2615 
  65   1.0000      -0.365060        -9.9338 
  66   1.0000      -0.362271        -9.8579 
  67   1.0000      -0.356813        -9.7094 
  68   1.0000      -0.353820        -9.6279 
  69   1.0000      -0.351299        -9.5593 
  70   1.0000      -0.339961        -9.2508 
  71   1.0000      -0.333008        -9.0616 
  72   1.0000      -0.332057        -9.0357 
  73   1.0000      -0.331378        -9.0173 
  74   1.0000      -0.327319        -8.9068 
  75   1.0000      -0.323265        -8.7965 
  76   1.0000      -0.321091        -8.7373 
  77   1.0000      -0.300465        -8.1761 
  78   1.0000      -0.277038        -7.5386 
  79   1.0000      -0.273602        -7.4451 
  80   1.0000      -0.268590        -7.3087 
  81   1.0000      -0.259120        -7.0510 
  82   1.0000      -0.256500        -6.9797 
  83   1.0000      -0.217707        -5.9241 
  84   1.0000      -0.171487        -4.6664 
  85   0.0000      -0.059303        -1.6137 
  86   0.0000      -0.015173        -0.4129 
  87   0.0000      -0.014085        -0.3833 
  88   0.0000       0.010360         0.2819 
  89   0.0000       0.015489         0.4215 
  90   0.0000       0.019775         0.5381 
  91   0.0000       0.022025         0.5993 
  92   0.0000       0.028939         0.7875 
  93   0.0000       0.034469         0.9379 
  94   0.0000       0.036798         1.0013 
  95   0.0000       0.039370         1.0713 
  96   0.0000       0.044505         1.2110 
  97   0.0000       0.046377         1.2620 
  98   0.0000       0.048300         1.3143 
  99   0.0000       0.056952         1.5497 
 100   0.0000       0.062856         1.7104 
 101   0.0000       0.066253         1.8028 
 102   0.0000       0.070781         1.9260 
 103   0.0000       0.074141         2.0175 
 104   0.0000       0.082958         2.2574 
 105   0.0000       0.084379         2.2961 
 106   0.0000       0.091438         2.4882 
 107   0.0000       0.099334         2.7030 
 108   0.0000       0.111699         3.0395 
 109   0.0000       0.113496         3.0884 
 110   0.0000       0.123817         3.3692 
 111   0.0000       0.126618         3.4454 
 112   0.0000       0.135144         3.6775 
 113   0.0000       0.148589         4.0433 
 114   0.0000       0.150820         4.1040 
 115   0.0000       0.158048         4.3007 
 116   0.0000       0.162012         4.4086 
 117   0.0000       0.173617         4.7244 
 118   0.0000       0.174191         4.7400 
 119   0.0000       0.181038         4.9263 
 120   0.0000       0.184684         5.0255 
 121   0.0000       0.194458         5.2915 
 122   0.0000       0.195750         5.3266 
 123   0.0000       0.197356         5.3703 
 124   0.0000       0.197917         5.3856 
 125   0.0000       0.200419         5.4537 
 126   0.0000       0.201478         5.4825 
 127   0.0000       0.206165         5.6100 
 128   0.0000       0.214828         5.8458 
 129   0.0000       0.216584         5.8935 
 130   0.0000       0.221961         6.0399 
 131   0.0000       0.223289         6.0760 
 132   0.0000       0.225984         6.1493 
 133   0.0000       0.235824         6.4171 
 134   0.0000       0.239993         6.5305 
 135   0.0000       0.243932         6.6377 
 136   0.0000       0.246451         6.7063 
 137   0.0000       0.251750         6.8505 
 138   0.0000       0.253892         6.9088 
 139   0.0000       0.255101         6.9417 
 140   0.0000       0.258004         7.0207 
 141   0.0000       0.264225         7.1899 
 142   0.0000       0.267572         7.2810 
 143   0.0000       0.273235         7.4351 
 144   0.0000       0.274468         7.4687 
 145   0.0000       0.278154         7.5689 
 146   0.0000       0.281858         7.6697 
 147   0.0000       0.286994         7.8095 
 148   0.0000       0.288957         7.8629 
 149   0.0000       0.291696         7.9375 
 150   0.0000       0.293538         7.9876 
 151   0.0000       0.297649         8.0994 
 152   0.0000       0.298345         8.1184 
 153   0.0000       0.301783         8.2119 
 154   0.0000       0.304919         8.2973 
 155   0.0000       0.305363         8.3093 
 156   0.0000       0.311776         8.4839 
 157   0.0000       0.314034         8.5453 
 158   0.0000       0.317078         8.6281 
 159   0.0000       0.321176         8.7396 
 160   0.0000       0.321994         8.7619 
 161   0.0000       0.323847         8.8123 
 162   0.0000       0.328641         8.9428 
 163   0.0000       0.334349         9.0981 
 164   0.0000       0.334429         9.1003 
 165   0.0000       0.344985         9.3875 
 166   0.0000       0.345925         9.4131 
 167   0.0000       0.347672         9.4606 
 168   0.0000       0.348386         9.4801 
 169   0.0000       0.356548         9.7022 
 170   0.0000       0.361936         9.8488 
 171   0.0000       0.368310        10.0222 
 172   0.0000       0.369863        10.0645 
 173   0.0000       0.375764        10.2250 
 174   0.0000       0.380024        10.3410 
 175   0.0000       0.386394        10.5143 
 176   0.0000       0.386999        10.5308 
 177   0.0000       0.399100        10.8601 
 178   0.0000       0.402848        10.9621 
 179   0.0000       0.403549        10.9811 
 180   0.0000       0.412489        11.2244 
 181   0.0000       0.416495        11.3334 
 182   0.0000       0.416937        11.3454 
 183   0.0000       0.420031        11.4296 
 184   0.0000       0.424062        11.5393 
 185   0.0000       0.424126        11.5411 
 186   0.0000       0.431745        11.7484 
 187   0.0000       0.439351        11.9553 
 188   0.0000       0.445754        12.1296 
 189   0.0000       0.447190        12.1687 
 190   0.0000       0.447825        12.1859 
 191   0.0000       0.456744        12.4286 
 192   0.0000       0.458687        12.4815 
 193   0.0000       0.463046        12.6001 
 194   0.0000       0.467927        12.7329 
 195   0.0000       0.470441        12.8014 
 196   0.0000       0.478906        13.0317 
 197   0.0000       0.484799        13.1921 
 198   0.0000       0.486190        13.2299 
 199   0.0000       0.487981        13.2786 
 200   0.0000       0.501682        13.6514 
 201   0.0000       0.507053        13.7976 
 202   0.0000       0.509586        13.8665 
 203   0.0000       0.512327        13.9411 
 204   0.0000       0.517385        14.0788 
 205   0.0000       0.519908        14.1474 
 206   0.0000       0.532691        14.4953 
 207   0.0000       0.534607        14.5474 
 208   0.0000       0.535676        14.5765 
 209   0.0000       0.541513        14.7353 
 210   0.0000       0.549157        14.9433 
 211   0.0000       0.552578        15.0364 
 212   0.0000       0.562009        15.2930 
 213   0.0000       0.573752        15.6126 
 214   0.0000       0.585102        15.9214 
 215   0.0000       0.589613        16.0442 
 216   0.0000       0.592298        16.1172 
 217   0.0000       0.593883        16.1604 
 218   0.0000       0.598892        16.2967 
 219   0.0000       0.601730        16.3739 
 220   0.0000       0.614458        16.7203 
 221   0.0000       0.621297        16.9063 
 222   0.0000       0.638480        17.3739 
 223   0.0000       0.642218        17.4756 
 224   0.0000       0.656500        17.8643 
 225   0.0000       0.662298        18.0220 
 226   0.0000       0.666237        18.1292 
 227   0.0000       0.675067        18.3695 
 228   0.0000       0.683587        18.6014 
 229   0.0000       0.686349        18.6765 
 230   0.0000       0.705620        19.2009 
 231   0.0000       0.723600        19.6901 
 232   0.0000       0.736695        20.0465 
 233   0.0000       0.755777        20.5657 
 234   0.0000       0.767655        20.8890 
 235   0.0000       0.776454        21.1284 
 236   0.0000       0.789105        21.4726 
 237   0.0000       0.791061        21.5259 
 238   0.0000       0.815434        22.1891 
 239   0.0000       0.820272        22.3207 
 240   0.0000       0.832980        22.6665 
 241   0.0000       0.835789        22.7430 
 242   0.0000       0.842415        22.9233 
 243   0.0000       0.847323        23.0568 
 244   0.0000       0.854175        23.2433 
 245   0.0000       0.856564        23.3083 
 246   0.0000       0.861038        23.4300 
 247   0.0000       0.866810        23.5871 
 248   0.0000       0.868948        23.6453 
 249   0.0000       0.879757        23.9394 
 250   0.0000       0.883293        24.0356 
 251   0.0000       0.890902        24.2427 
 252   0.0000       0.901121        24.5208 
 253   0.0000       0.901256        24.5244 
 254   0.0000       0.906278        24.6611 
 255   0.0000       0.913958        24.8701 
 256   0.0000       0.920186        25.0395 
 257   0.0000       0.920706        25.0537 
 258   0.0000       0.924696        25.1623 
 259   0.0000       0.926084        25.2000 
 260   0.0000       0.937757        25.5177 
 261   0.0000       0.938767        25.5451 
 262   0.0000       0.940913        25.6036 
 263   0.0000       0.944689        25.7063 
 264   0.0000       0.958856        26.0918 
 265   0.0000       0.961567        26.1656 
 266   0.0000       0.964097        26.2344 
 267   0.0000       0.972336        26.4586 
 268   0.0000       0.979703        26.6591 
 269   0.0000       0.981075        26.6964 
 270   0.0000       0.989766        26.9329 
 271   0.0000       0.991323        26.9753 
 272   0.0000       0.994183        27.0531 
 273   0.0000       0.997596        27.1460 
 274   0.0000       0.999856        27.2075 
 275   0.0000       1.002673        27.2841 
 276   0.0000       1.009290        27.4642 
 277   0.0000       1.011073        27.5127 
 278   0.0000       1.020300        27.7638 
 279   0.0000       1.026966        27.9452 
 280   0.0000       1.027945        27.9718 
 281   0.0000       1.030374        28.0379 
 282   0.0000       1.036109        28.1940 
 283   0.0000       1.037509        28.2321 
 284   0.0000       1.059266        28.8241 
 285   0.0000       1.059424        28.8284 
 286   0.0000       1.060379        28.8544 
 287   0.0000       1.071523        29.1576 
 288   0.0000       1.072671        29.1889 
 289   0.0000       1.092129        29.7183 
 290   0.0000       1.103558        30.0293 
 291   0.0000       1.105473        30.0814 
 292   0.0000       1.110182        30.2096 
 293   0.0000       1.116925        30.3931 
 294   0.0000       1.119951        30.4754 
 295   0.0000       1.136730        30.9320 
 296   0.0000       1.141063        31.0499 
 297   0.0000       1.142169        31.0800 
 298   0.0000       1.169089        31.8125 
 299   0.0000       1.172995        31.9188 
 300   0.0000       1.176462        32.0132 
 301   0.0000       1.184035        32.2192 
 302   0.0000       1.187529        32.3143 
 303   0.0000       1.189751        32.3748 
 304   0.0000       1.198108        32.6022 
 305   0.0000       1.205099        32.7924 
 306   0.0000       1.206326        32.8258 
 307   0.0000       1.216745        33.1093 
 308   0.0000       1.244233        33.8573 
 309   0.0000       1.250415        34.0255 
 310   0.0000       1.257057        34.2063 
 311   0.0000       1.259707        34.2784 
 312   0.0000       1.272491        34.6262 
 313   0.0000       1.273413        34.6513 
 314   0.0000       1.282051        34.8864 
 315   0.0000       1.297999        35.3204 
 316   0.0000       1.303838        35.4792 
 317   0.0000       1.307990        35.5922 
 318   0.0000       1.314096        35.7584 
 319   0.0000       1.319962        35.9180 
 320   0.0000       1.333840        36.2956 
 321   0.0000       1.345681        36.6178 
 322   0.0000       1.356327        36.9075 
 323   0.0000       1.362210        37.0676 
 324   0.0000       1.364816        37.1385 
 325   0.0000       1.368725        37.2449 
 326   0.0000       1.384393        37.6712 
 327   0.0000       1.398838        38.0643 
 328   0.0000       1.403475        38.1905 
 329   0.0000       1.416406        38.5424 
 330   0.0000       1.425862        38.7997 
 331   0.0000       1.426674        38.8218 
 332   0.0000       1.429920        38.9101 
 333   0.0000       1.430458        38.9247 
 334   0.0000       1.440655        39.2022 
 335   0.0000       1.442416        39.2501 
 336   0.0000       1.449141        39.4331 
 337   0.0000       1.453315        39.5467 
 338   0.0000       1.465789        39.8861 
 339   0.0000       1.467477        39.9321 
 340   0.0000       1.476578        40.1797 
 341   0.0000       1.480525        40.2871 
 342   0.0000       1.499819        40.8121 
 343   0.0000       1.500912        40.8419 
 344   0.0000       1.508404        41.0458 
 345   0.0000       1.513732        41.1908 
 346   0.0000       1.513957        41.1969 
 347   0.0000       1.521929        41.4138 
 348   0.0000       1.543178        41.9920 
 349   0.0000       1.556802        42.3627 
 350   0.0000       1.559735        42.4426 
 351   0.0000       1.562221        42.5102 
 352   0.0000       1.562572        42.5198 
 353   0.0000       1.565408        42.5969 
 354   0.0000       1.573255        42.8104 
 355   0.0000       1.583624        43.0926 
 356   0.0000       1.589155        43.2431 
 357   0.0000       1.592803        43.3424 
 358   0.0000       1.597232        43.4629 
 359   0.0000       1.598237        43.4902 
 360   0.0000       1.602819        43.6149 
 361   0.0000       1.622255        44.1438 
 362   0.0000       1.624548        44.2062 
 363   0.0000       1.634652        44.4811 
 364   0.0000       1.638056        44.5738 
 365   0.0000       1.638773        44.5933 
 366   0.0000       1.639964        44.6257 
 367   0.0000       1.655937        45.0603 
 368   0.0000       1.659921        45.1687 
 369   0.0000       1.665499        45.3205 
 370   0.0000       1.678872        45.6844 
 371   0.0000       1.683225        45.8029 
 372   0.0000       1.688707        45.9521 
 373   0.0000       1.691142        46.0183 
 374   0.0000       1.696647        46.1681 
 375   0.0000       1.698944        46.2306 
 376   0.0000       1.703952        46.3669 
 377   0.0000       1.705372        46.4055 
 378   0.0000       1.720599        46.8199 
 379   0.0000       1.722239        46.8645 
 380   0.0000       1.732154        47.1343 
 381   0.0000       1.738061        47.2950 
 382   0.0000       1.747580        47.5541 
 383   0.0000       1.748610        47.5821 
 384   0.0000       1.770590        48.1802 
 385   0.0000       1.772229        48.2248 
 386   0.0000       1.774401        48.2839 
 387   0.0000       1.787873        48.6505 
 388   0.0000       1.791173        48.7403 
 389   0.0000       1.791794        48.7572 
 390   0.0000       1.794586        48.8332 
 391   0.0000       1.797091        48.9013 
 392   0.0000       1.808596        49.2144 
 393   0.0000       1.817360        49.4529 
 394   0.0000       1.826322        49.6967 
 395   0.0000       1.832295        49.8593 
 396   0.0000       1.840636        50.0863 
 397   0.0000       1.848473        50.2995 
 398   0.0000       1.856783        50.5256 
 399   0.0000       1.858469        50.5715 
 400   0.0000       1.881791        51.2061 
 401   0.0000       1.913820        52.0777 
 402   0.0000       1.919131        52.2222 
 403   0.0000       1.930226        52.5241 
 404   0.0000       1.933959        52.6257 
 405   0.0000       1.940967        52.8164 
 406   0.0000       1.952073        53.1186 
 407   0.0000       1.953396        53.1546 
 408   0.0000       1.974964        53.7415 
 409   0.0000       1.977739        53.8170 
 410   0.0000       2.011284        54.7298 
 411   0.0000       2.020826        54.9895 
 412   0.0000       2.035948        55.4010 
 413   0.0000       2.039299        55.4922 
 414   0.0000       2.043935        55.6183 
 415   0.0000       2.055543        55.9342 
 416   0.0000       2.074662        56.4544 
 417   0.0000       2.090404        56.8828 
 418   0.0000       2.099444        57.1288 
 419   0.0000       2.108361        57.3714 
 420   0.0000       2.111552        57.4583 
 421   0.0000       2.126869        57.8750 
 422   0.0000       2.148320        58.4588 
 423   0.0000       2.148617        58.4668 
 424   0.0000       2.181217        59.3539 
 425   0.0000       2.188083        59.5408 
 426   0.0000       2.192442        59.6594 
 427   0.0000       2.200073        59.8670 
 428   0.0000       2.211003        60.1644 
 429   0.0000       2.223278        60.4985 
 430   0.0000       2.241293        60.9887 
 431   0.0000       2.244446        61.0745 
 432   0.0000       2.248395        61.1819 
 433   0.0000       2.253116        61.3104 
 434   0.0000       2.262361        61.5620 
 435   0.0000       2.282812        62.1185 
 436   0.0000       2.303977        62.6944 
 437   0.0000       2.310004        62.8584 
 438   0.0000       2.315768        63.0152 
 439   0.0000       2.323546        63.2269 
 440   0.0000       2.326135        63.2973 
 441   0.0000       2.354588        64.0716 
 442   0.0000       2.375252        64.6339 
 443   0.0000       2.384665        64.8900 
 444   0.0000       2.393647        65.1344 
 445   0.0000       2.401880        65.3585 
 446   0.0000       2.411522        65.6209 
 447   0.0000       2.413272        65.6685 
 448   0.0000       2.428436        66.0811 
 449   0.0000       2.443257        66.4844 
 450   0.0000       2.448443        66.6255 
 451   0.0000       2.459681        66.9313 
 452   0.0000       2.467538        67.1451 
 453   0.0000       2.473296        67.3018 
 454   0.0000       2.474588        67.3370 
 455   0.0000       2.481145        67.5154 
 456   0.0000       2.504670        68.1555 
 457   0.0000       2.512813        68.3771 
 458   0.0000       2.521824        68.6223 
 459   0.0000       2.525582        68.7246 
 460   0.0000       2.537362        69.0451 
 461   0.0000       2.539300        69.0979 
 462   0.0000       2.558032        69.6076 
 463   0.0000       2.560424        69.6727 
 464   0.0000       2.565841        69.8201 
 465   0.0000       2.568393        69.8895 
 466   0.0000       2.581914        70.2574 
 467   0.0000       2.585269        70.3487 
 468   0.0000       2.604842        70.8814 
 469   0.0000       2.614863        71.1540 
 470   0.0000       2.619231        71.2729 
 471   0.0000       2.628042        71.5127 
 472   0.0000       2.653115        72.1949 
 473   0.0000       2.708755        73.7090 
 474   0.0000       2.747441        74.7617 
 475   0.0000       2.771585        75.4187 
 476   0.0000       2.795987        76.0827 
 477   0.0000       2.820032        76.7370 
 478   0.0000       2.875046        78.2340 
 479   0.0000       2.890185        78.6459 
 480   0.0000       2.963085        80.6296 
 481   0.0000       2.971797        80.8667 
 482   0.0000       3.091614        84.1271 
 483   0.0000       3.295511        89.6754 
 484   0.0000       3.431501        93.3759 
 485   0.0000       4.978058       135.4599 
 486   0.0000       4.984960       135.6477 
 487   0.0000       5.003637       136.1559 
 488   0.0000       5.010105       136.3319 
 489   0.0000       5.010763       136.3498 
 490   0.0000       5.020235       136.6076 
 491   0.0000       5.023778       136.7040 
 492   0.0000       5.024169       136.7146 
 493   0.0000       5.034621       136.9990 
 494   0.0000       5.047095       137.3384 
 495   0.0000       5.091146       138.5371 
 496   0.0000       5.097030       138.6972 
 497   0.0000       5.168234       140.6348 
 498   0.0000       5.200843       141.5221 
 499   0.0000       5.208248       141.7236 
 500   0.0000       5.236277       142.4863 
 501   0.0000       5.247139       142.7819 
 502   0.0000       5.249467       142.8453 
 503   0.0000       5.257799       143.0720 
 504   0.0000       5.278953       143.6476 
 505   0.0000       5.291608       143.9920 
 506   0.0000       5.302778       144.2959 
 507   0.0000       5.308756       144.4586 
 508   0.0000       5.311889       144.5438 
 509   0.0000       5.356014       145.7446 
 510   0.0000       5.364693       145.9807 
 511   0.0000       5.373520       146.2209 
 512   0.0000       5.377967       146.3419 
 513   0.0000       5.407944       147.1576 
 514   0.0000       5.422894       147.5645 
 515   0.0000       5.462004       148.6287 
 516   0.0000       5.481046       149.1468 
 517   0.0000       5.555938       151.1848 
 518   0.0000       5.569040       151.5413 
 519   0.0000       5.591348       152.1483 
 520   0.0000       5.628367       153.1557 
 521   0.0000       5.651140       153.7753 
 522   0.0000       5.661643       154.0611 
 523   0.0000       5.679541       154.5482 
 524   0.0000       5.735326       156.0662 
 525   0.0000       5.744416       156.3135 
 526   0.0000       5.779286       157.2624 
 527   0.0000       5.836206       158.8112 
 528   0.0000       5.856120       159.3531 
 529   0.0000       5.882910       160.0821 
 530   0.0000       5.925045       161.2287 
 531   0.0000       6.111272       166.2962 
 532   0.0000       6.278819       170.8554 
 533   0.0000       6.356706       172.9748 
 534   0.0000      29.618132       805.9503 
 535   0.0000      29.736251       809.1645 
 536   0.0000      29.807213       811.0955 
 537   0.0000      29.835506       811.8654 
 538   0.0000      29.857394       812.4610 
 539   0.0000      29.862235       812.5927 
 540   0.0000      29.959145       815.2298 
 541   0.0000      29.981875       815.8483 
 542   0.0000      29.996181       816.2376 
 543   0.0000      30.041397       817.4680 
 544   0.0000      30.077029       818.4376 
 545   0.0000      30.087172       818.7136 
 546   0.0000      30.101089       819.0923 
 547   0.0000      30.126297       819.7782 
 548   0.0000      30.136829       820.0648 
 549   0.0000      30.183885       821.3453 
 550   0.0000      30.212624       822.1273 
 551   0.0000      30.253366       823.2359 
 552   0.0000      30.259853       823.4125 
 553   0.0000      30.274668       823.8156 
 554   0.0000      30.297639       824.4407 
 555   0.0000      30.399381       827.2092 
 556   0.0000      30.506760       830.1311 
 557   0.0000      30.578603       832.0861 
 558   0.0000      36.603914       996.0431 
 559   0.0000      36.612986       996.2900 
 560   0.0000      36.628803       996.7204 
 561   0.0000      36.635243       996.8957 
 562   0.0000      36.639268       997.0052 
 563   0.0000      36.645201       997.1666 
 564   0.0000      36.650464       997.3098 
 565   0.0000      36.661046       997.5978 
 566   0.0000      36.671975       997.8952 
 567   0.0000      36.704331       998.7756 
 568   0.0000      36.717469       999.1331 
 569   0.0000      36.786897      1001.0224 
 570   0.0000      36.818253      1001.8756 
 571   0.0000      36.823776      1002.0259 
 572   0.0000      36.840385      1002.4778 
 573   0.0000      36.854623      1002.8653 
 574   0.0000      36.870221      1003.2897 
 575   0.0000      36.877843      1003.4971 
 576   0.0000      36.883189      1003.6426 
 577   0.0000      36.919784      1004.6384 
 578   0.0000      36.934822      1005.0476 
 579   0.0000      36.936632      1005.0968 
 580   0.0000      36.969877      1006.0015 
 581   0.0000      37.011088      1007.1229 
 582   0.0000      37.042513      1007.9780 

                 SPIN DOWN ORBITALS
  NO   OCC          E(Eh)            E(eV) 
   0   1.0000     -10.226994      -278.2907 
   1   1.0000     -10.223540      -278.1967 
   2   1.0000     -10.220749      -278.1207 
   3   1.0000     -10.210886      -277.8523 
   4   1.0000     -10.208616      -277.7906 
   5   1.0000     -10.205372      -277.7023 
   6   1.0000     -10.204668      -277.6831 
   7   1.0000     -10.204425      -277.6765 
   8   1.0000     -10.204226      -277.6711 
   9   1.0000     -10.203685      -277.6564 
  10   1.0000     -10.203456      -277.6502 
  11   1.0000     -10.201594      -277.5995 
  12   1.0000     -10.199440      -277.5409 
  13   1.0000     -10.199435      -277.5407 
  14   1.0000     -10.198217      -277.5076 
  15   1.0000     -10.197785      -277.4958 
  16   1.0000     -10.191086      -277.3135 
  17   1.0000     -10.189246      -277.2635 
  18   1.0000     -10.188265      -277.2368 
  19   1.0000     -10.185961      -277.1741 
  20   1.0000     -10.182743      -277.0865 
  21   1.0000     -10.182431      -277.0780 
  22   1.0000     -10.175688      -276.8946 
  23   1.0000     -10.173458      -276.8339 
  24   1.0000      -0.870476       -23.6869 
  25   1.0000      -0.862441       -23.4682 
  26   1.0000      -0.814706       -22.1693 
  27   1.0000      -0.796406       -21.6713 
  28   1.0000      -0.793254       -21.5855 
  29   1.0000      -0.777970       -21.1697 
  30   1.0000      -0.764924       -20.8146 
  31   1.0000      -0.750554       -20.4236 
  32   1.0000      -0.744710       -20.2646 
  33   1.0000      -0.725769       -19.7492 
  34   1.0000      -0.713883       -19.4257 
  35   1.0000      -0.694665       -18.9028 
  36   1.0000      -0.653106       -17.7719 
  37   1.0000      -0.643348       -17.5064 
  38   1.0000      -0.614930       -16.7331 
  39   1.0000      -0.609729       -16.5916 
  40   1.0000      -0.608883       -16.5686 
  41   1.0000      -0.591689       -16.1007 
  42   1.0000      -0.578407       -15.7393 
  43   1.0000      -0.559834       -15.2338 
  44   1.0000      -0.541746       -14.7416 
  45   1.0000      -0.529699       -14.4139 
  46   1.0000      -0.503908       -13.7120 
  47   1.0000      -0.492234       -13.3944 
  48   1.0000      -0.479301       -13.0425 
  49   1.0000      -0.475479       -12.9384 
  50   1.0000      -0.469416       -12.7735 
  51   1.0000      -0.459467       -12.5027 
  52   1.0000      -0.456516       -12.4224 
  53   1.0000      -0.436719       -11.8837 
  54   1.0000      -0.430922       -11.7260 
  55   1.0000      -0.427779       -11.6405 
  56   1.0000      -0.424973       -11.5641 
  57   1.0000      -0.424602       -11.5540 
  58   1.0000      -0.419055       -11.4031 
  59   1.0000      -0.411291       -11.1918 
  60   1.0000      -0.396699       -10.7947 
  61   1.0000      -0.391357       -10.6494 
  62   1.0000      -0.381348       -10.3770 
  63   1.0000      -0.376548       -10.2464 
  64   1.0000      -0.374513       -10.1910 
  65   1.0000      -0.363918        -9.9027 
  66   1.0000      -0.361885        -9.8474 
  67   1.0000      -0.355945        -9.6858 
  68   1.0000      -0.351135        -9.5549 
  69   1.0000      -0.350828        -9.5465 
  70   1.0000      -0.337651        -9.1879 
  71   1.0000      -0.332496        -9.0477 
  72   1.0000      -0.330347        -8.9892 
  73   1.0000      -0.329217        -8.9584 
  74   1.0000      -0.326965        -8.8972 
  75   1.0000      -0.322569        -8.7775 
  76   1.0000      -0.320526        -8.7219 
  77   1.0000      -0.297694        -8.1007 
  78   1.0000      -0.276975        -7.5369 
  79   1.0000      -0.268171        -7.2973 
  80   1.0000      -0.260322        -7.0837 
  81   1.0000      -0.258145        -7.0245 
  82   1.0000      -0.251477        -6.8430 
  83   1.0000      -0.211398        -5.7524 
  84   0.0000      -0.087316        -2.3760 
  85   0.0000      -0.051433        -1.3996 
  86   0.0000      -0.013283        -0.3615 
  87   0.0000      -0.010121        -0.2754 
  88   0.0000       0.015752         0.4286 
  89   0.0000       0.020159         0.5485 
  90   0.0000       0.022132         0.6023 
  91   0.0000       0.026186         0.7126 
  92   0.0000       0.028979         0.7885 
  93   0.0000       0.034618         0.9420 
  94   0.0000       0.036973         1.0061 
  95   0.0000       0.039741         1.0814 
  96   0.0000       0.044591         1.2134 
  97   0.0000       0.046443         1.2638 
  98   0.0000       0.048628         1.3232 
  99   0.0000       0.057093         1.5536 
 100   0.0000       0.063042         1.7155 
 101   0.0000       0.070405         1.9158 
 102   0.0000       0.071000         1.9320 
 103   0.0000       0.074346         2.0231 
 104   0.0000       0.083485         2.2717 
 105   0.0000       0.084824         2.3082 
 106   0.0000       0.091662         2.4943 
 107   0.0000       0.099580         2.7097 
 108   0.0000       0.113542         3.0896 
 109   0.0000       0.114019         3.1026 
 110   0.0000       0.124792         3.3958 
 111   0.0000       0.127004         3.4560 
 112   0.0000       0.135583         3.6894 
 113   0.0000       0.150995         4.1088 
 114   0.0000       0.151307         4.1173 
 115   0.0000       0.158716         4.3189 
 116   0.0000       0.162713         4.4277 
 117   0.0000       0.174463         4.7474 
 118   0.0000       0.174767         4.7556 
 119   0.0000       0.182542         4.9672 
 120   0.0000       0.185123         5.0375 
 121   0.0000       0.195869         5.3299 
 122   0.0000       0.197962         5.3868 
 123   0.0000       0.198287         5.3957 
 124   0.0000       0.200024         5.4429 
 125   0.0000       0.202262         5.5038 
 126   0.0000       0.203107         5.5268 
 127   0.0000       0.206752         5.6260 
 128   0.0000       0.215249         5.8572 
 129   0.0000       0.217084         5.9071 
 130   0.0000       0.222601         6.0573 
 131   0.0000       0.223474         6.0810 
 132   0.0000       0.226766         6.1706 
 133   0.0000       0.236351         6.4314 
 134   0.0000       0.240565         6.5461 
 135   0.0000       0.246253         6.7009 
 136   0.0000       0.246948         6.7198 
 137   0.0000       0.252161         6.8617 
 138   0.0000       0.255293         6.9469 
 139   0.0000       0.256060         6.9677 
 140   0.0000       0.258778         7.0417 
 141   0.0000       0.265411         7.2222 
 142   0.0000       0.268713         7.3121 
 143   0.0000       0.274165         7.4604 
 144   0.0000       0.276811         7.5324 
 145   0.0000       0.278879         7.5887 
 146   0.0000       0.286421         7.7939 
 147   0.0000       0.287617         7.8265 
 148   0.0000       0.289320         7.8728 
 149   0.0000       0.292612         7.9624 
 150   0.0000       0.294391         8.0108 
 151   0.0000       0.298052         8.1104 
 152   0.0000       0.300221         8.1694 
 153   0.0000       0.302464         8.2305 
 154   0.0000       0.306118         8.3299 
 155   0.0000       0.308654         8.3989 
 156   0.0000       0.314445         8.5565 
 157   0.0000       0.314621         8.5613 
 158   0.0000       0.317480         8.6391 
 159   0.0000       0.322209         8.7677 
 160   0.0000       0.323065         8.7911 
 161   0.0000       0.325009         8.8439 
 162   0.0000       0.330154         8.9839 
 163   0.0000       0.335905         9.1404 
 164   0.0000       0.340124         9.2552 
 165   0.0000       0.345388         9.3985 
 166   0.0000       0.347122         9.4457 
 167   0.0000       0.350503         9.5377 
 168   0.0000       0.350688         9.5427 
 169   0.0000       0.357702         9.7336 
 170   0.0000       0.362315         9.8591 
 171   0.0000       0.370389        10.0788 
 172   0.0000       0.370597        10.0845 
 173   0.0000       0.376066        10.2333 
 174   0.0000       0.381006        10.3677 
 175   0.0000       0.387413        10.5421 
 176   0.0000       0.394706        10.7405 
 177   0.0000       0.400059        10.8862 
 178   0.0000       0.403673        10.9845 
 179   0.0000       0.407044        11.0762 
 180   0.0000       0.412905        11.2357 
 181   0.0000       0.417458        11.3596 
 182   0.0000       0.417692        11.3660 
 183   0.0000       0.420747        11.4491 
 184   0.0000       0.425700        11.5839 
 185   0.0000       0.432053        11.7568 
 186   0.0000       0.432796        11.7770 
 187   0.0000       0.440229        11.9792 
 188   0.0000       0.446191        12.1415 
 189   0.0000       0.448766        12.2115 
 190   0.0000       0.448959        12.2168 
 191   0.0000       0.457673        12.4539 
 192   0.0000       0.459439        12.5020 
 193   0.0000       0.464154        12.6303 
 194   0.0000       0.469273        12.7696 
 195   0.0000       0.470979        12.8160 
 196   0.0000       0.479377        13.0445 
 197   0.0000       0.485824        13.2199 
 198   0.0000       0.488973        13.3056 
 199   0.0000       0.490785        13.3549 
 200   0.0000       0.501653        13.6507 
 201   0.0000       0.509075        13.8526 
 202   0.0000       0.510265        13.8850 
 203   0.0000       0.514969        14.0130 
 204   0.0000       0.518690        14.1143 
 205   0.0000       0.520246        14.1566 
 206   0.0000       0.533366        14.5136 
 207   0.0000       0.536985        14.6121 
 208   0.0000       0.538972        14.6662 
 209   0.0000       0.542499        14.7622 
 210   0.0000       0.549514        14.9530 
 211   0.0000       0.553252        15.0548 
 212   0.0000       0.562844        15.3158 
 213   0.0000       0.574512        15.6333 
 214   0.0000       0.586310        15.9543 
 215   0.0000       0.590816        16.0769 
 216   0.0000       0.593207        16.1420 
 217   0.0000       0.594556        16.1787 
 218   0.0000       0.599753        16.3201 
 219   0.0000       0.602200        16.3867 
 220   0.0000       0.615374        16.7452 
 221   0.0000       0.622284        16.9332 
 222   0.0000       0.639122        17.3914 
 223   0.0000       0.643885        17.5210 
 224   0.0000       0.660564        17.9749 
 225   0.0000       0.662934        18.0393 
 226   0.0000       0.667147        18.1540 
 227   0.0000       0.675828        18.3902 
 228   0.0000       0.684234        18.6189 
 229   0.0000       0.687477        18.7072 
 230   0.0000       0.707295        19.2465 
 231   0.0000       0.724017        19.7015 
 232   0.0000       0.737832        20.0774 
 233   0.0000       0.756977        20.5984 
 234   0.0000       0.768232        20.9046 
 235   0.0000       0.777630        21.1604 
 236   0.0000       0.790483        21.5101 
 237   0.0000       0.793042        21.5798 
 238   0.0000       0.815901        22.2018 
 239   0.0000       0.820681        22.3319 
 240   0.0000       0.834503        22.7080 
 241   0.0000       0.837234        22.7823 
 242   0.0000       0.842871        22.9357 
 243   0.0000       0.847826        23.0705 
 244   0.0000       0.854455        23.2509 
 245   0.0000       0.857993        23.3472 
 246   0.0000       0.862495        23.4697 
 247   0.0000       0.867206        23.5979 
 248   0.0000       0.870883        23.6979 
 249   0.0000       0.880053        23.9475 
 250   0.0000       0.887045        24.1377 
 251   0.0000       0.891848        24.2684 
 252   0.0000       0.902077        24.5468 
 253   0.0000       0.902384        24.5551 
 254   0.0000       0.908065        24.7097 
 255   0.0000       0.914688        24.8899 
 256   0.0000       0.920726        25.0542 
 257   0.0000       0.921130        25.0652 
 258   0.0000       0.926536        25.2123 
 259   0.0000       0.927016        25.2254 
 260   0.0000       0.938624        25.5413 
 261   0.0000       0.940619        25.5955 
 262   0.0000       0.941470        25.6187 
 263   0.0000       0.945460        25.7273 
[...]
DIIS solution               ....       2.874 sec  (  1.6%)
Grid generation             ....       2.043 sec  (  1.1%)

-------------------------   --------------------
FINAL SINGLE POINT ENERGY      -928.971741041396
-------------------------   --------------------

   --->>> g-tensor requested, so NeedSOC=true

                            ***************************************
                            *     ORCA property calculations      *
                            ***************************************

                                    ---------------------
                                    Active property flags
                                    ---------------------
   (+) Dipole Moment
   (+) g-tensor
   (+) Nuclear properties (Hyperfine,Quadrupole)
   (+) Spin-Orbit Integrals are needed


------------------------------------------------------------------------------
                       ORCA ELECTRIC PROPERTIES CALCULATION
------------------------------------------------------------------------------

Dipole Moment Calculation                       ... on
Quadrupole Moment Calculation                   ... off
Polarizability Calculation                      ... off
GBWName                                         ... g-tensor_EPRII_invariant.gbw
Electron density file                           ... g-tensor_EPRII_invariant.scfp
The origin for moment calculation is the CENTER OF MASS  = ( 3.217725, -0.122700  0.000342)

-------------
DIPOLE MOMENT
-------------
                                X             Y             Z
Electronic contribution:     10.61152       2.02793       0.01556
Nuclear contribution   :    -10.42190      -2.00094      -0.01515
                        -----------------------------------------
Total Dipole Moment    :      0.18962       0.02699       0.00041
                        -----------------------------------------
Magnitude (a.u.)       :      0.19153
Magnitude (Debye)      :      0.48683



--------------------
Rotational spectrum 
--------------------
 
Rotational constants in cm-1:     0.006575     0.004268     0.002597 
Rotational constants in MHz :   197.125493   127.949693    77.851809 

 Dipole components along the rotational axes: 
x,y,z [a.u.] :     0.186218     0.044786     0.000118 
x,y,z [Debye]:     0.473330     0.113837     0.000299 

 


           ************************************************************
           *        Program running with 16 parallel MPI-processes    *
           *              working on a common directory               *
           ************************************************************
------------------------------------------------------------------------------
                         ORCA SPIN-ORBIT COUPLING CALCULATION
------------------------------------------------------------------------------

GBW file                                    ... g-tensor_EPRII_invariant.gbw
Input density                               ... g-tensor_EPRII_invariant.scfp
Output integrals                            ... g-tensor_EPRII_invariant
Operator type                               ... Mean-field/Effective potential
   One-Electron Terms                       ... 1
   Coulomb Contribution                     ... 2
   Exchange Contribution                    ... 3
   Correlation Contribution                 ... 0
   Maximum number of centers                ... 4
Setting up the integration grid             ... done
Evaluating density on the grid              ... (NumEl=  169.022934) done
Evaluating Coulomb term semi-analytically   ... done
One-Center Exchange (+SOO)                  ... done
Evaluating the spin-orbit operator          ... done
Total time for SOC: 27.000


           ************************************************************
           *        Program running with 16 parallel MPI-processes    *
           *              working on a common directory               *
           ************************************************************
------------------------------------------------------------------------------
                                ORCA EPR/NMR CALCULATION
------------------------------------------------------------------------------

GBWName                      ... g-tensor_EPRII_invariant.gbw
Electron density file        ... g-tensor_EPRII_invariant.scfp
Spin density file            ... g-tensor_EPRII_invariant.scfr
Spin-orbit integrals         ... g-tensor_EPRII_invariant
Treatment of gauge           ... GIAO (approximations 1/2el = 0,3)
Details of the CP(SCF) procedure:
       Solver   = POPLE   
       MaxIter  =    64   
       Tolerance=    1.000e-06
       Op-0     =   0- 84 =>  85-582
       Op-1     =   0- 83 =>  84-582
Multiplicity                 ... 2
g-tensor                     ... 1
NMR chemical shifts          ... 0
Number of nuclei for epr/nmr ... 25
   Nucleus:   9H 
       Hyperfine : Isotope=    1 I=   0.500 P= 533.551
       Quadrupole: Isotope=    2 I=   1.000 Q=   0.003
       Spin-Orbit: Zeff=   1.000
       Ncuelar Spin-Spin: Gn=   0.000
       rho(0)=N f(grad)=N a(iso)=Y a(dip)=Y a(orb)=Y sigma(nmr)=N spin-spin(nmr)=all-N,DSO-N,PSO-N,FC-N,SD-N
   Nucleus:  10H 
       Hyperfine : Isotope=    1 I=   0.500 P= 533.551
       Quadrupole: Isotope=    2 I=   1.000 Q=   0.003
       Spin-Orbit: Zeff=   1.000
       Ncuelar Spin-Spin: Gn=   0.000
       rho(0)=N f(grad)=N a(iso)=Y a(dip)=Y a(orb)=Y sigma(nmr)=N spin-spin(nmr)=all-N,DSO-N,PSO-N,FC-N,SD-N
   Nucleus:  12H 
       Hyperfine : Isotope=    1 I=   0.500 P= 533.551
       Quadrupole: Isotope=    2 I=   1.000 Q=   0.003
       Spin-Orbit: Zeff=   1.000
       Ncuelar Spin-Spin: Gn=   0.000
       rho(0)=N f(grad)=N a(iso)=Y a(dip)=Y a(orb)=Y sigma(nmr)=N spin-spin(nmr)=all-N,DSO-N,PSO-N,FC-N,SD-N
   Nucleus:  14H 
       Hyperfine : Isotope=    1 I=   0.500 P= 533.551
       Quadrupole: Isotope=    2 I=   1.000 Q=   0.003
       Spin-Orbit: Zeff=   1.000
       Ncuelar Spin-Spin: Gn=   0.000
       rho(0)=N f(grad)=N a(iso)=Y a(dip)=Y a(orb)=Y sigma(nmr)=N spin-spin(nmr)=all-N,DSO-N,PSO-N,FC-N,SD-N
   Nucleus:  15H 
       Hyperfine : Isotope=    1 I=   0.500 P= 533.551
       Quadrupole: Isotope=    2 I=   1.000 Q=   0.003
       Spin-Orbit: Zeff=   1.000
       Ncuelar Spin-Spin: Gn=   0.000
       rho(0)=N f(grad)=N a(iso)=Y a(dip)=Y a(orb)=Y sigma(nmr)=N spin-spin(nmr)=all-N,DSO-N,PSO-N,FC-N,SD-N
   Nucleus:  17H 
       Hyperfine : Isotope=    1 I=   0.500 P= 533.551
       Quadrupole: Isotope=    2 I=   1.000 Q=   0.003
       Spin-Orbit: Zeff=   1.000
       Ncuelar Spin-Spin: Gn=   0.000
       rho(0)=N f(grad)=N a(iso)=Y a(dip)=Y a(orb)=Y sigma(nmr)=N spin-spin(nmr)=all-N,DSO-N,PSO-N,FC-N,SD-N
   Nucleus:  18H 
       Hyperfine : Isotope=    1 I=   0.500 P= 533.551
       Quadrupole: Isotope=    2 I=   1.000 Q=   0.003
       Spin-Orbit: Zeff=   1.000
       Ncuelar Spin-Spin: Gn=   0.000
       rho(0)=N f(grad)=N a(iso)=Y a(dip)=Y a(orb)=Y sigma(nmr)=N spin-spin(nmr)=all-N,DSO-N,PSO-N,FC-N,SD-N
   Nucleus:  20H 
       Hyperfine : Isotope=    1 I=   0.500 P= 533.551
       Quadrupole: Isotope=    2 I=   1.000 Q=   0.003
       Spin-Orbit: Zeff=   1.000
       Ncuelar Spin-Spin: Gn=   0.000
       rho(0)=N f(grad)=N a(iso)=Y a(dip)=Y a(orb)=Y sigma(nmr)=N spin-spin(nmr)=all-N,DSO-N,PSO-N,FC-N,SD-N
   Nucleus:  21H 
       Hyperfine : Isotope=    1 I=   0.500 P= 533.551
       Quadrupole: Isotope=    2 I=   1.000 Q=   0.003
       Spin-Orbit: Zeff=   1.000
       Ncuelar Spin-Spin: Gn=   0.000
       rho(0)=N f(grad)=N a(iso)=Y a(dip)=Y a(orb)=Y sigma(nmr)=N spin-spin(nmr)=all-N,DSO-N,PSO-N,FC-N,SD-N
   Nucleus:  23H 
       Hyperfine : Isotope=    1 I=   0.500 P= 533.551
       Quadrupole: Isotope=    2 I=   1.000 Q=   0.003
       Spin-Orbit: Zeff=   1.000
       Ncuelar Spin-Spin: Gn=   0.000
       rho(0)=N f(grad)=N a(iso)=Y a(dip)=Y a(orb)=Y sigma(nmr)=N spin-spin(nmr)=all-N,DSO-N,PSO-N,FC-N,SD-N
   Nucleus:  24H 
       Hyperfine : Isotope=    1 I=   0.500 P= 533.551
       Quadrupole: Isotope=    2 I=   1.000 Q=   0.003
       Spin-Orbit: Zeff=   1.000
       Ncuelar Spin-Spin: Gn=   0.000
       rho(0)=N f(grad)=N a(iso)=Y a(dip)=Y a(orb)=Y sigma(nmr)=N spin-spin(nmr)=all-N,DSO-N,PSO-N,FC-N,SD-N
   Nucleus:  26H 
       Hyperfine : Isotope=    1 I=   0.500 P= 533.551
       Quadrupole: Isotope=    2 I=   1.000 Q=   0.003
       Spin-Orbit: Zeff=   1.000
       Ncuelar Spin-Spin: Gn=   0.000
       rho(0)=N f(grad)=N a(iso)=Y a(dip)=Y a(orb)=Y sigma(nmr)=N spin-spin(nmr)=all-N,DSO-N,PSO-N,FC-N,SD-N
   Nucleus:  27H 
       Hyperfine : Isotope=    1 I=   0.500 P= 533.551
       Quadrupole: Isotope=    2 I=   1.000 Q=   0.003
       Spin-Orbit: Zeff=   1.000
       Ncuelar Spin-Spin: Gn=   0.000
       rho(0)=N f(grad)=N a(iso)=Y a(dip)=Y a(orb)=Y sigma(nmr)=N spin-spin(nmr)=all-N,DSO-N,PSO-N,FC-N,SD-N
   Nucleus:  29H 
       Hyperfine : Isotope=    1 I=   0.500 P= 533.551
       Quadrupole: Isotope=    2 I=   1.000 Q=   0.003
       Spin-Orbit: Zeff=   1.000
       Ncuelar Spin-Spin: Gn=   0.000
       rho(0)=N f(grad)=N a(iso)=Y a(dip)=Y a(orb)=Y sigma(nmr)=N spin-spin(nmr)=all-N,DSO-N,PSO-N,FC-N,SD-N
   Nucleus:  30H 
       Hyperfine : Isotope=    1 I=   0.500 P= 533.551
       Quadrupole: Isotope=    2 I=   1.000 Q=   0.003
       Spin-Orbit: Zeff=   1.000
       Ncuelar Spin-Spin: Gn=   0.000
       rho(0)=N f(grad)=N a(iso)=Y a(dip)=Y a(orb)=Y sigma(nmr)=N spin-spin(nmr)=all-N,DSO-N,PSO-N,FC-N,SD-N
   Nucleus:  32H 
       Hyperfine : Isotope=    1 I=   0.500 P= 533.551
       Quadrupole: Isotope=    2 I=   1.000 Q=   0.003
       Spin-Orbit: Zeff=   1.000
       Ncuelar Spin-Spin: Gn=   0.000
       rho(0)=N f(grad)=N a(iso)=Y a(dip)=Y a(orb)=Y sigma(nmr)=N spin-spin(nmr)=all-N,DSO-N,PSO-N,FC-N,SD-N
   Nucleus:  33H 
       Hyperfine : Isotope=    1 I=   0.500 P= 533.551
       Quadrupole: Isotope=    2 I=   1.000 Q=   0.003
       Spin-Orbit: Zeff=   1.000
       Ncuelar Spin-Spin: Gn=   0.000
       rho(0)=N f(grad)=N a(iso)=Y a(dip)=Y a(orb)=Y sigma(nmr)=N spin-spin(nmr)=all-N,DSO-N,PSO-N,FC-N,SD-N
   Nucleus:  35H 
       Hyperfine : Isotope=    1 I=   0.500 P= 533.551
       Quadrupole: Isotope=    2 I=   1.000 Q=   0.003
       Spin-Orbit: Zeff=   1.000
       Ncuelar Spin-Spin: Gn=   0.000
       rho(0)=N f(grad)=N a(iso)=Y a(dip)=Y a(orb)=Y sigma(nmr)=N spin-spin(nmr)=all-N,DSO-N,PSO-N,FC-N,SD-N
   Nucleus:  36H 
       Hyperfine : Isotope=    1 I=   0.500 P= 533.551
       Quadrupole: Isotope=    2 I=   1.000 Q=   0.003
       Spin-Orbit: Zeff=   1.000
       Ncuelar Spin-Spin: Gn=   0.000
       rho(0)=N f(grad)=N a(iso)=Y a(dip)=Y a(orb)=Y sigma(nmr)=N spin-spin(nmr)=all-N,DSO-N,PSO-N,FC-N,SD-N
   Nucleus:  37H 
       Hyperfine : Isotope=    1 I=   0.500 P= 533.551
       Quadrupole: Isotope=    2 I=   1.000 Q=   0.003
       Spin-Orbit: Zeff=   1.000
       Ncuelar Spin-Spin: Gn=   0.000
       rho(0)=N f(grad)=N a(iso)=Y a(dip)=Y a(orb)=Y sigma(nmr)=N spin-spin(nmr)=all-N,DSO-N,PSO-N,FC-N,SD-N
   Nucleus:  44H 
       Hyperfine : Isotope=    1 I=   0.500 P= 533.551
       Quadrupole: Isotope=    2 I=   1.000 Q=   0.003
       Spin-Orbit: Zeff=   1.000
       Ncuelar Spin-Spin: Gn=   0.000
       rho(0)=N f(grad)=N a(iso)=Y a(dip)=Y a(orb)=Y sigma(nmr)=N spin-spin(nmr)=all-N,DSO-N,PSO-N,FC-N,SD-N
   Nucleus:  45H 
       Hyperfine : Isotope=    1 I=   0.500 P= 533.551
       Quadrupole: Isotope=    2 I=   1.000 Q=   0.003
       Spin-Orbit: Zeff=   1.000
       Ncuelar Spin-Spin: Gn=   0.000
       rho(0)=N f(grad)=N a(iso)=Y a(dip)=Y a(orb)=Y sigma(nmr)=N spin-spin(nmr)=all-N,DSO-N,PSO-N,FC-N,SD-N
   Nucleus:  46H 
       Hyperfine : Isotope=    1 I=   0.500 P= 533.551
       Quadrupole: Isotope=    2 I=   1.000 Q=   0.003
       Spin-Orbit: Zeff=   1.000
       Ncuelar Spin-Spin: Gn=   0.000
       rho(0)=N f(grad)=N a(iso)=Y a(dip)=Y a(orb)=Y sigma(nmr)=N spin-spin(nmr)=all-N,DSO-N,PSO-N,FC-N,SD-N
   Nucleus:  47H 
       Hyperfine : Isotope=    1 I=   0.500 P= 533.551
       Quadrupole: Isotope=    2 I=   1.000 Q=   0.003
       Spin-Orbit: Zeff=   1.000
       Ncuelar Spin-Spin: Gn=   0.000
       rho(0)=N f(grad)=N a(iso)=Y a(dip)=Y a(orb)=Y sigma(nmr)=N spin-spin(nmr)=all-N,DSO-N,PSO-N,FC-N,SD-N
   Nucleus:  48H 
       Hyperfine : Isotope=    1 I=   0.500 P= 533.551
       Quadrupole: Isotope=    2 I=   1.000 Q=   0.003
       Spin-Orbit: Zeff=   1.000
       Ncuelar Spin-Spin: Gn=   0.000
       rho(0)=N f(grad)=N a(iso)=Y a(dip)=Y a(orb)=Y sigma(nmr)=N spin-spin(nmr)=all-N,DSO-N,PSO-N,FC-N,SD-N
Forming RHS of the CP-SCF equations         ... 
Calculating right hand sides for GIAO treatment        ... 
  Entering RightHandSide GIAO. ScalHFX=    0.2000 NeedHFX=1
     -> 1-electron GIAO integrals will be done analytically
     -> SCF done analytically but RIJK chosen for GIAO calculation.
     Making grid for GIAO integrations   ... 
General Integration Accuracy     IntAcc      ...  4.340
Radial Grid Type                 RadialGrid  ... Gauss-Chebyshev
Angular Grid (max. acc.)         AngularGrid ... Lebedev-110
Angular grid pruning method      GridPruning ... 3 (G Style)
Weight generation scheme         WeightScheme... Becke
Basis function cutoff            BFCut       ...    1.0000e-10
Integration weight cutoff        WCut        ...    1.0000e-14
Grids for H and He will be reduced by one unit

# of grid points (after initial pruning)     ...  59594 (   0.0 sec)
# of grid points (after weights+screening)   ...  53239 (   0.2 sec)
nearest neighbour list constructed           ...    0.0 sec
Grid point re-assignment to atoms done       ...    0.0 sec
Grid point division into batches done        ...    0.1 sec
Reduced shell lists constructed in    0.2 sec

Total number of grid points                  ...    53239
Total number of batches                      ...      853
Average number of points per batch           ...       62
Average number of grid points per atom       ...     1087
Average number of shells per batch           ...   125.22 (36.72%)
Average number of basis functions per batch  ...   242.31 (41.56%)
Average number of large shells per batch     ...    83.55 (66.72%)
Average number of large basis fcns per batch ...   160.89 (66.40%)
Maximum spatial batch extension              ...  15.72, 11.62, 19.29 au
Average spatial batch extension              ...   0.14,  0.17,  0.27 au

done
  One-electron GIAO integrals             ... done
  Calculating G(B)[P]                     ... (RI-JK: P(aux)-ok JK-RI-ok) (add-J+K:ok) => dG/dB done
  DFT XC-terms                            ... done
  Extracting occupied and virtual blocks  ... 
  Operator  0  NO=  85 NV= 498 
  Operator  1  NO=  84 NV= 499 
  Transforming and RHS contribution       ... done
  Adding eps_i * S(B)_ai terms            ... done
  Projecting overlap derivatives          ... done
  Building G[dS/dB_ij] (Direct)           ... done
  Transforming to MO basis                ... done
  Summing G[dS/dB_ij] into RHS contribs.  ... done

  GIAO profiling information: 
    Total GIAO time               ...     413.7 sec
       GIAO 1-electron integrals  ...       0.1 sec (  0.0%)
       GIAO G(dS/dB) terms        ...      35.6 sec (  8.6%)
       GIAO RI-JK                 ...     374.1 sec ( 90.4%)
       GIAO XC-terms              ...       1.7 sec (  0.4%)
       Right hand side assembly   ...       0.1 sec (  0.0%)

  GIAO right hand side done


------------------------------------------------------------------------------
                           ORCA CP-SCF CALCULATION
------------------------------------------------------------------------------

Input orbitals are from        ... g-tensor_EPRII_invariant.gbw
Input Perturbation             ... g-tensor_EPRII_invariant.pin.tmp
Wavefunction output            ... g-tensor_EPRII_invariant.pout.tmp
Perturbation mode              ... Imaginary perturbation
Solver                         ... POPLE
Max. number of iterations      ... 64
Convergence tolerance          ... 1.000e-06
Integral handling              ... Direct
Number of perturbations        ... 3
Number of operators            ... 2
Orbital ranges used for CP-SCF:
 Operator 0:  Orbitals   0... 84  to  85...582
 Operator 1:  Orbitals   0... 83  to  84...582
DFT calculation                         ... on
Variables per vector in CP-SCF ... 84246
Number of vectors sought       ... 3
     CP-SCF ITERATION   0: 
     CP-SCF ITERATION   1:      0.011403498089
     CP-SCF ITERATION   2:      0.000058511882
     CP-SCF ITERATION   3:      0.000000760906

Forming final perturbed densities           ... done
Transforming perturbed density to AO basis  ... done

Magnetic field perturbation calculated in 521.570 sec
GIAO: Doing diamagnetic term integrals analytically ...done
GIAO: Doing 1el-GIAO-SOC integrals analytically ... done

-------------------
ELECTRONIC G-MATRIX
-------------------

 The g-matrix: 
              2.0027832    0.0001089    0.0000002
              0.0000592    2.0027864    0.0000004
             -0.0000000    0.0000010    2.0021882

 gel          2.0023193    2.0023193    2.0023193
 gRMC        -0.0001411   -0.0001411   -0.0001411
 gDSO(tot)    0.0000290    0.0000843    0.0000864
 gPSO(tot)   -0.0000190    0.0004382    0.0006041
             ----------   ----------   ----------
 g(tot)       2.0021882    2.0027008    2.0028688 iso=  2.0025859
 Delta-g     -0.0001311    0.0003815    0.0005495 iso=  0.0002666
 Orientation: 
  X           0.0000541   -0.7137709   -0.7003792
  Y          -0.0011585    0.7003787   -0.7137705
  Z           0.9999993    0.0008500   -0.0007891

Notes:  (1) The g-matrix conforms to the "BgS" spin Hamiltonian convention. 
        (2) The principal values are square roots of the eigenvalues of g*gT.
        (3) Orientations are eigenvectors of g*gT written as column vectors.
        (4) Individual contributions are projections of the full matrices onto the eigenvectors of g*gT.
        (5) Tensor is right-handed.


-----------------------------------------
ELECTRIC AND MAGNETIC HYPERFINE STRUCTURE
-----------------------------------------

 -----------------------------------------------------------
 Nucleus   9H : A:ISTP=    1 I=  0.5 P=533.5514 MHz/au**3
                Q:ISTP=    2 I=  1.0 Q=  0.0029 barn     
 -----------------------------------------------------------
 Solving for nuclear perturbation:
Forming RHS of the CP-SCF equations         ... 
Using LibInt in CPSCF-CP

Calculating nucleus orbit integrals         ... done

------------------------------------------------------------------------------
                           ORCA CP-SCF CALCULATION
------------------------------------------------------------------------------

Input orbitals are from        ... g-tensor_EPRII_invariant.gbw
Input Perturbation             ... g-tensor_EPRII_invariant.pin.tmp
Wavefunction output            ... g-tensor_EPRII_invariant.pout.tmp
Perturbation mode              ... Imaginary perturbation
Solver                         ... POPLE
Max. number of iterations      ... 64
Convergence tolerance          ... 1.000e-06
Integral handling              ... Direct
Number of perturbations        ... 3
Number of operators            ... 2
Orbital ranges used for CP-SCF:
 Operator 0:  Orbitals   0... 84  to  85...582
 Operator 1:  Orbitals   0... 83  to  84...582
DFT calculation                         ... on
Variables per vector in CP-SCF ... 84246
Number of vectors sought       ... 3
     CP-SCF ITERATION   0: 
     CP-SCF ITERATION   1:      0.000005157360
     CP-SCF ITERATION   2:      0.000000022508

Forming final perturbed densities           ...
ORCA finished by error termination in EPR/NMR
Calling Command: mpirun -np 16  /hits/sw/ccc/ORCA421/orca_4_2_1_linux_x86-64_openmpi314/orca_eprnmr_mpi g-tensor_EPRII_invariant.eprnmr.inp g-tensor_EPRII_invariant 
[file orca_tools/qcmsg.cpp, line 458]: 
  .... aborting the run

