
                                 *****************
                                 * O   R   C   A *
                                 *****************

                                            #,                                       
                                            ###                                      
                                            ####                                     
                                            #####                                    
                                            ######                                   
                                           ########,                                 
                                     ,,################,,,,,                         
                               ,,#################################,,                 
                          ,,##########################################,,             
                       ,#########################################, ''#####,          
                    ,#############################################,,   '####,        
                  ,##################################################,,,,####,       
                ,###########''''           ''''###############################       
              ,#####''   ,,,,##########,,,,          '''####'''          '####       
            ,##' ,,,,###########################,,,                        '##       
           ' ,,###''''                  '''############,,,                           
         ,,##''                                '''############,,,,        ,,,,,,###''
      ,#''                                            '''#######################'''  
     '                                                          ''''####''''         
             ,#######,   #######,   ,#######,      ##                                
            ,#'     '#,  ##    ##  ,#'     '#,    #''#        ######   ,####,        
            ##       ##  ##   ,#'  ##            #'  '#       #        #'  '#        
            ##       ##  #######   ##           ,######,      #####,   #    #        
            '#,     ,#'  ##    ##  '#,     ,#' ,#      #,         ##   #,  ,#        
             '#######'   ##     ##  '#######'  #'      '#     #####' # '####'        



                  #######################################################
                  #                        -***-                        #
                  #          Department of theory and spectroscopy      #
                  #    Directorship and core code : Frank Neese         #
                  #        Max Planck Institute fuer Kohlenforschung    #
                  #                Kaiser Wilhelm Platz 1               #
                  #                 D-45470 Muelheim/Ruhr               #
                  #                      Germany                        #
                  #                                                     #
                  #                  All rights reserved                #
                  #                        -***-                        #
                  #######################################################


                         Program Version 5.0.4 -  RELEASE  -


 With contributions from (in alphabetic order):
   Daniel Aravena         : Magnetic Suceptibility
   Michael Atanasov       : Ab Initio Ligand Field Theory (pilot matlab implementation)
   Alexander A. Auer      : GIAO ZORA, VPT2 properties, NMR spectrum
   Ute Becker             : Parallelization
   Giovanni Bistoni       : ED, misc. LED, open-shell LED, HFLD
   Martin Brehm           : Molecular dynamics
   Dmytro Bykov           : SCF Hessian
   Vijay G. Chilkuri      : MRCI spin determinant printing, contributions to CSF-ICE
   Dipayan Datta          : RHF DLPNO-CCSD density
   Achintya Kumar Dutta   : EOM-CC, STEOM-CC
   Dmitry Ganyushin       : Spin-Orbit,Spin-Spin,Magnetic field MRCI
   Miquel Garcia          : C-PCM and meta-GGA Hessian, CC/C-PCM, Gaussian charge scheme
   Yang Guo               : DLPNO-NEVPT2, F12-NEVPT2, CIM, IAO-localization
   Andreas Hansen         : Spin unrestricted coupled pair/coupled cluster methods
   Benjamin Helmich-Paris : MC-RPA, TRAH-SCF, COSX integrals
   Lee Huntington         : MR-EOM, pCC
   Robert Izsak           : Overlap fitted RIJCOSX, COSX-SCS-MP3, EOM
   Marcus Kettner         : VPT2
   Christian Kollmar      : KDIIS, OOCD, Brueckner-CCSD(T), CCSD density, CASPT2, CASPT2-K
   Simone Kossmann        : Meta GGA functionals, TD-DFT gradient, OOMP2, MP2 Hessian
   Martin Krupicka        : Initial AUTO-CI
   Lucas Lang             : DCDCAS
   Marvin Lechner         : AUTO-CI (C++ implementation), FIC-MRCC
   Dagmar Lenk            : GEPOL surface, SMD
   Dimitrios Liakos       : Extrapolation schemes; Compound Job, initial MDCI parallelization
   Dimitrios Manganas     : Further ROCIS development; embedding schemes
   Dimitrios Pantazis     : SARC Basis sets
   Anastasios Papadopoulos: AUTO-CI, single reference methods and gradients
   Taras Petrenko         : DFT Hessian,TD-DFT gradient, ASA, ECA, R-Raman, ABS, FL, XAS/XES, NRVS
   Peter Pinski           : DLPNO-MP2, DLPNO-MP2 Gradient
   Christoph Reimann      : Effective Core Potentials
   Marius Retegan         : Local ZFS, SOC
   Christoph Riplinger    : Optimizer, TS searches, QM/MM, DLPNO-CCSD(T), (RO)-DLPNO pert. Triples
   Tobias Risthaus        : Range-separated hybrids, TD-DFT gradient, RPA, STAB
   Michael Roemelt        : Original ROCIS implementation
   Masaaki Saitow         : Open-shell DLPNO-CCSD energy and density
   Barbara Sandhoefer     : DKH picture change effects
   Avijit Sen             : IP-ROCIS
   Kantharuban Sivalingam : CASSCF convergence, NEVPT2, FIC-MRCI
   Bernardo de Souza      : ESD, SOC TD-DFT
   Georgi Stoychev        : AutoAux, RI-MP2 NMR, DLPNO-MP2 response
   Willem Van den Heuvel  : Paramagnetic NMR
   Boris Wezisla          : Elementary symmetry handling
   Frank Wennmohs         : Technical directorship


 We gratefully acknowledge several colleagues who have allowed us to
 interface, adapt or use parts of their codes:
   Stefan Grimme, W. Hujo, H. Kruse, P. Pracht,  : VdW corrections, initial TS optimization,
                  C. Bannwarth, S. Ehlert          DFT functionals, gCP, sTDA/sTD-DF
   Ed Valeev, F. Pavosevic, A. Kumar             : LibInt (2-el integral package), F12 methods
   Garnet Chan, S. Sharma, J. Yang, R. Olivares  : DMRG
   Ulf Ekstrom                                   : XCFun DFT Library
   Mihaly Kallay                                 : mrcc  (arbitrary order and MRCC methods)
   Jiri Pittner, Ondrej Demel                    : Mk-CCSD
   Frank Weinhold                                : gennbo (NPA and NBO analysis)
   Christopher J. Cramer and Donald G. Truhlar   : smd solvation model
   Lars Goerigk                                  : TD-DFT with DH, B97 family of functionals
   V. Asgeirsson, H. Jonsson                     : NEB implementation
   FAccTs GmbH                                   : IRC, NEB, NEB-TS, DLPNO-Multilevel, CI-OPT
                                                   MM, QMMM, 2- and 3-layer-ONIOM, Crystal-QMMM,
                                                   LR-CPCM, SF, NACMEs, symmetry and pop. for TD-DFT,
                                                   nearIR, NL-DFT gradient (VV10), updates on ESD,
                                                   ML-optimized integration grids
   S Lehtola, MJT Oliveira, MAL Marques          : LibXC Library
   Liviu Ungur et al                             : ANISO software


 Your calculation uses the libint2 library for the computation of 2-el integrals
 For citations please refer to: http://libint.valeyev.net

 Your ORCA version has been built with support for libXC version: 5.1.0
 For citations please refer to: https://tddft.org/programs/libxc/

 This ORCA versions uses:
   CBLAS   interface :  Fast vector & matrix operations
   LAPACKE interface :  Fast linear algebra routines
   SCALAPACK package :  Parallel linear algebra routines
   Shared memory     :  Shared parallel matrices
   BLAS/LAPACK       :  OpenBLAS 0.3.15  USE64BITINT DYNAMIC_ARCH NO_AFFINITY SkylakeX SINGLE_THREADED
        Core in use  :  SkylakeX
   Copyright (c) 2011-2014, The OpenBLAS Project




***************************************
The coordinates will be read from file: opt_cc-pVDZ.xyz
***************************************


================================================================================

----- Orbital basis set information -----
Your calculation utilizes the basis: cc-pVDZ 
       H, B-Ne : Obtained from the ccRepo (grant-hill.group.shef.ac.uk/ccrepo) Feb. 2017
                 T. H. Dunning, Jr., J. Chem. Phys. 90, 1007 (1989)
            He : Obtained from the ccRepo (grant-hill.group.shef.ac.uk/ccrepo) Feb. 2017
                 D. E. Woon, T. H. Dunning, Jr., J. Chem. Phys. 100, 2975 (1994)
  Li-Be, Na-Mg : Obtained from the ccRepo (grant-hill.group.shef.ac.uk/ccrepo) Feb. 2017
                 B. P. Prascher, D. E. Woon, K. A. Peterson, T. H. Dunning, Jr., A. K. Wilson, Theor. Chem. Acc. 128, 69 (2011)
         Al-Ar : Obtained from the ccRepo (grant-hill.group.shef.ac.uk/ccrepo) Feb. 2017
                 D. E. Woon, T. H. Dunning, Jr., J. Chem. Phys. 98, 1358 (1993)
            Ca : Obtained from the Peterson Research Group Website (tyr0.chem.wsu.edu/~kipeters) Feb. 2017
                 J. Koput, K. A. Peterson, J. Phys. Chem. 106, 9595 (2002)
         Sc-Zn : Obtained from the ccRepo (grant-hill.group.shef.ac.uk/ccrepo) Feb. 2017
                 N. B. Balabanov, K. A. Peterson, J. Chem. Phys. 123, 064107 (2005)
                 N. B. Balabanov, K. A. Peterson, J. Chem. Phys. 125, 074110 (2006)
         Ga-Kr : Obtained from the ccRepo (grant-hill.group.shef.ac.uk/ccrepo) Feb. 2017
                 A. K. Wilson, D. E. Woon, K. A. Peterson, T. H. Dunning, Jr., J. Chem. Phys. 110, 7667 (1999)

----- AuxJ basis set information -----
Your calculation utilizes the AutoAux generation procedure.
  G. L. Stoychev, A. A. Auer, F. Neese, J. Chem. Theory Comput. 13, 554 (2017)

----- AuxC basis set information -----
Your calculation utilizes the AutoAux generation procedure.
  G. L. Stoychev, A. A. Auer, F. Neese, J. Chem. Theory Comput. 13, 554 (2017)

----- AuxJK basis set information -----
Your calculation utilizes the AutoAux generation procedure.
  G. L. Stoychev, A. A. Auer, F. Neese, J. Chem. Theory Comput. 13, 554 (2017)

================================================================================
                                        WARNINGS
                       Please study these warnings very carefully!
================================================================================

WARNING: Old DensityContainer found on disk!
         Will remove this file - 
         If you want to keep old densities, please start your calculation with a different basename. 


WARNING: your system is open-shell and RHF/RKS was chosen
  ===> : WILL SWITCH to UHF/UKS


INFO   : the flag for use of the SHARK integral package has been found!

================================================================================
                                       INPUT FILE
================================================================================
NAME = cc-pVDZ.inp
|  1> ! B3LYP cc-pVDZ AUTOAUX
|  2> %pal nprocs 16 end
|  3> *XYZFile 0 2 opt_cc-pVDZ.xyz
|  4> %EPRNMR
|  5>         GTENSOR   TRUE
|  6>         NUCLEI    = ALL H {SHIFT, AISO, ADIP, AORB}
|  7>         ORI       CenterOfElCharge
|  8> END
|  9> 
| 10>                          ****END OF INPUT****
================================================================================

                       ****************************
                       * Single Point Calculation *
                       ****************************

---------------------------------
CARTESIAN COORDINATES (ANGSTROEM)
---------------------------------
  C     -4.058802   -0.113743   -0.000638
  C     -2.837082   -0.037012    0.000596
  C      2.839442    0.025200    0.001408
  C     -1.417736    0.016708    0.000440
  C     -0.712104    1.278664   -0.002989
  C      0.709696    1.212126   -0.002239
  C      1.411278    0.003685    0.001144
  C      0.702218   -1.241143    0.004103
  C     -0.691439   -1.190738    0.003775
  H      1.285373    2.137947   -0.004501
  H     -1.264623   -2.117695    0.006128
  C     -1.396840    2.512550   -0.007144
  H     -2.489467    2.477294   -0.007689
  C     -0.740230    3.860835   -0.010830
  H     -0.072333    3.960091    0.869813
  H     -0.065361    3.951926   -0.886973
  C     -1.737840    5.026460   -0.020337
  H     -2.392938    4.932226   -0.905663
  H     -2.400382    4.940457    0.860286
  C     -1.059463    6.397701   -0.023862
  H     -0.415255    6.523918   -0.911233
  H     -0.422808    6.532237    0.867729
  C      1.476454   -2.542640    0.007445
  H      2.155156   -2.542783   -0.866135
  H      2.153820   -2.539173    0.882063
  C      0.658373   -3.836660    0.009440
  H     -0.005452   -3.860137    0.893237
  H     -0.004159   -3.863568   -0.875234
  C      1.539817   -5.091645    0.012545
  H      2.206693   -5.069883   -0.869403
  H      2.205180   -5.066600    0.895549
  C      0.734263   -6.393345    0.014279
  H      0.085293   -6.463700   -0.875739
  H      0.083360   -6.460128    0.903160
  C      4.061345    0.051651    0.002529
  H     -1.799752    7.213867   -0.030836
  H      1.393369   -7.276658    0.016770
  C      5.489028    0.088476    0.002584
  C      6.175982    1.322261    0.000834
  C      7.570150    1.354026    0.000776
  C      8.304603    0.162682    0.002478
  C      7.633940   -1.065777    0.004258
  C      6.240083   -1.107376    0.004332
  H      9.396741    0.191519    0.002419
  H      8.201953   -1.999231    0.005592
  H      5.600937    2.250144   -0.000494
  H      5.714974   -2.064429    0.005707
  H      8.088274    2.316067   -0.000612
  C     -5.481375   -0.216989   -0.000762
  C     -6.291611    0.940467   -0.002939
  C     -7.681526    0.829803   -0.002957
  C     -8.291194   -0.430164   -0.000846
  C     -7.498560   -1.583884    0.001279
  C     -6.108007   -1.483564    0.001311
  H     -9.380578   -0.512791   -0.000859
  H     -7.968599   -2.570341    0.002925
  H     -5.815417    1.922769   -0.004555
  H     -5.488004   -2.382040    0.002961
  H     -8.294824    1.734181   -0.004623

----------------------------
CARTESIAN COORDINATES (A.U.)
----------------------------
  NO LB      ZA    FRAG     MASS         X           Y           Z
   0 C     6.0000    0    12.011   -7.670024   -0.214943   -0.001206
   1 C     6.0000    0    12.011   -5.361307   -0.069942    0.001126
   2 C     6.0000    0    12.011    5.365767    0.047622    0.002660
   3 C     6.0000    0    12.011   -2.679133    0.031573    0.000831
   4 C     6.0000    0    12.011   -1.345681    2.416326   -0.005648
   5 C     6.0000    0    12.011    1.341130    2.290586   -0.004232
   6 C     6.0000    0    12.011    2.666929    0.006964    0.002161
   7 C     6.0000    0    12.011    1.327000   -2.345421    0.007753
   8 C     6.0000    0    12.011   -1.306630   -2.250168    0.007133
   9 H     1.0000    0     1.008    2.429003    4.040135   -0.008505
  10 H     1.0000    0     1.008   -2.389791   -4.001863    0.011580
  11 C     6.0000    0    12.011   -2.639645    4.748031   -0.013501
  12 H     1.0000    0     1.008   -4.704412    4.681407   -0.014529
  13 C     6.0000    0    12.011   -1.398833    7.295920   -0.020466
  14 H     1.0000    0     1.008   -0.136690    7.483488    1.643708
  15 H     1.0000    0     1.008   -0.123514    7.468058   -1.676136
  16 C     6.0000    0    12.011   -3.284041    9.498633   -0.038432
  17 H     1.0000    0     1.008   -4.521997    9.320557   -1.711454
  18 H     1.0000    0     1.008   -4.536065    9.336110    1.625704
  19 C     6.0000    0    12.011   -2.002095   12.089902   -0.045093
  20 H     1.0000    0     1.008   -0.784718   12.328418   -1.721981
  21 H     1.0000    0     1.008   -0.798992   12.344138    1.639770
  22 C     6.0000    0    12.011    2.790093   -4.804893    0.014070
  23 H     1.0000    0     1.008    4.072655   -4.805163   -1.636757
  24 H     1.0000    0     1.008    4.070131   -4.798342    1.666857
  25 C     6.0000    0    12.011    1.244145   -7.250236    0.017838
  26 H     1.0000    0     1.008   -0.010302   -7.294602    1.687973
  27 H     1.0000    0     1.008   -0.007859   -7.301086   -1.653952
  28 C     6.0000    0    12.011    2.909833   -9.621815    0.023707
  29 H     1.0000    0     1.008    4.170046   -9.580690   -1.642934
  30 H     1.0000    0     1.008    4.167186   -9.574486    1.692342
  31 C     6.0000    0    12.011    1.387557  -12.081670    0.026984
  32 H     1.0000    0     1.008    0.161181  -12.214624   -1.654908
  33 H     1.0000    0     1.008    0.157528  -12.207873    1.706725
  34 C     6.0000    0    12.011    7.674831    0.097605    0.004779
  35 H     1.0000    0     1.008   -3.401038   13.632233   -0.058272
  36 H     1.0000    0     1.008    2.633086  -13.750890    0.031691
  37 C     6.0000    0    12.011   10.372760    0.167196    0.004883
  38 C     6.0000    0    12.011   11.670914    2.498711    0.001576
  39 C     6.0000    0    12.011   14.305511    2.558738    0.001467
  40 C     6.0000    0    12.011   15.693425    0.307424    0.004683
  41 C     6.0000    0    12.011   14.426055   -2.014026    0.008046
  42 C     6.0000    0    12.011   11.792049   -2.092638    0.008186
  43 H     1.0000    0     1.008   17.757266    0.361919    0.004571
  44 H     1.0000    0     1.008   15.499446   -3.778000    0.010568
  45 H     1.0000    0     1.008   10.584237    4.252157   -0.000934
  46 H     1.0000    0     1.008   10.799736   -3.901206    0.010784
  47 H     1.0000    0     1.008   15.284623    4.376732   -0.001157
  48 C     6.0000    0    12.011  -10.358298   -0.410050   -0.001440
  49 C     6.0000    0    12.011  -11.889422    1.777225   -0.005554
  50 C     6.0000    0    12.011  -14.515981    1.568101   -0.005587
  51 C     6.0000    0    12.011  -15.668086   -0.812892   -0.001599
  52 C     6.0000    0    12.011  -14.170224   -2.993107    0.002416
  53 C     6.0000    0    12.011  -11.542460   -2.803529    0.002478
  54 H     1.0000    0     1.008  -17.726723   -0.969034   -0.001624
  55 H     1.0000    0     1.008  -15.058469   -4.857241    0.005528
  56 H     1.0000    0     1.008  -10.989546    3.633506   -0.008608
  57 H     1.0000    0     1.008  -10.370824   -4.501404    0.005596
  58 H     1.0000    0     1.008  -15.674945    3.277128   -0.008736

--------------------------------
INTERNAL COORDINATES (ANGSTROEM)
--------------------------------
 C      0   0   0     0.000000000000     0.00000000     0.00000000
 C      1   0   0     1.224128184629     0.00000000     0.00000000
 C      2   1   0     5.676864267145   177.03370543     0.00000000
 C      2   1   3     1.420361684271   178.57226269     1.61379910
 C      4   2   1     1.445843783137   121.37947093   177.27418630
 C      5   4   2     1.423355438539   116.53246812   179.97394295
 C      6   5   4     1.397339520153   122.81750118     0.00000000
 C      7   6   5     1.432610291493   120.19603371     0.00000000
 C      8   7   6     1.394568435965   117.59457760     0.00000000
 H      6   5   4     1.090208954283   119.19384028   180.01393541
 H      9   8   7     1.089860101141   119.65911426   180.00945175
 C      5   4   2     1.411153636169   121.76035333   359.96120221
 H     12   5   4     1.093196089433   117.17964463     0.00000000
 C     12   5   4     1.499674107483   125.00650035   179.99840463
 H     14  12   5     1.109716546646   109.99754599   302.39373556
 H     14  12   5     1.109672454252   110.00002632    57.17684125
 C     14  12   5     1.534274109467   113.47566746   179.78145011
 H     17  14  12     1.105366058584   108.99874219   302.33291433
 H     17  14  12     1.105375697446   109.00685092    57.64719992
 C     17  14  12     1.529872006405   113.11912013   179.99262194
 H     20  17  14     1.103794517152   111.29301045    59.86395818
 H     20  17  14     1.103795047450   111.29345838   300.12174412
 C      8   7   6     1.514379537221   119.58650621   179.98662253
 H     23   8   7     1.106245559738   108.18179814   303.76917881
 H     23   8   7     1.106251755481   108.18572118    56.31307497
 C     23   8   7     1.530930412326   116.95136015   180.04485981
 H     26  23   8     1.105582081084   109.86719874   301.73724156
 H     26  23   8     1.105585798211   109.86193251    58.24581817
 C     26  23   8     1.533603982800   112.61653270   179.99067384
 H     29  26  23     1.105907017702   109.19992751   302.34266403
 H     29  26  23     1.105907050078   109.20091376    57.68007141
 C     29  26  23     1.530797585392   113.16643694   180.01157152
 H     32  29  26     1.103741625532   111.26607905    59.86742746
 H     32  29  26     1.103740900386   111.26579312   300.16266525
 C      3   2   1     1.222190416127   179.38622710   183.18823879
 H     20  17  14     1.101909207586   111.46893551   179.99191820
 H     32  29  26     1.102119853516   111.51954376   180.01516291
 C     35   3   7     1.428157606709   179.75723605   341.67298816
 C     38  35   3     1.412138007620   120.58594990    11.89078823
 C     39  38  35     1.394530366816   120.41359372   180.00558014
 C     40  39  38     1.399544152153   120.34823029     0.00000000
 C     41  40  39     1.399607806599   119.71475162     0.00000000
 C     42  41  40     1.394476872563   120.34131656     0.00000000
 H     41  40  39     1.092518553235   120.14089511   179.99948218
 H     42  41  40     1.092693716325   120.04739151   180.00006200
 H     39  38  35     1.091625242953   119.10355011     0.00000000
 H     43  42  41     1.091646265858   120.46185154   179.99929903
 H     40  39  38     1.092692696424   119.61063317   179.99853807
 C      1   2   4     1.426314822752   179.44021500     7.97891835
 C     49   1   2     1.412866472299   120.84146160   174.69047430
 C     50  49   1     1.394313768797   120.44030075   180.00410778
 C     51  50  49     1.399720097788   120.37341189     0.00000000
 C     52  51  50     1.399765394776   119.68883131     0.00000000
 C     53  52  51     1.394167035611   120.36359262     0.00000000
 H     52  51  50     1.092512891076   120.15861729   179.99950226
 H     53  52  51     1.092720562293   120.03262659   180.00039764
 H     50  49   1     1.091640722080   119.14462304     0.00000000
 H     54  53  52     1.091635124541   120.48157947   180.00033693
 H     51  50  49     1.092719548299   119.59060647   179.99808910

---------------------------
INTERNAL COORDINATES (A.U.)
---------------------------
 C      0   0   0     0.000000000000     0.00000000     0.00000000
 C      1   0   0     2.313267021764     0.00000000     0.00000000
 C      2   1   0    10.727718764347   177.03370543     0.00000000
 C      2   1   3     2.684094594388   178.57226269     1.61379910
 C      4   2   1     2.732248782561   121.37947093   177.27418630
 C      5   4   2     2.689751970066   116.53246812   179.97394295
 C      6   5   4     2.640589009194   122.81750118     0.00000000
 C      7   6   5     2.707241107559   120.19603371     0.00000000
 C      8   7   6     2.635352418985   117.59457760     0.00000000
 H      6   5   4     2.060196352343   119.19384028   180.01393541
 H      9   8   7     2.059537115445   119.65911426   180.00945175
 C      5   4   2     2.666693905246   121.76035333   359.96120221
 H     12   5   4     2.065841219702   117.17964463     0.00000000
 C     12   5   4     2.833973353275   125.00650035   179.99840463
 H     14  12   5     2.097060359442   109.99754599   302.39373556
 H     14  12   5     2.096977036892   110.00002632    57.17684125
 C     14  12   5     2.899357881259   113.47566746   179.78145011
 H     17  14  12     2.088839128456   108.99874219   302.33291433
 H     17  14  12     2.088857343265   109.00685092    57.64719992
 C     17  14  12     2.891039112059   113.11912013   179.99262194
 H     20  17  14     2.085869345541   111.29301045    59.86395818
 H     20  17  14     2.085870347659   111.29345838   300.12174412
 C      8   7   6     2.861762588161   119.58650621   179.98662253
 H     23   8   7     2.090501144771   108.18179814   303.76917881
 H     23   8   7     2.090512853030   108.18572118    56.31307497
 C     23   8   7     2.893039209388   116.95136015   180.04485981
 H     26  23   8     2.089247351820   109.86719874   301.73724156
 H     26  23   8     2.089254376172   109.86193251    58.24581817
 C     26  23   8     2.898091525383   112.61653270   179.99067384
 H     29  26  23     2.089861393039   109.19992751   302.34266403
 H     29  26  23     2.089861454220   109.20091376    57.68007141
 C     29  26  23     2.892788202859   113.16643694   180.01157152
 H     32  29  26     2.085769394864   111.26607905    59.86742746
 H     32  29  26     2.085768024538   111.26579312   300.16266525
 C      3   2   1     2.309605169983   179.38622710   183.18823879
 H     20  17  14     2.082306626783   111.46893551   179.99191820
 H     32  29  26     2.082704689904   111.51954376   180.01516291
 C     35   3   7     2.698826752756   179.75723605   341.67298816
 C     38  35   3     2.668554097703   120.58594990    11.89078823
 C     39  38  35     2.635280478718   120.41359372   180.00558014
 C     40  39  38     2.644755159900   120.34823029     0.00000000
 C     41  40  39     2.644875449371   119.71475162     0.00000000
 C     42  41  40     2.635179389231   120.34131656     0.00000000
 H     41  40  39     2.064560861843   120.14089511   179.99948218
 H     42  41  40     2.064891872112   120.04739151   180.00006200
 H     39  38  35     2.062872750057   119.10355011     0.00000000
 H     43  42  41     2.062912477590   120.46185154   179.99929903
 H     40  39  38     2.064889944777   119.61063317   179.99853807
 C      1   2   4     2.695344395753   179.44021500     7.97891835
 C     49   1   2     2.669930696445   120.84146160   174.69047430
 C     50  49   1     2.634871167782   120.44030075   180.00410778
 C     51  50  49     2.645087648966   120.37341189     0.00000000
 C     52  51  50     2.645173247866   119.68883131     0.00000000
 C     53  52  51     2.634593882245   120.36359262     0.00000000
 H     52  51  50     2.064550161912   120.15861729   179.99950226
 H     53  52  51     2.064942603637   120.03262659   180.00039764
 H     50  49   1     2.062902001367   119.14462304     0.00000000
 H     54  53  52     2.062891423551   120.48157947   180.00033693
 H     51  50  49     2.064940687467   119.59060647   179.99808910

---------------------
BASIS SET INFORMATION
---------------------
There are 2 groups of distinct atoms

 Group   1 Type C   : 17s4p1d contracted to 3s2p1d pattern {881/31/1}
 Group   2 Type H   : 4s1p contracted to 2s1p pattern {31/1}

Atom   0C    basis set group =>   1
Atom   1C    basis set group =>   1
Atom   2C    basis set group =>   1
Atom   3C    basis set group =>   1
Atom   4C    basis set group =>   1
Atom   5C    basis set group =>   1
Atom   6C    basis set group =>   1
Atom   7C    basis set group =>   1
Atom   8C    basis set group =>   1
Atom   9H    basis set group =>   2
Atom  10H    basis set group =>   2
Atom  11C    basis set group =>   1
Atom  12H    basis set group =>   2
Atom  13C    basis set group =>   1
Atom  14H    basis set group =>   2
Atom  15H    basis set group =>   2
Atom  16C    basis set group =>   1
Atom  17H    basis set group =>   2
Atom  18H    basis set group =>   2
Atom  19C    basis set group =>   1
Atom  20H    basis set group =>   2
Atom  21H    basis set group =>   2
Atom  22C    basis set group =>   1
Atom  23H    basis set group =>   2
Atom  24H    basis set group =>   2
Atom  25C    basis set group =>   1
Atom  26H    basis set group =>   2
Atom  27H    basis set group =>   2
Atom  28C    basis set group =>   1
Atom  29H    basis set group =>   2
Atom  30H    basis set group =>   2
Atom  31C    basis set group =>   1
Atom  32H    basis set group =>   2
Atom  33H    basis set group =>   2
Atom  34C    basis set group =>   1
Atom  35H    basis set group =>   2
Atom  36H    basis set group =>   2
Atom  37C    basis set group =>   1
Atom  38C    basis set group =>   1
Atom  39C    basis set group =>   1
Atom  40C    basis set group =>   1
Atom  41C    basis set group =>   1
Atom  42C    basis set group =>   1
Atom  43H    basis set group =>   2
Atom  44H    basis set group =>   2
Atom  45H    basis set group =>   2
Atom  46H    basis set group =>   2
Atom  47H    basis set group =>   2
Atom  48C    basis set group =>   1
Atom  49C    basis set group =>   1
Atom  50C    basis set group =>   1
Atom  51C    basis set group =>   1
Atom  52C    basis set group =>   1
Atom  53C    basis set group =>   1
Atom  54H    basis set group =>   2
Atom  55H    basis set group =>   2
Atom  56H    basis set group =>   2
Atom  57H    basis set group =>   2
Atom  58H    basis set group =>   2
---------------------------------
AUXILIARY/J BASIS SET INFORMATION
---------------------------------
There are 2 groups of distinct atoms

 Group   1 Type C   : 14s11p10d2f contracted to 14s11p10d2f pattern {11111111111111/11111111111/1111111111/11}
 Group   2 Type H   : 9s2p1d contracted to 9s2p1d pattern {111111111/11/1}

Atom   0C    basis set group =>   1
Atom   1C    basis set group =>   1
Atom   2C    basis set group =>   1
Atom   3C    basis set group =>   1
Atom   4C    basis set group =>   1
Atom   5C    basis set group =>   1
Atom   6C    basis set group =>   1
Atom   7C    basis set group =>   1
Atom   8C    basis set group =>   1
Atom   9H    basis set group =>   2
Atom  10H    basis set group =>   2
Atom  11C    basis set group =>   1
Atom  12H    basis set group =>   2
Atom  13C    basis set group =>   1
Atom  14H    basis set group =>   2
Atom  15H    basis set group =>   2
Atom  16C    basis set group =>   1
Atom  17H    basis set group =>   2
Atom  18H    basis set group =>   2
Atom  19C    basis set group =>   1
Atom  20H    basis set group =>   2
Atom  21H    basis set group =>   2
Atom  22C    basis set group =>   1
Atom  23H    basis set group =>   2
Atom  24H    basis set group =>   2
Atom  25C    basis set group =>   1
Atom  26H    basis set group =>   2
Atom  27H    basis set group =>   2
Atom  28C    basis set group =>   1
Atom  29H    basis set group =>   2
Atom  30H    basis set group =>   2
Atom  31C    basis set group =>   1
Atom  32H    basis set group =>   2
Atom  33H    basis set group =>   2
Atom  34C    basis set group =>   1
Atom  35H    basis set group =>   2
Atom  36H    basis set group =>   2
Atom  37C    basis set group =>   1
Atom  38C    basis set group =>   1
Atom  39C    basis set group =>   1
Atom  40C    basis set group =>   1
Atom  41C    basis set group =>   1
Atom  42C    basis set group =>   1
Atom  43H    basis set group =>   2
Atom  44H    basis set group =>   2
Atom  45H    basis set group =>   2
Atom  46H    basis set group =>   2
Atom  47H    basis set group =>   2
Atom  48C    basis set group =>   1
Atom  49C    basis set group =>   1
Atom  50C    basis set group =>   1
Atom  51C    basis set group =>   1
Atom  52C    basis set group =>   1
Atom  53C    basis set group =>   1
Atom  54H    basis set group =>   2
Atom  55H    basis set group =>   2
Atom  56H    basis set group =>   2
Atom  57H    basis set group =>   2
Atom  58H    basis set group =>   2
---------------------------------
AUXILIARY/C BASIS SET INFORMATION
---------------------------------
There are 2 groups of distinct atoms

 Group   1 Type C   : 14s11p10d2f contracted to 14s11p10d2f pattern {11111111111111/11111111111/1111111111/11}
 Group   2 Type H   : 9s2p1d contracted to 9s2p1d pattern {111111111/11/1}

Atom   0C    basis set group =>   1
Atom   1C    basis set group =>   1
Atom   2C    basis set group =>   1
Atom   3C    basis set group =>   1
Atom   4C    basis set group =>   1
Atom   5C    basis set group =>   1
Atom   6C    basis set group =>   1
Atom   7C    basis set group =>   1
Atom   8C    basis set group =>   1
Atom   9H    basis set group =>   2
Atom  10H    basis set group =>   2
Atom  11C    basis set group =>   1
Atom  12H    basis set group =>   2
Atom  13C    basis set group =>   1
Atom  14H    basis set group =>   2
Atom  15H    basis set group =>   2
Atom  16C    basis set group =>   1
Atom  17H    basis set group =>   2
Atom  18H    basis set group =>   2
Atom  19C    basis set group =>   1
Atom  20H    basis set group =>   2
Atom  21H    basis set group =>   2
Atom  22C    basis set group =>   1
Atom  23H    basis set group =>   2
Atom  24H    basis set group =>   2
Atom  25C    basis set group =>   1
Atom  26H    basis set group =>   2
Atom  27H    basis set group =>   2
Atom  28C    basis set group =>   1
Atom  29H    basis set group =>   2
Atom  30H    basis set group =>   2
Atom  31C    basis set group =>   1
Atom  32H    basis set group =>   2
Atom  33H    basis set group =>   2
Atom  34C    basis set group =>   1
Atom  35H    basis set group =>   2
Atom  36H    basis set group =>   2
Atom  37C    basis set group =>   1
Atom  38C    basis set group =>   1
Atom  39C    basis set group =>   1
Atom  40C    basis set group =>   1
Atom  41C    basis set group =>   1
Atom  42C    basis set group =>   1
Atom  43H    basis set group =>   2
Atom  44H    basis set group =>   2
Atom  45H    basis set group =>   2
Atom  46H    basis set group =>   2
Atom  47H    basis set group =>   2
Atom  48C    basis set group =>   1
Atom  49C    basis set group =>   1
Atom  50C    basis set group =>   1
Atom  51C    basis set group =>   1
Atom  52C    basis set group =>   1
Atom  53C    basis set group =>   1
Atom  54H    basis set group =>   2
Atom  55H    basis set group =>   2
Atom  56H    basis set group =>   2
Atom  57H    basis set group =>   2
Atom  58H    basis set group =>   2
----------------------------------
AUXILIARY/JK BASIS SET INFORMATION
----------------------------------
There are 2 groups of distinct atoms

 Group   1 Type C   : 14s11p10d2f contracted to 14s11p10d2f pattern {11111111111111/11111111111/1111111111/11}
 Group   2 Type H   : 9s2p1d contracted to 9s2p1d pattern {111111111/11/1}

Atom   0C    basis set group =>   1
Atom   1C    basis set group =>   1
Atom   2C    basis set group =>   1
Atom   3C    basis set group =>   1
Atom   4C    basis set group =>   1
Atom   5C    basis set group =>   1
Atom   6C    basis set group =>   1
Atom   7C    basis set group =>   1
Atom   8C    basis set group =>   1
Atom   9H    basis set group =>   2
Atom  10H    basis set group =>   2
Atom  11C    basis set group =>   1
Atom  12H    basis set group =>   2
Atom  13C    basis set group =>   1
Atom  14H    basis set group =>   2
Atom  15H    basis set group =>   2
Atom  16C    basis set group =>   1
Atom  17H    basis set group =>   2
Atom  18H    basis set group =>   2
Atom  19C    basis set group =>   1
Atom  20H    basis set group =>   2
Atom  21H    basis set group =>   2
Atom  22C    basis set group =>   1
Atom  23H    basis set group =>   2
Atom  24H    basis set group =>   2
Atom  25C    basis set group =>   1
Atom  26H    basis set group =>   2
Atom  27H    basis set group =>   2
Atom  28C    basis set group =>   1
Atom  29H    basis set group =>   2
Atom  30H    basis set group =>   2
Atom  31C    basis set group =>   1
Atom  32H    basis set group =>   2
Atom  33H    basis set group =>   2
Atom  34C    basis set group =>   1
Atom  35H    basis set group =>   2
Atom  36H    basis set group =>   2
Atom  37C    basis set group =>   1
Atom  38C    basis set group =>   1
Atom  39C    basis set group =>   1
Atom  40C    basis set group =>   1
Atom  41C    basis set group =>   1
Atom  42C    basis set group =>   1
Atom  43H    basis set group =>   2
Atom  44H    basis set group =>   2
Atom  45H    basis set group =>   2
Atom  46H    basis set group =>   2
Atom  47H    basis set group =>   2
Atom  48C    basis set group =>   1
Atom  49C    basis set group =>   1
Atom  50C    basis set group =>   1
Atom  51C    basis set group =>   1
Atom  52C    basis set group =>   1
Atom  53C    basis set group =>   1
Atom  54H    basis set group =>   2
Atom  55H    basis set group =>   2
Atom  56H    basis set group =>   2
Atom  57H    basis set group =>   2
Atom  58H    basis set group =>   2

Checking for AutoStart:
The File: cc-pVDZ.gbw exists
Trying to determine its content:
     ... Fine, the file contains calculation information
     ... Fine, the calculation information was read
     ... Fine, the file contains a basis set
     ... Fine, the basis set was read
     ... Fine, the file contains a geometry
     ... Fine, the geometry was read
     ... Fine, the file contains a set of orbitals
     ... Fine, the orbitals can be read
     => possible old guess file was deleted
     => GBW file was renamed to GES file
     => GES file is set as startup file
     => Guess is set to MORead
     ... now leaving AutoStart



           ************************************************************
           *        Program running with 16 parallel MPI-processes    *
           *              working on a common directory               *
           ************************************************************
------------------------------------------------------------------------------
                           ORCA GTO INTEGRAL CALCULATION
                           -- RI-GTO INTEGRALS CHOSEN --
------------------------------------------------------------------------------
------------------------------------------------------------------------------
                   ___                                                        
                  /   \      - P O W E R E D   B Y -                         
                 /     \                                                     
                 |  |  |   _    _      __       _____    __    __             
                 |  |  |  | |  | |    /  \     |  _  \  |  |  /  |          
                  \  \/   | |  | |   /    \    | | | |  |  | /  /          
                 / \  \   | |__| |  /  /\  \   | |_| |  |  |/  /          
                |  |  |   |  __  | /  /__\  \  |    /   |      \           
                |  |  |   | |  | | |   __   |  |    \   |  |\   \          
                \     /   | |  | | |  |  |  |  | |\  \  |  | \   \       
                 \___/    |_|  |_| |__|  |__|  |_| \__\ |__|  \__/        
                                                                              
                      - O R C A' S   B I G   F R I E N D -                    
                                      &                                       
                       - I N T E G R A L  F E E D E R -                       
                                                                              
 v1 FN, 2020, v2 2021                                                         
------------------------------------------------------------------------------


Reading SHARK input file cc-pVDZ.SHARKINP.tmp ... ok
----------------------
SHARK INTEGRAL PACKAGE
----------------------

Number of atoms                             ...     59
Number of basis functions                   ...    745
Number of shells                            ...    447
Maximum angular momentum                    ...      2
Integral batch strategy                     ... SHARK/LIBINT Hybrid
RI-J (if used) integral strategy            ... SPLIT-RIJ (Revised 2003 algorithm where possible)
Printlevel                                  ...      1
Contraction scheme used                     ... PARTIAL GENERAL contraction
Coulomb Range Separation                    ... NOT USED
Exchange Range Separation                   ... NOT USED
Finite Nucleus Model                        ... NOT USED
Auxiliary Coulomb fitting basis             ... AVAILABLE
   # of basis functions in Aux-J            ...   3910
   # of shells in Aux-J                     ...   1458
   Maximum angular momentum in Aux-J        ...      3
Auxiliary J/K fitting basis                 ... AVAILABLE
   # of basis functions in Aux-JK           ...   3910
   # of shells in Aux-JK                    ...   1458
   Maximum angular momentum in Aux-JK       ...      3
Auxiliary Correlation fitting basis         ... AVAILABLE
   # of basis functions in Aux-C            ...   3910
   # of shells in Aux-C                     ...   1458
   Maximum angular momentum in Aux-C        ...      3
Auxiliary 'external' fitting basis          ... NOT available
Integral threshold                          ...     1.000000e-10
Primitive cut-off                           ...     1.000000e-11
Primitive pair pre-selection threshold      ...     1.000000e-11

Calculating pre-screening integrals         ... done (  0.0 sec) Dimension = 447
Calculating pre-screening integrals (ORCA)  ... done (  0.1 sec) Dimension = 267
Organizing shell pair data                  ... done (  0.2 sec)
Shell pair information
Total number of shell pairs                 ...    100128
Shell pairs after pre-screening             ...     32148
Total number of primitive shell pairs       ...    160072
Primitive shell pairs kept                  ...     42898
          la=0 lb=0:  13782 shell pairs
          la=1 lb=0:  11420 shell pairs
          la=1 lb=1:   2054 shell pairs
          la=2 lb=0:   3435 shell pairs
          la=2 lb=1:   1252 shell pairs
          la=2 lb=2:    205 shell pairs

Calculating one electron integrals          ... done (  0.1 sec)
Calculating RI/J V-Matrix + Cholesky decomp.... done (  0.9 sec)
Calculating RI/JK V-Matrix + Cholesky decomp... done (  0.9 sec)
Calculating RI/C V-Matrix + Cholesky decomp.... done (  0.8 sec)
Calculating Nuclear repulsion               ... done (  0.0 sec) ENN=   2363.860245374453 Eh

SHARK setup successfully completed in   3.4 seconds

Maximum memory used throughout the entire GTOINT-calculation: 56.7 MB


           ************************************************************
           *        Program running with 16 parallel MPI-processes    *
           *              working on a common directory               *
           ************************************************************
-------------------------------------------------------------------------------
                                 ORCA SCF
-------------------------------------------------------------------------------

------------
SCF SETTINGS
------------
Hamiltonian:
 Density Functional     Method          .... DFT(GTOs)
 Exchange Functional    Exchange        .... B88
   X-Alpha parameter    XAlpha          ....  0.666667
   Becke's b parameter  XBeta           ....  0.004200
 Correlation Functional Correlation     .... LYP
 LDA part of GGA corr.  LDAOpt          .... VWN-5
 Gradients option       PostSCFGGA      .... off
 Hybrid DFT is turned on
   Fraction HF Exchange ScalHFX         ....  0.200000
   Scaling of DF-GGA-X  ScalDFX         ....  0.720000
   Scaling of DF-GGA-C  ScalDFC         ....  0.810000
   Scaling of DF-LDA-C  ScalLDAC        ....  1.000000
   Perturbative correction              ....  0.000000
   Density functional embedding theory  .... OFF
   NL short-range parameter             ....  4.800000
 RI-approximation to the Coulomb term is turned on
   Number of AuxJ basis functions       .... 3910
   RIJ-COSX (HFX calculated with COS-X)).... on


General Settings:
 Integral files         IntName         .... cc-pVDZ
 Hartree-Fock type      HFTyp           .... UHF
 Total Charge           Charge          ....    0
 Multiplicity           Mult            ....    2
 Number of Electrons    NEL             ....  209
 Basis Dimension        Dim             ....  565
 Nuclear Repulsion      ENuc            ....   2363.8602453745 Eh

Convergence Acceleration:
 DIIS                   CNVDIIS         .... on
   Start iteration      DIISMaxIt       ....    12
   Startup error        DIISStart       ....  0.200000
   # of expansion vecs  DIISMaxEq       ....     5
   Bias factor          DIISBfac        ....   1.050
   Max. coefficient     DIISMaxC        ....  10.000
 Trust-Rad. Augm. Hess. CNVTRAH         .... auto
   Auto Start mean grad. ratio tolernc. ....  1.125000
   Auto Start start iteration           ....     1
   Auto Start num. interpolation iter.  ....    10
   Max. Number of Micro iterations      ....    16
   Max. Number of Macro iterations      .... Maxiter - #DIIS iter
   Number of Davidson start vectors     ....     2
   Converg. threshold I  (grad. norm)   ....   5.000e-05
   Converg. threshold II (energy diff.) ....   1.000e-06
   Grad. Scal. Fac. for Micro threshold ....   0.100
   Minimum threshold for Micro iter.    ....   0.010
   NR start threshold (gradient norm)   ....   0.001
   Initial trust radius                 ....   0.400
   Minimum AH scaling param. (alpha)    ....   1.000
   Maximum AH scaling param. (alpha)    .... 1000.000
   Orbital update algorithm             .... Taylor
   White noise on init. David. guess    .... on
   Maximum white noise                  ....   0.010
   Quad. conv. algorithm                .... NR
 SOSCF                  CNVSOSCF        .... off
 Level Shifting         CNVShift        .... on
   Level shift para.    LevelShift      ....    0.2500
   Turn off err/grad.   ShiftErr        ....    0.0010
 Zerner damping         CNVZerner       .... off
 Static damping         CNVDamp         .... on
   Fraction old density DampFac         ....    0.7000
   Max. Damping (<1)    DampMax         ....    0.9800
   Min. Damping (>=0)   DampMin         ....    0.0000
   Turn off err/grad.   DampErr         ....    0.1000
 Fernandez-Rico         CNVRico         .... off

SCF Procedure:
 Maximum # iterations   MaxIter         ....   125
 SCF integral mode      SCFMode         .... Direct
   Integral package                     .... SHARK and LIBINT hybrid scheme
 Reset frequency        DirectResetFreq ....    20
 Integral Threshold     Thresh          ....  1.000e-10 Eh
 Primitive CutOff       TCut            ....  1.000e-11 Eh

Convergence Tolerance:
 Convergence Check Mode ConvCheckMode   .... Total+1el-Energy
 Convergence forced     ConvForced      .... 0
 Energy Change          TolE            ....  1.000e-06 Eh
 1-El. energy change                    ....  1.000e-03 Eh
 DIIS Error             TolErr          ....  1.000e-06


Diagonalization of the overlap matrix:
Smallest eigenvalue                        ... 4.689e-05
Time for diagonalization                   ...    0.061 sec
Threshold for overlap eigenvalues          ... 1.000e-08
Number of eigenvalues below threshold      ... 0
Time for construction of square roots      ...    0.062 sec
Total time needed                          ...    0.124 sec

---------------------
INITIAL GUESS: MOREAD
---------------------
Guess MOs are being read from file: cc-pVDZ.ges
Input geometry compatible with but different from current geometry
Input basis set matches current basis set (good)
MOs were renormalized
MOs were reorthogonalized (Cholesky)
                      ------------------
                      INITIAL GUESS DONE (   0.3 sec)
                      ------------------
-------------------
DFT GRID GENERATION
-------------------

General Integration Accuracy     IntAcc      ... 4.388
Radial Grid Type                 RadialGrid  ... OptM3 with GC (2021)
Angular Grid (max. ang.)         AngularGrid ... 4 (Lebedev-302)
Angular grid pruning method      GridPruning ... 4 (adaptive)
Weight generation scheme         WeightScheme... Becke
Basis function cutoff            BFCut       ... 1.0000e-10
Integration weight cutoff        WCut        ... 1.0000e-14
Angular grids for H and He will be reduced by one unit
Partially contracted basis set               ... off
Rotationally invariant grid construction     ... off

Total number of grid points                  ...   271673
Total number of batches                      ...     4271
Average number of points per batch           ...       63
Average number of grid points per atom       ...     4605
Time for grid setup =    1.773 sec

--------------------
COSX GRID GENERATION
--------------------

GRIDX 1
-------
General Integration Accuracy     IntAcc      ... 3.816
Radial Grid Type                 RadialGrid  ... OptM3 with GC (2021)
Angular Grid (max. ang.)         AngularGrid ... 1 (Lebedev-50)
Angular grid pruning method      GridPruning ... 4 (adaptive)
Weight generation scheme         WeightScheme... Becke
Basis function cutoff            BFCut       ... 1.0000e-10
Integration weight cutoff        WCut        ... 1.0000e-14
Angular grids for H and He will be reduced by one unit
Partially contracted basis set               ... on
Rotationally invariant grid construction     ... off

Total number of grid points                  ...    34621
Total number of batches                      ...      570
Average number of points per batch           ...       60
Average number of grid points per atom       ...      587
UseSFitting                                  ... on

GRIDX 2
-------
General Integration Accuracy     IntAcc      ... 4.020
Radial Grid Type                 RadialGrid  ... OptM3 with GC (2021)
Angular Grid (max. ang.)         AngularGrid ... 2 (Lebedev-110)
Angular grid pruning method      GridPruning ... 4 (adaptive)
Weight generation scheme         WeightScheme... Becke
Basis function cutoff            BFCut       ... 1.0000e-10
Integration weight cutoff        WCut        ... 1.0000e-14
Angular grids for H and He will be reduced by one unit
Partially contracted basis set               ... on
Rotationally invariant grid construction     ... off

Total number of grid points                  ...    73988
Total number of batches                      ...     1187
Average number of points per batch           ...       62
Average number of grid points per atom       ...     1254
UseSFitting                                  ... on

GRIDX 3
-------
General Integration Accuracy     IntAcc      ... 4.338
Radial Grid Type                 RadialGrid  ... OptM3 with GC (2021)
Angular Grid (max. ang.)         AngularGrid ... 3 (Lebedev-194)
Angular grid pruning method      GridPruning ... 4 (adaptive)
Weight generation scheme         WeightScheme... Becke
Basis function cutoff            BFCut       ... 1.0000e-10
Integration weight cutoff        WCut        ... 1.0000e-14
Angular grids for H and He will be reduced by one unit
Partially contracted basis set               ... on
Rotationally invariant grid construction     ... off

Total number of grid points                  ...   161745
Total number of batches                      ...     2559
Average number of points per batch           ...       63
Average number of grid points per atom       ...     2741
UseSFitting                                  ... on

Time for X-Grid setup             =    2.872 sec

 re-compute Schwartz prescreening matrix in partically contracted basis (1) ...done (   0.104 sec)
--------------
SCF ITERATIONS
--------------
ITER       Energy         Delta-E        Max-DP      RMS-DP      [F,P]     Damp
               ***  Starting incremental Fock matrix formation  ***
  0  -1159.8356255564   0.000000000000 0.00011679  0.00000133  0.0001848 0.7000
                 **** Energy Check signals convergence ****

               *****************************************************
               *                     SUCCESS                       *
               *           SCF CONVERGED AFTER   1 CYCLES          *
               *****************************************************

Old exchange energy                            =    -33.145838309 Eh
New exchange energy                            =    -33.145973050 Eh
Exchange energy change after final integration =     -0.000134741 Eh
Total energy after final integration           =  -1159.835760706 Eh
Final COS-X integration done in                =    11.070 sec

----------------
TOTAL SCF ENERGY
----------------

Total Energy       :        -1159.83576071 Eh          -31560.73557 eV

Components:
Nuclear Repulsion  :         2363.86024537 Eh           64323.90744 eV
Electronic Energy  :        -3523.69600608 Eh          -95884.64301 eV
One Electron Energy:        -6262.62273151 Eh         -170414.62824 eV
Two Electron Energy:         2738.92672543 Eh           74529.98523 eV
Max COSX asymmetry :            0.00000062 Eh               0.00002 eV

Virial components:
Potential Energy   :        -2311.73808720 Eh          -62905.59141 eV
Kinetic Energy     :         1151.90232649 Eh           31344.85585 eV
Virial Ratio       :            2.00688725


DFT components:
N(Alpha)           :      105.000155173104 electrons
N(Beta)            :      104.000147154434 electrons
N(Total)           :      209.000302327538 electrons
E(X)               :     -131.491520606949 Eh       
E(C)               :       -8.161217959621 Eh       
E(XC)              :     -139.652738566570 Eh       
DFET-embed. en.    :        0.000000000000 Eh       

---------------
SCF CONVERGENCE
---------------

  Last Energy change         ...   -4.0889e-07  Tolerance :   1.0000e-06
  Last MAX-Density change    ...    3.7442e-05  Tolerance :   1.0000e-05
  Last RMS-Density change    ...    4.2584e-07  Tolerance :   1.0000e-06
  Last DIIS Error            ...    1.4824e-04  Tolerance :   1.0000e-06

             **** THE GBW FILE WAS UPDATED (cc-pVDZ.gbw) ****
             **** DENSITY cc-pVDZ.scfp WAS UPDATED ****
             **** ENERGY FILE WAS UPDATED (cc-pVDZ.en.tmp) ****
----------------------
UHF SPIN CONTAMINATION
----------------------

Warning: in a DFT calculation there is little theoretical justification to 
         calculate <S**2> as in Hartree-Fock theory. We will do it anyways
         but you should keep in mind that the values have only limited relevance

Expectation value of <S**2>     :     0.788669
Ideal value S*(S+1) for S=0.5   :     0.750000
Deviation                       :     0.038669

             **** THE GBW FILE WAS UPDATED (cc-pVDZ.gbw) ****
             **** DENSITY cc-pVDZ.scfp WAS UPDATED ****
----------------
ORBITAL ENERGIES
----------------
                 SPIN UP ORBITALS
  NO   OCC          E(Eh)            E(eV) 
   0   1.0000     -10.215942      -277.9899 
   1   1.0000     -10.214506      -277.9508 
   2   1.0000     -10.212695      -277.9015 
   3   1.0000     -10.210542      -277.8430 
   4   1.0000     -10.200994      -277.5832 
   5   1.0000     -10.196964      -277.4735 
   6   1.0000     -10.196563      -277.4626 
   7   1.0000     -10.196436      -277.4591 
   8   1.0000     -10.195568      -277.4355 
   9   1.0000     -10.195519      -277.4342 
  10   1.0000     -10.195319      -277.4287 
  11   1.0000     -10.195060      -277.4217 
  12   1.0000     -10.194830      -277.4154 
  13   1.0000     -10.194253      -277.3997 
  14   1.0000     -10.193628      -277.3827 
  15   1.0000     -10.193442      -277.3777 
  16   1.0000     -10.193207      -277.3713 
  17   1.0000     -10.191299      -277.3193 
  18   1.0000     -10.188798      -277.2513 
  19   1.0000     -10.188392      -277.2402 
  20   1.0000     -10.187961      -277.2285 
  21   1.0000     -10.187639      -277.2197 
  22   1.0000     -10.186794      -277.1968 
  23   1.0000     -10.186157      -277.1794 
  24   1.0000     -10.185638      -277.1653 
  25   1.0000     -10.183795      -277.1151 
  26   1.0000     -10.181685      -277.0577 
  27   1.0000     -10.181262      -277.0462 
  28   1.0000     -10.177031      -276.9311 
  29   1.0000     -10.175570      -276.8913 
  30   1.0000      -0.872379       -23.7386 
  31   1.0000      -0.862711       -23.4756 
  32   1.0000      -0.861538       -23.4436 
  33   1.0000      -0.819142       -22.2900 
  34   1.0000      -0.798610       -21.7313 
  35   1.0000      -0.796130       -21.6638 
  36   1.0000      -0.781777       -21.2732 
  37   1.0000      -0.772768       -21.0281 
  38   1.0000      -0.765777       -20.8378 
  39   1.0000      -0.750436       -20.4204 
  40   1.0000      -0.749368       -20.3913 
  41   1.0000      -0.737887       -20.0789 
  42   1.0000      -0.726099       -19.7582 
  43   1.0000      -0.709294       -19.3009 
  44   1.0000      -0.696732       -18.9590 
  45   1.0000      -0.656043       -17.8518 
  46   1.0000      -0.645907       -17.5760 
  47   1.0000      -0.623102       -16.9555 
  48   1.0000      -0.613065       -16.6823 
  49   1.0000      -0.608758       -16.5652 
  50   1.0000      -0.608362       -16.5544 
  51   1.0000      -0.607211       -16.5230 
  52   1.0000      -0.590181       -16.0596 
  53   1.0000      -0.579549       -15.7703 
  54   1.0000      -0.560587       -15.2543 
  55   1.0000      -0.540185       -14.6992 
  56   1.0000      -0.534504       -14.5446 
  57   1.0000      -0.506646       -13.7865 
  58   1.0000      -0.503574       -13.7030 
  59   1.0000      -0.479835       -13.0570 
  60   1.0000      -0.478724       -13.0268 
  61   1.0000      -0.474530       -12.9126 
  62   1.0000      -0.470293       -12.7973 
  63   1.0000      -0.461946       -12.5702 
  64   1.0000      -0.457229       -12.4418 
  65   1.0000      -0.455909       -12.4059 
  66   1.0000      -0.436558       -11.8793 
  67   1.0000      -0.434763       -11.8305 
  68   1.0000      -0.430448       -11.7131 
  69   1.0000      -0.428213       -11.6523 
  70   1.0000      -0.425622       -11.5818 
  71   1.0000      -0.423762       -11.5311 
  72   1.0000      -0.422549       -11.4981 
  73   1.0000      -0.421399       -11.4668 
  74   1.0000      -0.411195       -11.1892 
  75   1.0000      -0.397959       -10.8290 
  76   1.0000      -0.397444       -10.8150 
  77   1.0000      -0.383824       -10.4444 
  78   1.0000      -0.381146       -10.3715 
  79   1.0000      -0.377590       -10.2748 
  80   1.0000      -0.374523       -10.1913 
  81   1.0000      -0.364646        -9.9225 
  82   1.0000      -0.361424        -9.8348 
  83   1.0000      -0.359490        -9.7822 
  84   1.0000      -0.355263        -9.6672 
  85   1.0000      -0.353239        -9.6121 
  86   1.0000      -0.349991        -9.5237 
  87   1.0000      -0.348794        -9.4912 
  88   1.0000      -0.339736        -9.2447 
  89   1.0000      -0.332255        -9.0411 
  90   1.0000      -0.331928        -9.0322 
  91   1.0000      -0.330672        -8.9980 
  92   1.0000      -0.327286        -8.9059 
  93   1.0000      -0.323463        -8.8019 
  94   1.0000      -0.321614        -8.7516 
  95   1.0000      -0.305614        -8.3162 
  96   1.0000      -0.278123        -7.5681 
  97   1.0000      -0.271901        -7.3988 
  98   1.0000      -0.267721        -7.2851 
  99   1.0000      -0.266194        -7.2435 
 100   1.0000      -0.258094        -7.0231 
 101   1.0000      -0.257548        -7.0082 
 102   1.0000      -0.235951        -6.4205 
 103   1.0000      -0.208132        -5.6635 
 104   1.0000      -0.169511        -4.6126 
 105   0.0000      -0.063771        -1.7353 
 106   0.0000      -0.026977        -0.7341 
 107   0.0000      -0.009782        -0.2662 
 108   0.0000      -0.008956        -0.2437 
 109   0.0000       0.005712         0.1554 
 110   0.0000       0.019128         0.5205 
 111   0.0000       0.042680         1.1614 
 112   0.0000       0.051462         1.4003 
 113   0.0000       0.054308         1.4778 
 114   0.0000       0.056376         1.5341 
 115   0.0000       0.063321         1.7231 
 116   0.0000       0.064796         1.7632 
 117   0.0000       0.078522         2.1367 
 118   0.0000       0.078916         2.1474 
 119   0.0000       0.080907         2.2016 
 120   0.0000       0.088777         2.4158 
 121   0.0000       0.089927         2.4470 
 122   0.0000       0.096782         2.6336 
 123   0.0000       0.101381         2.7587 
 124   0.0000       0.102671         2.7938 
 125   0.0000       0.104047         2.8313 
 126   0.0000       0.113939         3.1004 
 127   0.0000       0.117867         3.2073 
 128   0.0000       0.121529         3.3070 
 129   0.0000       0.125882         3.4254 
 130   0.0000       0.130542         3.5522 
 131   0.0000       0.134612         3.6630 
 132   0.0000       0.138397         3.7660 
 133   0.0000       0.143646         3.9088 
 134   0.0000       0.145534         3.9602 
 135   0.0000       0.148879         4.0512 
 136   0.0000       0.156310         4.2534 
 137   0.0000       0.157216         4.2781 
 138   0.0000       0.160262         4.3609 
 139   0.0000       0.161507         4.3948 
 140   0.0000       0.163840         4.4583 
 141   0.0000       0.168541         4.5862 
 142   0.0000       0.173434         4.7194 
 143   0.0000       0.174076         4.7369 
 144   0.0000       0.180272         4.9054 
 145   0.0000       0.199891         5.4393 
 146   0.0000       0.204729         5.5710 
 147   0.0000       0.213556         5.8112 
 148   0.0000       0.217902         5.9294 
 149   0.0000       0.219063         5.9610 
 150   0.0000       0.219184         5.9643 
 151   0.0000       0.224597         6.1116 
 152   0.0000       0.226478         6.1628 
 153   0.0000       0.244182         6.6445 
 154   0.0000       0.248311         6.7569 
 155   0.0000       0.268623         7.3096 
 156   0.0000       0.276728         7.5301 
 157   0.0000       0.279632         7.6092 
 158   0.0000       0.280840         7.6420 
 159   0.0000       0.288244         7.8435 
 160   0.0000       0.292359         7.9555 
 161   0.0000       0.292554         7.9608 
 162   0.0000       0.308198         8.3865 
 163   0.0000       0.314148         8.5484 
 164   0.0000       0.314985         8.5712 
 165   0.0000       0.322063         8.7638 
 166   0.0000       0.331915         9.0319 
 167   0.0000       0.343686         9.3522 
 168   0.0000       0.362110         9.8535 
 169   0.0000       0.364639         9.9223 
 170   0.0000       0.372867        10.1462 
 171   0.0000       0.382067        10.3966 
 172   0.0000       0.396401        10.7866 
 173   0.0000       0.409128        11.1330 
 174   0.0000       0.412080        11.2133 
 175   0.0000       0.413556        11.2534 
 176   0.0000       0.419355        11.4112 
 177   0.0000       0.420112        11.4318 
 178   0.0000       0.429051        11.6751 
 179   0.0000       0.435141        11.8408 
 180   0.0000       0.440585        11.9889 
 181   0.0000       0.441953        12.0261 
 182   0.0000       0.446159        12.1406 
 183   0.0000       0.451209        12.2780 
 184   0.0000       0.452619        12.3164 
 185   0.0000       0.455024        12.3818 
 186   0.0000       0.461540        12.5591 
 187   0.0000       0.470276        12.7969 
 188   0.0000       0.473390        12.8816 
 189   0.0000       0.474752        12.9187 
 190   0.0000       0.475835        12.9481 
 191   0.0000       0.476384        12.9631 
 192   0.0000       0.478795        13.0287 
 193   0.0000       0.484369        13.1804 
 194   0.0000       0.490015        13.3340 
 195   0.0000       0.499403        13.5895 
 196   0.0000       0.499822        13.6008 
 197   0.0000       0.504145        13.7185 
 198   0.0000       0.507570        13.8117 
 199   0.0000       0.508485        13.8366 
 200   0.0000       0.509532        13.8651 
 201   0.0000       0.509875        13.8744 
 202   0.0000       0.512983        13.9590 
 203   0.0000       0.514646        14.0042 
 204   0.0000       0.516485        14.0543 
 205   0.0000       0.516590        14.0571 
 206   0.0000       0.517401        14.0792 
 207   0.0000       0.517495        14.0818 
 208   0.0000       0.521746        14.1974 
 209   0.0000       0.524794        14.2804 
 210   0.0000       0.528517        14.3817 
 211   0.0000       0.540389        14.7047 
 212   0.0000       0.549629        14.9562 
 213   0.0000       0.557212        15.1625 
 214   0.0000       0.561314        15.2741 
 215   0.0000       0.572232        15.5712 
 216   0.0000       0.580556        15.7977 
 217   0.0000       0.580868        15.8062 
 218   0.0000       0.586167        15.9504 
 219   0.0000       0.588802        16.0221 
 220   0.0000       0.592498        16.1227 
 221   0.0000       0.593926        16.1615 
 222   0.0000       0.601014        16.3544 
 223   0.0000       0.605304        16.4712 
 224   0.0000       0.610619        16.6158 
 225   0.0000       0.619254        16.8507 
 226   0.0000       0.621946        16.9240 
 227   0.0000       0.627432        17.0733 
 228   0.0000       0.632075        17.1996 
 229   0.0000       0.634123        17.2554 
 230   0.0000       0.638383        17.3713 
 231   0.0000       0.639520        17.4022 
 232   0.0000       0.639846        17.4111 
 233   0.0000       0.642477        17.4827 
 234   0.0000       0.645480        17.5644 
 235   0.0000       0.646039        17.5796 
 236   0.0000       0.651228        17.7208 
 237   0.0000       0.655929        17.8487 
 238   0.0000       0.659983        17.9591 
 239   0.0000       0.662190        18.0191 
 240   0.0000       0.663019        18.0417 
 241   0.0000       0.663170        18.0458 
 242   0.0000       0.666604        18.1392 
 243   0.0000       0.669351        18.2140 
 244   0.0000       0.672248        18.2928 
 245   0.0000       0.675731        18.3876 
 246   0.0000       0.678957        18.4754 
 247   0.0000       0.682498        18.5717 
 248   0.0000       0.684022        18.6132 
 249   0.0000       0.686942        18.6926 
 250   0.0000       0.687547        18.7091 
 251   0.0000       0.688474        18.7343 
 252   0.0000       0.691235        18.8095 
 253   0.0000       0.695746        18.9322 
 254   0.0000       0.700940        19.0735 
 255   0.0000       0.705542        19.1988 
 256   0.0000       0.711350        19.3568 
 257   0.0000       0.717175        19.5153 
 258   0.0000       0.719776        19.5861 
 259   0.0000       0.720996        19.6193 
 260   0.0000       0.725729        19.7481 
 261   0.0000       0.735444        20.0124 
 262   0.0000       0.737441        20.0668 
 263   0.0000       0.744830        20.2679 
 264   0.0000       0.744974        20.2718 
 265   0.0000       0.764344        20.7989 
 266   0.0000       0.766558        20.8591 
 267   0.0000       0.766980        20.8706 
 268   0.0000       0.780746        21.2452 
 269   0.0000       0.786967        21.4145 
 270   0.0000       0.792455        21.5638 
 271   0.0000       0.797790        21.7090 
 272   0.0000       0.813518        22.1370 
 273   0.0000       0.815224        22.1834 
 274   0.0000       0.831520        22.6268 
 275   0.0000       0.834407        22.7054 
 276   0.0000       0.846995        23.0479 
 277   0.0000       0.852831        23.2067 
 278   0.0000       0.862784        23.4775 
 279   0.0000       0.865606        23.5543 
 280   0.0000       0.867707        23.6115 
 281   0.0000       0.881841        23.9961 
 282   0.0000       0.885367        24.0921 
 283   0.0000       0.900897        24.5147 
 284   0.0000       0.902034        24.5456 
 285   0.0000       0.908236        24.7144 
 286   0.0000       0.908873        24.7317 
 287   0.0000       0.913688        24.8627 
 288   0.0000       0.914402        24.8821 
 289   0.0000       0.922734        25.1089 
 290   0.0000       0.934085        25.4177 
 291   0.0000       0.937086        25.4994 
 292   0.0000       0.948235        25.8028 
 293   0.0000       0.952262        25.9124 
 294   0.0000       0.959193        26.1010 
 295   0.0000       0.964191        26.2370 
 296   0.0000       0.975017        26.5316 
 297   0.0000       0.977243        26.5921 
 298   0.0000       0.979155        26.6442 
 299   0.0000       0.986570        26.8459 
 300   0.0000       0.993167        27.0255 
 301   0.0000       0.994847        27.0712 
 302   0.0000       1.001284        27.2463 
 303   0.0000       1.003182        27.2980 
 304   0.0000       1.003247        27.2997 
 305   0.0000       1.011507        27.5245 
 306   0.0000       1.021661        27.8008 
 307   0.0000       1.024821        27.8868 
 308   0.0000       1.028363        27.9832 
 309   0.0000       1.032838        28.1050 
 310   0.0000       1.036373        28.2011 
 311   0.0000       1.044095        28.4113 
 312   0.0000       1.046872        28.4868 
 313   0.0000       1.048687        28.5362 
 314   0.0000       1.052670        28.6446 
 315   0.0000       1.059172        28.8215 
 316   0.0000       1.060270        28.8514 
 317   0.0000       1.071111        29.1464 
 318   0.0000       1.092002        29.7149 
 319   0.0000       1.094162        29.7737 
 320   0.0000       1.111439        30.2438 
 321   0.0000       1.112340        30.2683 
 322   0.0000       1.119370        30.4596 
 323   0.0000       1.123748        30.5787 
 324   0.0000       1.136723        30.9318 
 325   0.0000       1.146335        31.1934 
 326   0.0000       1.155567        31.4446 
 327   0.0000       1.170946        31.8631 
 328   0.0000       1.182165        32.1683 
 329   0.0000       1.188995        32.3542 
 330   0.0000       1.199548        32.6414 
 331   0.0000       1.207205        32.8497 
 332   0.0000       1.210274        32.9332 
 333   0.0000       1.214094        33.0372 
 334   0.0000       1.218284        33.1512 
 335   0.0000       1.221060        33.2267 
 336   0.0000       1.226651        33.3789 
 337   0.0000       1.229491        33.4562 
 338   0.0000       1.233442        33.5637 
 339   0.0000       1.253793        34.1174 
 340   0.0000       1.277490        34.7623 
 341   0.0000       1.279998        34.8305 
 342   0.0000       1.294573        35.2271 
 343   0.0000       1.299839        35.3704 
 344   0.0000       1.303189        35.4616 
 345   0.0000       1.314735        35.7758 
 346   0.0000       1.317989        35.8643 
 347   0.0000       1.329029        36.1647 
 348   0.0000       1.337900        36.4061 
 349   0.0000       1.358424        36.9646 
 350   0.0000       1.369395        37.2631 
 351   0.0000       1.380529        37.5661 
 352   0.0000       1.386784        37.7363 
 353   0.0000       1.387718        37.7617 
 354   0.0000       1.390466        37.8365 
 355   0.0000       1.403634        38.1948 
 356   0.0000       1.415683        38.5227 
 357   0.0000       1.416826        38.5538 
 358   0.0000       1.423984        38.7486 
 359   0.0000       1.425449        38.7884 
 360   0.0000       1.426684        38.8220 
 361   0.0000       1.440820        39.2067 
 362   0.0000       1.452705        39.5301 
 363   0.0000       1.459964        39.7276 
 364   0.0000       1.463939        39.8358 
 365   0.0000       1.476485        40.1772 
 366   0.0000       1.478390        40.2290 
 367   0.0000       1.480967        40.2992 
 368   0.0000       1.481938        40.3256 
 369   0.0000       1.483679        40.3730 
 370   0.0000       1.486359        40.4459 
 371   0.0000       1.494835        40.6765 
 372   0.0000       1.496269        40.7156 
 373   0.0000       1.498009        40.7629 
 374   0.0000       1.509902        41.0865 
 375   0.0000       1.513056        41.1724 
 376   0.0000       1.526277        41.5321 
 377   0.0000       1.533669        41.7332 
 378   0.0000       1.534393        41.7529 
 379   0.0000       1.544821        42.0367 
 380   0.0000       1.566524        42.6273 
 381   0.0000       1.571739        42.7692 
 382   0.0000       1.581491        43.0346 
 383   0.0000       1.585606        43.1465 
 384   0.0000       1.593684        43.3664 
 385   0.0000       1.598544        43.4986 
 386   0.0000       1.599168        43.5156 
 387   0.0000       1.599263        43.5182 
 388   0.0000       1.602658        43.6105 
 389   0.0000       1.607973        43.7552 
 390   0.0000       1.613885        43.9160 
 391   0.0000       1.616686        43.9923 
 392   0.0000       1.617640        44.0182 
 393   0.0000       1.624199        44.1967 
 394   0.0000       1.626982        44.2724 
 395   0.0000       1.628125        44.3035 
 396   0.0000       1.631532        44.3962 
 397   0.0000       1.638379        44.5826 
 398   0.0000       1.639151        44.6036 
 399   0.0000       1.640233        44.6330 
 400   0.0000       1.643799        44.7300 
 401   0.0000       1.646909        44.8147 
 402   0.0000       1.648324        44.8532 
 403   0.0000       1.652252        44.9601 
 404   0.0000       1.654348        45.0171 
 405   0.0000       1.661173        45.2028 
 406   0.0000       1.670947        45.4688 
 407   0.0000       1.671326        45.4791 
 408   0.0000       1.675370        45.5891 
 409   0.0000       1.681716        45.7618 
 410   0.0000       1.683813        45.8189 
 411   0.0000       1.684674        45.8423 
 412   0.0000       1.688415        45.9441 
 413   0.0000       1.690051        45.9886 
 414   0.0000       1.693566        46.0843 
 415   0.0000       1.697811        46.1998 
 416   0.0000       1.701411        46.2977 
 417   0.0000       1.705417        46.4068 
 418   0.0000       1.708076        46.4791 
 419   0.0000       1.712884        46.6099 
 420   0.0000       1.718002        46.7492 
 421   0.0000       1.723398        46.8960 
 422   0.0000       1.727383        47.0045 
 423   0.0000       1.737252        47.2730 
 424   0.0000       1.737619        47.2830 
 425   0.0000       1.742869        47.4259 
 426   0.0000       1.745336        47.4930 
 427   0.0000       1.754754        47.7493 
 428   0.0000       1.764927        48.0261 
 429   0.0000       1.771217        48.1973 
 430   0.0000       1.773881        48.2698 
 431   0.0000       1.774123        48.2764 
 432   0.0000       1.782419        48.5021 
 433   0.0000       1.785824        48.5947 
 434   0.0000       1.789151        48.6853 
 435   0.0000       1.790612        48.7250 
 436   0.0000       1.799193        48.9585 
 437   0.0000       1.800723        49.0002 
 438   0.0000       1.804499        49.1029 
 439   0.0000       1.806075        49.1458 
 440   0.0000       1.811536        49.2944 
 441   0.0000       1.827841        49.7381 
 442   0.0000       1.831734        49.8440 
 443   0.0000       1.832476        49.8642 
 444   0.0000       1.838894        50.0388 
 445   0.0000       1.841143        50.1001 
 446   0.0000       1.841371        50.1062 
 447   0.0000       1.845371        50.2151 
 448   0.0000       1.850113        50.3441 
 449   0.0000       1.851592        50.3844 
 450   0.0000       1.853288        50.4305 
 451   0.0000       1.854414        50.4612 
 452   0.0000       1.856277        50.5119 
 453   0.0000       1.864794        50.7436 
 454   0.0000       1.879186        51.1353 
 455   0.0000       1.895407        51.5766 
 456   0.0000       1.902622        51.7730 
 457   0.0000       1.907434        51.9039 
 458   0.0000       1.911536        52.0155 
 459   0.0000       1.923254        52.3344 
 460   0.0000       1.926842        52.4320 
 461   0.0000       1.933022        52.6002 
 462   0.0000       1.938561        52.7509 
 463   0.0000       1.959563        53.3224 
 464   0.0000       1.963768        53.4368 
 465   0.0000       1.966408        53.5087 
 466   0.0000       1.973309        53.6965 
 467   0.0000       1.974360        53.7251 
 468   0.0000       1.975530        53.7569 
 469   0.0000       1.986400        54.0527 
 470   0.0000       1.988971        54.1226 
 471   0.0000       1.991222        54.1839 
 472   0.0000       1.994314        54.2680 
 473   0.0000       1.996249        54.3207 
 474   0.0000       2.014784        54.8251 
 475   0.0000       2.031500        55.2799 
 476   0.0000       2.044686        55.6387 
 477   0.0000       2.055558        55.9346 
 478   0.0000       2.074983        56.4632 
 479   0.0000       2.075582        56.4794 
 480   0.0000       2.082240        56.6606 
 481   0.0000       2.084251        56.7154 
 482   0.0000       2.108988        57.3885 
 483   0.0000       2.114396        57.5356 
 484   0.0000       2.132327        58.0236 
 485   0.0000       2.151051        58.5331 
 486   0.0000       2.155795        58.6622 
 487   0.0000       2.160559        58.7918 
 488   0.0000       2.171760        59.0966 
 489   0.0000       2.188481        59.5516 
 490   0.0000       2.189166        59.5702 
 491   0.0000       2.196610        59.7728 
 492   0.0000       2.199212        59.8436 
 493   0.0000       2.204872        59.9976 
 494   0.0000       2.210265        60.1444 
 495   0.0000       2.219449        60.3943 
 496   0.0000       2.229540        60.6689 
 497   0.0000       2.237858        60.8952 
 498   0.0000       2.241069        60.9826 
 499   0.0000       2.249213        61.2042 
 500   0.0000       2.254258        61.3415 
 501   0.0000       2.277468        61.9730 
 502   0.0000       2.284855        62.1741 
 503   0.0000       2.302517        62.6547 
 504   0.0000       2.305574        62.7378 
 505   0.0000       2.306588        62.7654 
 506   0.0000       2.322670        63.2031 
 507   0.0000       2.337260        63.6001 
 508   0.0000       2.350979        63.9734 
 509   0.0000       2.361103        64.2489 
 510   0.0000       2.366070        64.3840 
 511   0.0000       2.371329        64.5271 
 512   0.0000       2.385611        64.9158 
 513   0.0000       2.408559        65.5402 
 514   0.0000       2.411395        65.6174 
 515   0.0000       2.412354        65.6435 
 516   0.0000       2.415507        65.7293 
 517   0.0000       2.416471        65.7555 
 518   0.0000       2.417310        65.7783 
 519   0.0000       2.417898        65.7944 
 520   0.0000       2.420709        65.8708 
 521   0.0000       2.423222        65.9392 
 522   0.0000       2.432346        66.1875 
 523   0.0000       2.445643        66.5493 
 524   0.0000       2.450381        66.6782 
 525   0.0000       2.462351        67.0040 
 526   0.0000       2.483771        67.5868 
 527   0.0000       2.497150        67.9509 
 528   0.0000       2.513848        68.4053 
 529   0.0000       2.530552        68.8598 
 530   0.0000       2.543029        69.1994 
 531   0.0000       2.552700        69.4625 
 532   0.0000       2.557370        69.5896 
 533   0.0000       2.576799        70.1183 
 534   0.0000       2.596041        70.6419 
 535   0.0000       2.604278        70.8660 
 536   0.0000       2.617390        71.2228 
 537   0.0000       2.620727        71.3136 
 538   0.0000       2.630657        71.5838 
 539   0.0000       2.642719        71.9120 
 540   0.0000       2.654104        72.2218 
 541   0.0000       2.661832        72.4321 
 542   0.0000       2.681297        72.9618 
 543   0.0000       2.694495        73.3209 
 544   0.0000       2.714058        73.8533 
 545   0.0000       2.716453        73.9184 
 546   0.0000       2.719320        73.9965 
 547   0.0000       2.724076        74.1259 
 548   0.0000       2.727772        74.2264 
 549   0.0000       2.740626        74.5762 
 550   0.0000       2.773423        75.4687 
 551   0.0000       2.794344        76.0380 
 552   0.0000       2.833147        77.0939 
 553   0.0000       2.851526        77.5940 
 554   0.0000       2.870597        78.1129 
 555   0.0000       2.879524        78.3558 
 556   0.0000       2.883036        78.4514 
 557   0.0000       2.946736        80.1848 
 558   0.0000       3.063708        83.3677 
 559   0.0000       3.079609        83.8004 
 560   0.0000       3.098489        84.3142 
 561   0.0000       3.130976        85.1982 
 562   0.0000       3.393729        92.3481 
 563   0.0000       3.584339        97.5348 
 564   0.0000       3.585541        97.5675 

                 SPIN DOWN ORBITALS
  NO   OCC          E(Eh)            E(eV) 
[...]

 -----------------------------------------------------------
 Nucleus  56H : A:ISTP=    1 I=  0.5 P=533.5514 MHz/au**3
                Q:ISTP=    2 I=  1.0 Q=  0.0029 barn     
 -----------------------------------------------------------
 Solving for nuclear perturbation:
Forming RHS of the CP-SCF equations         ... 
Calc. nucleus orbit integrals (SHARK)       ... done

------------------------------------------------------------------------------
                           ORCA CP-SCF CALCULATION
------------------------------------------------------------------------------

Input orbitals are from        ... cc-pVDZ.gbw
Input Perturbation             ... cc-pVDZ.pin.tmp
Wavefunction output            ... cc-pVDZ.pout.tmp
Perturbation mode              ... Imaginary perturbation
Solver                         ... POPLE
Max. number of iterations      ... 64
Convergence tolerance          ... 1.000e-03
Integral handling              ... Direct
DFT GridXC                     ... 1
COSX GridX                     ... 1
COSX IntAccX                   ... 3.067
COSX Algorithm                 ... Auto
Number of perturbations        ... 3
Number of operators            ... 2
Orbital ranges used for CP-SCF:
 Operator 0:  Orbitals   0...104  to 105...564
 Operator 1:  Orbitals   0...103  to 104...564
Variables per perturbation     ... 96244
DFT calculation                         ... on
XC functional terms                     ... off
Hybrid DFT                              ... on
   Exchange mixing (SCF)                ...  0.200
   Exchange mixing (CP-SCF)             ...  0.200
   GGA exch. scaling(SCF)               ...  0.720
   GGA exch. scaling (CP-SCF)           ...  0.720
   GGA corr. scaling (SCF)              ...  0.810
   GGA corr. scaling (CP-SCF)           ...  0.810

CP-SCF GRID
-----------

General Integration Accuracy     IntAcc      ... 3.467
Radial Grid Type                 RadialGrid  ... OptM3 with GC (2021)
Angular Grid (max. ang.)         AngularGrid ... 1 (Lebedev-50)
Angular grid pruning method      GridPruning ... 4 (adaptive)
Weight generation scheme         WeightScheme... Becke
Basis function cutoff            BFCut       ... 1.0000e-10
Integration weight cutoff        WCut        ... 1.0000e-14
Angular grids for H and He will be reduced by one unit
Partially contracted basis set               ... off
Rotationally invariant grid construction     ... off

Total number of grid points                  ...    38984
Total number of batches                      ...      633
Average number of points per batch           ...       61
Average number of grid points per atom       ...      661

CP-SCF GRIDX
------------

General Integration Accuracy     IntAcc      ... 3.067
Radial Grid Type                 RadialGrid  ... OptM3 with GC (2021)
Angular Grid (max. ang.)         AngularGrid ... 1 (Lebedev-50)
Angular grid pruning method      GridPruning ... 4 (adaptive)
Weight generation scheme         WeightScheme... Becke
Basis function cutoff            BFCut       ... 1.0000e-10
Integration weight cutoff        WCut        ... 1.0000e-14
Angular grids for H and He will be reduced by one unit
Partially contracted basis set               ... on
Rotationally invariant grid construction     ... off

Total number of grid points                  ...    18241
Total number of batches                      ...      321
Average number of points per batch           ...       56
Average number of grid points per atom       ...      309

Memory available               ... 840.4 MB
Memory needed per perturbation ...  20.1 MB
Perturbations treated per batch... 3
Number of batches              ... 1
     CP-SCF ITERATION   0:   4.5867e-02 (   2.8 sec   0/  3 done)
     CP-SCF ITERATION   1:   2.0781e-03 (   2.7 sec   0/  3 done)
     CP-SCF ITERATION   2:   1.4369e-04 (   2.7 sec   3/  3 done)
                    *** THE CP-SCF HAS CONVERGED ***

Forming final perturbed densities           ... done
Transforming perturbed density to AO basis  ... done

 Raw HFC matrix (all values in MHz): 
 -----------------------------------
                -1.0880               0.5768              -0.0012
                 0.5767              -1.4747              -0.0021
                -0.0012              -0.0021              -2.5564

 A(FC)          -1.7068              -1.7068              -1.7068
 A(SD)           1.0331              -0.1836              -0.8495
 A(ORB+DIA)      0.0006               0.0008              -0.0002    A(PC) =   0.0004
 A(ORB)          0.0005               0.0006               0.0000    A(PC) =   0.0004
 A(DIA)          0.0001               0.0001              -0.0002    A(PC) =   0.0000
             ----------           ----------           ----------
 A(Tot)         -0.6730              -1.8896              -2.5564    A(iso)=   -1.7063
 Orientation: 
  X           0.8117334            0.5840282           -0.0000839
  Y           0.5840270           -0.8117321           -0.0018673
  Z          -0.0011587            0.0014667           -0.9999983

Notes:  (1) The A matrix conforms to the "SAI" spin Hamiltonian convention.
        (2) Tensor is right-handed.

 -----------------------------------------------------------
 Nucleus  57H : A:ISTP=    1 I=  0.5 P=533.5514 MHz/au**3
                Q:ISTP=    2 I=  1.0 Q=  0.0029 barn     
 -----------------------------------------------------------
 Solving for nuclear perturbation:
Forming RHS of the CP-SCF equations         ... 
Calc. nucleus orbit integrals (SHARK)       ... done

------------------------------------------------------------------------------
                           ORCA CP-SCF CALCULATION
------------------------------------------------------------------------------

Input orbitals are from        ... cc-pVDZ.gbw
Input Perturbation             ... cc-pVDZ.pin.tmp
Wavefunction output            ... cc-pVDZ.pout.tmp
Perturbation mode              ... Imaginary perturbation
Solver                         ... POPLE
Max. number of iterations      ... 64
Convergence tolerance          ... 1.000e-03
Integral handling              ... Direct
DFT GridXC                     ... 1
COSX GridX                     ... 1
COSX IntAccX                   ... 3.067
COSX Algorithm                 ... Auto
Number of perturbations        ... 3
Number of operators            ... 2
Orbital ranges used for CP-SCF:
 Operator 0:  Orbitals   0...104  to 105...564
 Operator 1:  Orbitals   0...103  to 104...564
Variables per perturbation     ... 96244
DFT calculation                         ... on
XC functional terms                     ... off
Hybrid DFT                              ... on
   Exchange mixing (SCF)                ...  0.200
   Exchange mixing (CP-SCF)             ...  0.200
   GGA exch. scaling(SCF)               ...  0.720
   GGA exch. scaling (CP-SCF)           ...  0.720
   GGA corr. scaling (SCF)              ...  0.810
   GGA corr. scaling (CP-SCF)           ...  0.810

CP-SCF GRID
-----------

General Integration Accuracy     IntAcc      ... 3.467
Radial Grid Type                 RadialGrid  ... OptM3 with GC (2021)
Angular Grid (max. ang.)         AngularGrid ... 1 (Lebedev-50)
Angular grid pruning method      GridPruning ... 4 (adaptive)
Weight generation scheme         WeightScheme... Becke
Basis function cutoff            BFCut       ... 1.0000e-10
Integration weight cutoff        WCut        ... 1.0000e-14
Angular grids for H and He will be reduced by one unit
Partially contracted basis set               ... off
Rotationally invariant grid construction     ... off

Total number of grid points                  ...    38984
Total number of batches                      ...      633
Average number of points per batch           ...       61
Average number of grid points per atom       ...      661

CP-SCF GRIDX
------------

General Integration Accuracy     IntAcc      ... 3.067
Radial Grid Type                 RadialGrid  ... OptM3 with GC (2021)
Angular Grid (max. ang.)         AngularGrid ... 1 (Lebedev-50)
Angular grid pruning method      GridPruning ... 4 (adaptive)
Weight generation scheme         WeightScheme... Becke
Basis function cutoff            BFCut       ... 1.0000e-10
Integration weight cutoff        WCut        ... 1.0000e-14
Angular grids for H and He will be reduced by one unit
Partially contracted basis set               ... on
Rotationally invariant grid construction     ... off

Total number of grid points                  ...    18241
Total number of batches                      ...      321
Average number of points per batch           ...       56
Average number of grid points per atom       ...      309

Memory available               ... 839.7 MB
Memory needed per perturbation ...  20.1 MB
Perturbations treated per batch... 3
Number of batches              ... 1
     CP-SCF ITERATION   0:   4.5753e-02 (   2.6 sec   0/  3 done)
     CP-SCF ITERATION   1:   1.9712e-03 (   2.6 sec   0/  3 done)
     CP-SCF ITERATION   2:   1.3616e-04 (   2.8 sec   3/  3 done)
                    *** THE CP-SCF HAS CONVERGED ***

Forming final perturbed densities           ... done
Transforming perturbed density to AO basis  ... done

 Raw HFC matrix (all values in MHz): 
 -----------------------------------
                -1.8673              -0.2532              -0.0000
                -0.2526              -0.9941              -0.0026
                -0.0000              -0.0026              -2.2499

 A(FC)          -1.7041              -1.7041              -1.7041
 A(SD)           0.7778              -0.2321              -0.5457
 A(ORB+DIA)      0.0002               0.0009              -0.0001    A(PC) =   0.0003
 A(ORB)          0.0000               0.0008               0.0000    A(PC) =   0.0003
 A(DIA)          0.0001               0.0001              -0.0001    A(PC) =   0.0001
             ----------           ----------           ----------
 A(Tot)         -0.9262              -1.9353              -2.2499    A(iso)=   -1.7038
 Orientation: 
  X          -0.2597458            0.9656755           -0.0016994
  Y           0.9656752            0.2597416           -0.0023809
  Z          -0.0018578           -0.0022595           -0.9999957

Notes:  (1) The A matrix conforms to the "SAI" spin Hamiltonian convention.
        (2) Tensor is right-handed.

 -----------------------------------------------------------
 Nucleus  58H : A:ISTP=    1 I=  0.5 P=533.5514 MHz/au**3
                Q:ISTP=    2 I=  1.0 Q=  0.0029 barn     
 -----------------------------------------------------------
 Solving for nuclear perturbation:
Forming RHS of the CP-SCF equations         ... 
Calc. nucleus orbit integrals (SHARK)       ... done

------------------------------------------------------------------------------
                           ORCA CP-SCF CALCULATION
------------------------------------------------------------------------------

Input orbitals are from        ... cc-pVDZ.gbw
Input Perturbation             ... cc-pVDZ.pin.tmp
Wavefunction output            ... cc-pVDZ.pout.tmp
Perturbation mode              ... Imaginary perturbation
Solver                         ... POPLE
Max. number of iterations      ... 64
Convergence tolerance          ... 1.000e-03
Integral handling              ... Direct
DFT GridXC                     ... 1
COSX GridX                     ... 1
COSX IntAccX                   ... 3.067
COSX Algorithm                 ... Auto
Number of perturbations        ... 3
Number of operators            ... 2
Orbital ranges used for CP-SCF:
 Operator 0:  Orbitals   0...104  to 105...564
 Operator 1:  Orbitals   0...103  to 104...564
Variables per perturbation     ... 96244
DFT calculation                         ... on
XC functional terms                     ... off
Hybrid DFT                              ... on
   Exchange mixing (SCF)                ...  0.200
   Exchange mixing (CP-SCF)             ...  0.200
   GGA exch. scaling(SCF)               ...  0.720
   GGA exch. scaling (CP-SCF)           ...  0.720
   GGA corr. scaling (SCF)              ...  0.810
   GGA corr. scaling (CP-SCF)           ...  0.810

CP-SCF GRID
-----------

General Integration Accuracy     IntAcc      ... 3.467
Radial Grid Type                 RadialGrid  ... OptM3 with GC (2021)
Angular Grid (max. ang.)         AngularGrid ... 1 (Lebedev-50)
Angular grid pruning method      GridPruning ... 4 (adaptive)
Weight generation scheme         WeightScheme... Becke
Basis function cutoff            BFCut       ... 1.0000e-10
Integration weight cutoff        WCut        ... 1.0000e-14
Angular grids for H and He will be reduced by one unit
Partially contracted basis set               ... off
Rotationally invariant grid construction     ... off

Total number of grid points                  ...    38984
Total number of batches                      ...      633
Average number of points per batch           ...       61
Average number of grid points per atom       ...      661

CP-SCF GRIDX
------------

General Integration Accuracy     IntAcc      ... 3.067
Radial Grid Type                 RadialGrid  ... OptM3 with GC (2021)
Angular Grid (max. ang.)         AngularGrid ... 1 (Lebedev-50)
Angular grid pruning method      GridPruning ... 4 (adaptive)
Weight generation scheme         WeightScheme... Becke
Basis function cutoff            BFCut       ... 1.0000e-10
Integration weight cutoff        WCut        ... 1.0000e-14
Angular grids for H and He will be reduced by one unit
Partially contracted basis set               ... on
Rotationally invariant grid construction     ... off

Total number of grid points                  ...    18241
Total number of batches                      ...      321
Average number of points per batch           ...       56
Average number of grid points per atom       ...      309

Memory available               ... 839.0 MB
Memory needed per perturbation ...  20.1 MB
Perturbations treated per batch... 3
Number of batches              ... 1
     CP-SCF ITERATION   0:   4.1661e-02 (   2.6 sec   0/  3 done)
     CP-SCF ITERATION   1:   1.7141e-03 (   2.8 sec   2/  3 done)
     CP-SCF ITERATION   2:   9.1199e-05 (   1.7 sec   3/  3 done)
                    *** THE CP-SCF HAS CONVERGED ***

Forming final perturbed densities           ... done
Transforming perturbed density to AO basis  ... done

 Raw HFC matrix (all values in MHz): 
 -----------------------------------
                 1.3577               0.2800              -0.0003
                 0.2800               0.5474              -0.0004
                -0.0003              -0.0004               0.3419

 A(FC)           0.7491               0.7491               0.7491
 A(SD)          -0.4071              -0.2891               0.6962
 A(ORB+DIA)     -0.0000               0.0001              -0.0002    A(PC) =  -0.0000
 A(ORB)         -0.0000               0.0001              -0.0002    A(PC) =  -0.0000
 A(DIA)          0.0000              -0.0000               0.0000    A(PC) =   0.0000
             ----------           ----------           ----------
 A(Tot)          0.3419               0.4601               1.4451    A(iso)=    0.7490
 Orientation: 
  X          -0.0004152           -0.2977539           -0.9546426
  Y           0.0025965            0.9546391           -0.2977540
  Z           0.9999965           -0.0026024            0.0003768

Notes:  (1) The A matrix conforms to the "SAI" spin Hamiltonian convention.
        (2) Tensor is right-handed.


--------------------------------------------------------------------------------
----------------------------------------------------------------------------
                           ORCA EULER ANGLE PROGRAM
----------------------------------------------------------------------------

Only g-tensor available        -->  using g-tensor as reference tensor

Reference tensor               ...  g

g-tensor ordering              ...  |g_min> --> |gx>
                                    |g_mid> --> |gy>
                                    |g_max> --> |gz>

A- and EFG-tensor ordering     ...  the axes |Ax>, |Qx>, |Ay>, etc. are assigned
                                    such that the Euler rotation is minimal. You
                                    can find the respective eigenvalues as Ax,
                                    EFGx, Ay, etc. in the tables below.
                                    The relation of |Ax>, |Ay>,  etc. to Amin, Amid, etc.
                                    (as printed in the ORCA EPR/NMR CALCULATION Output)
                                    is obtained in the detailed printout.

Euler rotation around          ...  z - y - z
   First rotation              -->  by alpha around z
   Second rotation             -->  by beta around y'
   Third rotation              -->  by gamma around z''
   Positive / Negative angle   -->  clockwise / counterclockwise rotation

Plot EFG-tensors                    (-)
Plot HFC-tensors                    (-)
Detailed Printout                   (-)

-------------------------------------------------------------------------
          Euler rotation of hyperfine tensor to g-tensor
-------------------------------------------------------------------------

-------------------------------------------------------------------
 Atom  |   Alpha    Beta    Gamma   |   Ax       Ay       Az 
       |          [degrees]         |           [MHz]         
-------------------------------------------------------------------
  9H       89.9     24.5    -89.9     -16.11    -7.05   -19.67
 10H       90.1     27.5    -90.0       4.04     4.67     9.41
 12H      -90.1     25.3     90.1     -45.74   -17.12   -70.51
 14H      100.5     24.0   -120.6      56.45    65.91    57.73
 15H       80.8     23.7    -60.9      56.01    65.48    57.30
 17H      162.8     14.9    165.3      -3.15    -2.98     3.14
 18H       17.4     14.6     14.7      -3.14    -2.98     3.13
 20H      -63.3     35.4    107.5      -0.10     0.03     2.22
 21H     -117.6     35.2     72.8      -0.10     0.03     2.22
 23H       90.8     25.4    -46.3      19.86    20.41    23.48
 24H       89.2     25.4   -133.8      19.89    20.44    23.51
 26H     -102.1     40.4    109.0      -0.96    -0.83     0.96
 27H      -77.8     40.5     70.5      -0.96    -0.84     0.96
 29H      -77.3     11.6     41.9      -0.10    -0.15     0.79
 30H     -102.5     11.6    137.9      -0.10    -0.15     0.79
 32H      -77.0     26.7     73.3      -0.13    -0.10     0.38
 33H     -103.0     26.7    106.5      -0.13    -0.10     0.38
 35H      -88.5     17.8     90.5      -0.78    -0.80     0.75
 36H      -90.5     16.1     89.9      -0.13    -0.13     0.24
 43H      -89.8     23.7     89.8       0.69     0.41     1.15
 44H       89.9     23.7    -89.9      -0.30    -0.48    -0.14
 45H      -89.8     13.0     89.7       0.55     1.45     0.11
 46H       89.9     43.5    -90.0       0.60     0.13     1.38
 47H       88.3      3.5    -88.4      -0.32    -0.17    -0.44
 54H      -89.8     21.4     89.8      -1.99    -0.51    -3.08
 55H      -90.0     31.2     90.0       0.40     1.22     0.63
 56H       89.7      8.6    -89.7      -2.56    -0.67    -1.89
 57H      -89.7     12.0     89.8      -2.25    -1.94    -0.93
 58H      -90.0      9.8     90.0       0.34     1.45     0.46
-------------------------------------------------------------------


Maximum memory used throughout the entire EPRNMR-calculation: 283.8 MB

Timings for individual modules:

Sum of individual times         ...    10288.059 sec (= 171.468 min)
GTO integral calculation        ...        5.729 sec (=   0.095 min)   0.1 %
Spin-Orbit-Coupling Matrices    ...       13.004 sec (=   0.217 min)   0.1 %
SCF iterations                  ...       40.355 sec (=   0.673 min)   0.4 %
EPR/NMR calculation             ...    10228.972 sec (= 170.483 min)  99.4 %
                             ****ORCA TERMINATED NORMALLY****
TOTAL RUN TIME: 0 days 2 hours 51 minutes 32 seconds 592 msec
