
                                 *****************
                                 * O   R   C   A *
                                 *****************

                                            #,                                       
                                            ###                                      
                                            ####                                     
                                            #####                                    
                                            ######                                   
                                           ########,                                 
                                     ,,################,,,,,                         
                               ,,#################################,,                 
                          ,,##########################################,,             
                       ,#########################################, ''#####,          
                    ,#############################################,,   '####,        
                  ,##################################################,,,,####,       
                ,###########''''           ''''###############################       
              ,#####''   ,,,,##########,,,,          '''####'''          '####       
            ,##' ,,,,###########################,,,                        '##       
           ' ,,###''''                  '''############,,,                           
         ,,##''                                '''############,,,,        ,,,,,,###''
      ,#''                                            '''#######################'''  
     '                                                          ''''####''''         
             ,#######,   #######,   ,#######,      ##                                
            ,#'     '#,  ##    ##  ,#'     '#,    #''#        ######   ,####,        
            ##       ##  ##   ,#'  ##            #'  '#       #        #'  '#        
            ##       ##  #######   ##           ,######,      #####,   #    #        
            '#,     ,#'  ##    ##  '#,     ,#' ,#      #,         ##   #,  ,#        
             '#######'   ##     ##  '#######'  #'      '#     #####' # '####'        



                  #######################################################
                  #                        -***-                        #
                  #          Department of theory and spectroscopy      #
                  #    Directorship and core code : Frank Neese         #
                  #        Max Planck Institute fuer Kohlenforschung    #
                  #                Kaiser Wilhelm Platz 1               #
                  #                 D-45470 Muelheim/Ruhr               #
                  #                      Germany                        #
                  #                                                     #
                  #                  All rights reserved                #
                  #                        -***-                        #
                  #######################################################


                         Program Version 5.0.4 -  RELEASE  -


 With contributions from (in alphabetic order):
   Daniel Aravena         : Magnetic Suceptibility
   Michael Atanasov       : Ab Initio Ligand Field Theory (pilot matlab implementation)
   Alexander A. Auer      : GIAO ZORA, VPT2 properties, NMR spectrum
   Ute Becker             : Parallelization
   Giovanni Bistoni       : ED, misc. LED, open-shell LED, HFLD
   Martin Brehm           : Molecular dynamics
   Dmytro Bykov           : SCF Hessian
   Vijay G. Chilkuri      : MRCI spin determinant printing, contributions to CSF-ICE
   Dipayan Datta          : RHF DLPNO-CCSD density
   Achintya Kumar Dutta   : EOM-CC, STEOM-CC
   Dmitry Ganyushin       : Spin-Orbit,Spin-Spin,Magnetic field MRCI
   Miquel Garcia          : C-PCM and meta-GGA Hessian, CC/C-PCM, Gaussian charge scheme
   Yang Guo               : DLPNO-NEVPT2, F12-NEVPT2, CIM, IAO-localization
   Andreas Hansen         : Spin unrestricted coupled pair/coupled cluster methods
   Benjamin Helmich-Paris : MC-RPA, TRAH-SCF, COSX integrals
   Lee Huntington         : MR-EOM, pCC
   Robert Izsak           : Overlap fitted RIJCOSX, COSX-SCS-MP3, EOM
   Marcus Kettner         : VPT2
   Christian Kollmar      : KDIIS, OOCD, Brueckner-CCSD(T), CCSD density, CASPT2, CASPT2-K
   Simone Kossmann        : Meta GGA functionals, TD-DFT gradient, OOMP2, MP2 Hessian
   Martin Krupicka        : Initial AUTO-CI
   Lucas Lang             : DCDCAS
   Marvin Lechner         : AUTO-CI (C++ implementation), FIC-MRCC
   Dagmar Lenk            : GEPOL surface, SMD
   Dimitrios Liakos       : Extrapolation schemes; Compound Job, initial MDCI parallelization
   Dimitrios Manganas     : Further ROCIS development; embedding schemes
   Dimitrios Pantazis     : SARC Basis sets
   Anastasios Papadopoulos: AUTO-CI, single reference methods and gradients
   Taras Petrenko         : DFT Hessian,TD-DFT gradient, ASA, ECA, R-Raman, ABS, FL, XAS/XES, NRVS
   Peter Pinski           : DLPNO-MP2, DLPNO-MP2 Gradient
   Christoph Reimann      : Effective Core Potentials
   Marius Retegan         : Local ZFS, SOC
   Christoph Riplinger    : Optimizer, TS searches, QM/MM, DLPNO-CCSD(T), (RO)-DLPNO pert. Triples
   Tobias Risthaus        : Range-separated hybrids, TD-DFT gradient, RPA, STAB
   Michael Roemelt        : Original ROCIS implementation
   Masaaki Saitow         : Open-shell DLPNO-CCSD energy and density
   Barbara Sandhoefer     : DKH picture change effects
   Avijit Sen             : IP-ROCIS
   Kantharuban Sivalingam : CASSCF convergence, NEVPT2, FIC-MRCI
   Bernardo de Souza      : ESD, SOC TD-DFT
   Georgi Stoychev        : AutoAux, RI-MP2 NMR, DLPNO-MP2 response
   Willem Van den Heuvel  : Paramagnetic NMR
   Boris Wezisla          : Elementary symmetry handling
   Frank Wennmohs         : Technical directorship


 We gratefully acknowledge several colleagues who have allowed us to
 interface, adapt or use parts of their codes:
   Stefan Grimme, W. Hujo, H. Kruse, P. Pracht,  : VdW corrections, initial TS optimization,
                  C. Bannwarth, S. Ehlert          DFT functionals, gCP, sTDA/sTD-DF
   Ed Valeev, F. Pavosevic, A. Kumar             : LibInt (2-el integral package), F12 methods
   Garnet Chan, S. Sharma, J. Yang, R. Olivares  : DMRG
   Ulf Ekstrom                                   : XCFun DFT Library
   Mihaly Kallay                                 : mrcc  (arbitrary order and MRCC methods)
   Jiri Pittner, Ondrej Demel                    : Mk-CCSD
   Frank Weinhold                                : gennbo (NPA and NBO analysis)
   Christopher J. Cramer and Donald G. Truhlar   : smd solvation model
   Lars Goerigk                                  : TD-DFT with DH, B97 family of functionals
   V. Asgeirsson, H. Jonsson                     : NEB implementation
   FAccTs GmbH                                   : IRC, NEB, NEB-TS, DLPNO-Multilevel, CI-OPT
                                                   MM, QMMM, 2- and 3-layer-ONIOM, Crystal-QMMM,
                                                   LR-CPCM, SF, NACMEs, symmetry and pop. for TD-DFT,
                                                   nearIR, NL-DFT gradient (VV10), updates on ESD,
                                                   ML-optimized integration grids
   S Lehtola, MJT Oliveira, MAL Marques          : LibXC Library
   Liviu Ungur et al                             : ANISO software


 Your calculation uses the libint2 library for the computation of 2-el integrals
 For citations please refer to: http://libint.valeyev.net

 Your ORCA version has been built with support for libXC version: 5.1.0
 For citations please refer to: https://tddft.org/programs/libxc/

 This ORCA versions uses:
   CBLAS   interface :  Fast vector & matrix operations
   LAPACKE interface :  Fast linear algebra routines
   SCALAPACK package :  Parallel linear algebra routines
   Shared memory     :  Shared parallel matrices
   BLAS/LAPACK       :  OpenBLAS 0.3.15  USE64BITINT DYNAMIC_ARCH NO_AFFINITY SkylakeX SINGLE_THREADED
        Core in use  :  SkylakeX
   Copyright (c) 2011-2014, The OpenBLAS Project




***************************************
The coordinates will be read from file: opt.xyz
***************************************


================================================================================

----- Orbital basis set information -----
Your calculation utilizes the basis: cc-pVDZ 
       H, B-Ne : Obtained from the ccRepo (grant-hill.group.shef.ac.uk/ccrepo) Feb. 2017
                 T. H. Dunning, Jr., J. Chem. Phys. 90, 1007 (1989)
            He : Obtained from the ccRepo (grant-hill.group.shef.ac.uk/ccrepo) Feb. 2017
                 D. E. Woon, T. H. Dunning, Jr., J. Chem. Phys. 100, 2975 (1994)
  Li-Be, Na-Mg : Obtained from the ccRepo (grant-hill.group.shef.ac.uk/ccrepo) Feb. 2017
                 B. P. Prascher, D. E. Woon, K. A. Peterson, T. H. Dunning, Jr., A. K. Wilson, Theor. Chem. Acc. 128, 69 (2011)
         Al-Ar : Obtained from the ccRepo (grant-hill.group.shef.ac.uk/ccrepo) Feb. 2017
                 D. E. Woon, T. H. Dunning, Jr., J. Chem. Phys. 98, 1358 (1993)
            Ca : Obtained from the Peterson Research Group Website (tyr0.chem.wsu.edu/~kipeters) Feb. 2017
                 J. Koput, K. A. Peterson, J. Phys. Chem. 106, 9595 (2002)
         Sc-Zn : Obtained from the ccRepo (grant-hill.group.shef.ac.uk/ccrepo) Feb. 2017
                 N. B. Balabanov, K. A. Peterson, J. Chem. Phys. 123, 064107 (2005)
                 N. B. Balabanov, K. A. Peterson, J. Chem. Phys. 125, 074110 (2006)
         Ga-Kr : Obtained from the ccRepo (grant-hill.group.shef.ac.uk/ccrepo) Feb. 2017
                 A. K. Wilson, D. E. Woon, K. A. Peterson, T. H. Dunning, Jr., J. Chem. Phys. 110, 7667 (1999)

----- AuxJ basis set information -----
Your calculation utilizes the AutoAux generation procedure.
  G. L. Stoychev, A. A. Auer, F. Neese, J. Chem. Theory Comput. 13, 554 (2017)

----- AuxC basis set information -----
Your calculation utilizes the AutoAux generation procedure.
  G. L. Stoychev, A. A. Auer, F. Neese, J. Chem. Theory Comput. 13, 554 (2017)

----- AuxJK basis set information -----
Your calculation utilizes the AutoAux generation procedure.
  G. L. Stoychev, A. A. Auer, F. Neese, J. Chem. Theory Comput. 13, 554 (2017)

================================================================================
                                        WARNINGS
                       Please study these warnings very carefully!
================================================================================

WARNING: Old DensityContainer found on disk!
         Will remove this file - 
         If you want to keep old densities, please start your calculation with a different basename. 


WARNING: your system is open-shell and RHF/RKS was chosen
  ===> : WILL SWITCH to UHF/UKS


INFO   : the flag for use of the SHARK integral package has been found!

================================================================================
                                       INPUT FILE
================================================================================
NAME = cc-pVDZ.inp
|  1> ! B3LYP cc-pVDZ AUTOAUX
|  2> %pal nprocs 16 end
|  3> *XYZFile 0 2 opt.xyz
|  4> %EPRNMR
|  5>         GTENSOR   TRUE
|  6>         NUCLEI    = ALL H {SHIFT, AISO, ADIP, AORB}
|  7> END
|  8> 
|  9>                          ****END OF INPUT****
================================================================================

                       ****************************
                       * Single Point Calculation *
                       ****************************

---------------------------------
CARTESIAN COORDINATES (ANGSTROEM)
---------------------------------
  C     -4.058780   -0.114027   -0.000729
  C     -2.837067   -0.037217    0.000458
  C      2.839456    0.025128    0.001303
  C     -1.417730    0.016651    0.000204
  C     -0.712128    1.278604   -0.003269
  C      0.709687    1.211983   -0.002475
  C      1.411298    0.003549    0.000975
  C      0.702255   -1.241266    0.003983
  C     -0.691408   -1.190779    0.003621
  H      1.285445    2.137757   -0.004762
  H     -1.264663   -2.117693    0.006030
  C     -1.396749    2.512534   -0.007530
  H     -2.489374    2.477379   -0.008222
  C     -0.740034    3.860790   -0.011243
  H     -0.071952    3.959921    0.869257
  H     -0.065383    3.951892   -0.887544
  C     -1.737595    5.026485   -0.020436
  H     -2.392913    4.932401   -0.905600
  H     -2.399942    4.940503    0.860321
  C     -1.059047    6.397666   -0.024026
  H     -0.415065    6.523869   -0.911556
  H     -0.422198    6.532067    0.867440
  C      1.476339   -2.542840    0.007434
  H      2.155053   -2.543120   -0.866126
  H      2.153685   -2.539371    0.882056
  C      0.658132   -3.836796    0.009521
  H     -0.005723   -3.860159    0.893279
  H     -0.004355   -3.863766   -0.875166
  C      1.539543   -5.091841    0.012796
  H      2.206455   -5.070185   -0.869111
  H      2.204866   -5.066716    0.895810
  C      0.733887   -6.393511    0.014637
  H      0.084970   -6.463882   -0.875410
  H      0.082960   -6.460115    0.903504
  C      4.061356    0.051700    0.002498
  H     -1.799216    7.213950   -0.030767
  H      1.392930   -7.276874    0.017252
  C      5.489033    0.088671    0.002622
  C      6.175837    1.322543    0.001416
  C      7.570008    1.354492    0.001416
  C      8.304589    0.163225    0.002633
  C      7.634082   -1.065321    0.003864
  C      6.240226   -1.107100    0.003878
  H      9.396716    0.192185    0.002617
  H      8.202215   -1.998703    0.004810
  H      5.600673    2.250353    0.000473
  H      5.715229   -2.064211    0.004815
  H      8.088008    2.316597    0.000461
  C     -5.481361   -0.217167   -0.000792
  C     -6.291506    0.940362   -0.001962
  C     -7.681432    0.829777   -0.001873
  C     -8.291180   -0.430157   -0.000632
  C     -7.498648   -1.583951    0.000528
  C     -6.108081   -1.483701    0.000446
  H     -9.380565   -0.512687   -0.000545
  H     -7.968746   -2.570377    0.001498
  H     -5.815246    1.922629   -0.002861
  H     -5.488129   -2.382218    0.001345
  H     -8.294683    1.734189   -0.002759

----------------------------
CARTESIAN COORDINATES (A.U.)
----------------------------
  NO LB      ZA    FRAG     MASS         X           Y           Z
   0 C     6.0000    0    12.011   -7.669983   -0.215479   -0.001378
   1 C     6.0000    0    12.011   -5.361279   -0.070330    0.000865
   2 C     6.0000    0    12.011    5.365794    0.047486    0.002462
   3 C     6.0000    0    12.011   -2.679121    0.031465    0.000385
   4 C     6.0000    0    12.011   -1.345726    2.416212   -0.006177
   5 C     6.0000    0    12.011    1.341114    2.290315   -0.004677
   6 C     6.0000    0    12.011    2.666966    0.006706    0.001843
   7 C     6.0000    0    12.011    1.327070   -2.345653    0.007526
   8 C     6.0000    0    12.011   -1.306572   -2.250246    0.006843
   9 H     1.0000    0     1.008    2.429140    4.039775   -0.008998
  10 H     1.0000    0     1.008   -2.389867   -4.001860    0.011394
  11 C     6.0000    0    12.011   -2.639472    4.748001   -0.014229
  12 H     1.0000    0     1.008   -4.704235    4.681567   -0.015538
  13 C     6.0000    0    12.011   -1.398462    7.295835   -0.021246
  14 H     1.0000    0     1.008   -0.135969    7.483167    1.642658
  15 H     1.0000    0     1.008   -0.123556    7.467993   -1.677215
  16 C     6.0000    0    12.011   -3.283580    9.498680   -0.038619
  17 H     1.0000    0     1.008   -4.521951    9.320886   -1.711336
  18 H     1.0000    0     1.008   -4.535233    9.336197    1.625771
  19 C     6.0000    0    12.011   -2.001308   12.089837   -0.045402
  20 H     1.0000    0     1.008   -0.784360   12.328325   -1.722592
  21 H     1.0000    0     1.008   -0.797838   12.343818    1.639225
  22 C     6.0000    0    12.011    2.789877   -4.805272    0.014049
  23 H     1.0000    0     1.008    4.072461   -4.805801   -1.636741
  24 H     1.0000    0     1.008    4.069875   -4.798716    1.666845
  25 C     6.0000    0    12.011    1.243690   -7.250493    0.017991
  26 H     1.0000    0     1.008   -0.010815   -7.294643    1.688052
  27 H     1.0000    0     1.008   -0.008229   -7.301460   -1.653824
  28 C     6.0000    0    12.011    2.909315   -9.622185    0.024181
  29 H     1.0000    0     1.008    4.169596   -9.581262   -1.642383
  30 H     1.0000    0     1.008    4.166594   -9.574705    1.692836
  31 C     6.0000    0    12.011    1.386845  -12.081985    0.027659
  32 H     1.0000    0     1.008    0.160570  -12.214966   -1.654286
  33 H     1.0000    0     1.008    0.156772  -12.207847    1.707374
  34 C     6.0000    0    12.011    7.674851    0.097700    0.004721
  35 H     1.0000    0     1.008   -3.400025   13.632390   -0.058142
  36 H     1.0000    0     1.008    2.632257  -13.751299    0.032602
  37 C     6.0000    0    12.011   10.372770    0.167563    0.004955
  38 C     6.0000    0    12.011   11.670641    2.499244    0.002676
  39 C     6.0000    0    12.011   14.305241    2.559620    0.002675
  40 C     6.0000    0    12.011   15.693399    0.308451    0.004975
  41 C     6.0000    0    12.011   14.426324   -2.013166    0.007303
  42 C     6.0000    0    12.011   11.792319   -2.092115    0.007328
  43 H     1.0000    0     1.008   17.757221    0.363176    0.004945
  44 H     1.0000    0     1.008   15.499941   -3.777002    0.009089
  45 H     1.0000    0     1.008   10.583739    4.252552    0.000893
  46 H     1.0000    0     1.008   10.800217   -3.900793    0.009099
  47 H     1.0000    0     1.008   15.284121    4.377734    0.000870
  48 C     6.0000    0    12.011  -10.358271   -0.410386   -0.001496
  49 C     6.0000    0    12.011  -11.889224    1.777027   -0.003708
  50 C     6.0000    0    12.011  -14.515803    1.568051   -0.003539
  51 C     6.0000    0    12.011  -15.668060   -0.812879   -0.001194
  52 C     6.0000    0    12.011  -14.170391   -2.993233    0.000997
  53 C     6.0000    0    12.011  -11.542601   -2.803788    0.000842
  54 H     1.0000    0     1.008  -17.726698   -0.968838   -0.001030
  55 H     1.0000    0     1.008  -15.058748   -4.857308    0.002830
  56 H     1.0000    0     1.008  -10.989222    3.633242   -0.005406
  57 H     1.0000    0     1.008  -10.371061   -4.501739    0.002541
  58 H     1.0000    0     1.008  -15.674678    3.277142   -0.005214

--------------------------------
INTERNAL COORDINATES (ANGSTROEM)
--------------------------------
 C      0   0   0     0.000000000000     0.00000000     0.00000000
 C      1   0   0     1.224126443433     0.00000000     0.00000000
 C      2   1   0     5.676864868464   177.03140915     0.00000000
 C      2   1   3     1.420358645532   178.57449228     1.73877668
 C      4   2   1     1.445826295041   121.38448468   177.19897879
 C      5   4   2     1.423375089311   116.52816424   179.96755751
 C      6   5   4     1.397348470617   122.82193934     0.00000000
 C      7   6   5     1.432590108934   120.19523973     0.00000000
 C      8   7   6     1.394577932782   117.59088971     0.00000000
 H      6   5   4     1.090210974542   119.19545768   180.01422906
 H      9   8   7     1.089860605267   119.66011565   180.01068752
 C      5   4   2     1.411136367371   121.76633426   359.95363882
 H     12   5   4     1.093191043477   117.17994550     0.00000000
 C     12   5   4     1.499693772310   125.00739805   179.99730656
 H     14  12   5     1.109703449874   109.99741929   302.41126797
 H     14  12   5     1.109665334815   109.99854623    57.19641117
 C     14  12   5     1.534294192207   113.47464441   179.79919469
 H     17  14  12     1.105354381134   109.00143726   302.33343419
 H     17  14  12     1.105363751985   109.00917860    57.64935036
 C     17  14  12     1.529895164183   113.11544112   179.99404752
 H     20  17  14     1.103788857462   111.29232654    59.86593035
 H     20  17  14     1.103789630808   111.29292028   300.11999163
 C      8   7   6     1.514368915849   119.59327999   179.98817634
 H     23   8   7     1.106237105759   108.18168280   303.76792127
 H     23   8   7     1.106242671424   108.18500334    56.31132860
 C     23   8   7     1.530943263048   116.95250926   180.04297036
 H     26  23   8     1.105567017383   109.86877713   301.73860173
 H     26  23   8     1.105571084326   109.86361863    58.24894927
 C     26  23   8     1.533634617521   112.61356005   179.99322952
 H     29  26  23     1.105893774928   109.19947972   302.34296274
 H     29  26  23     1.105893380011   109.20043303    57.67897657
 C     29  26  23     1.530826384355   113.16490503   180.01103911
 H     32  29  26     1.103734026067   111.26385321    59.86765382
 H     32  29  26     1.103732869483   111.26351558   300.16286423
 C      3   2   1     1.222189708357   179.38164601   183.49857717
 H     20  17  14     1.101914546728   111.47092752   179.99208124
 H     32  29  26     1.102123076063   111.51983900   180.01536577
 C     35   3   7     1.428155937338   179.75699023   341.42766537
 C     38  35   3     1.412141095159   120.58474753    12.07271998
 C     39  38  35     1.394536324157   120.41417232   180.00598973
 C     40  39  38     1.399545890040   120.34679423     0.00000000
 C     41  40  39     1.399610286834   119.71592610     0.00000000
 C     42  41  40     1.394481562585   120.34131874     0.00000000
 H     41  40  39     1.092511090393   120.14065751   179.99930227
 H     42  41  40     1.092692925615   120.04735498   179.99952415
 H     39  38  35     1.091625860164   119.10319965     0.00000000
 H     43  42  41     1.091643012532   120.46259005   179.99862574
 H     40  39  38     1.092689774159   119.61095409   179.99912119
 C      1   2   4     1.426314715428   179.44811046     8.16152607
 C     49   1   2     1.412873063984   120.84104545   174.53750930
 C     50  49   1     1.394318111783   120.43886245   180.00675065
 C     51  50  49     1.399724353652   120.37375199     0.00000000
 C     52  51  50     1.399767398913   119.69036683     0.00000000
 C     53  52  51     1.394175906037   120.36137841     0.00000000
 H     52  51  50     1.092505904272   120.15711823   179.99875534
 H     53  52  51     1.092716544239   120.03421118   180.00008802
 H     50  49   1     1.091637733331   119.14533143     0.00000000
 H     54  53  52     1.091638126460   120.48110760   180.00024613
 H     51  50  49     1.092720314622   119.59084068   179.99831588

---------------------------
INTERNAL COORDINATES (A.U.)
---------------------------
 C      0   0   0     0.000000000000     0.00000000     0.00000000
 C      1   0   0     2.313263731380     0.00000000     0.00000000
 C      2   1   0    10.727719900675   177.03140915     0.00000000
 C      2   1   3     2.684088852002   178.57449228     1.73877668
 C      4   2   1     2.732215734849   121.38448468   177.19897879
 C      5   4   2     2.689789104643   116.52816424   179.96755751
 C      6   5   4     2.640605923120   122.82193934     0.00000000
 C      7   6   5     2.707202968050   120.19523973     0.00000000
 C      8   7   6     2.635370365368   117.59088971     0.00000000
 H      6   5   4     2.060200170080   119.19545768   180.01422906
 H      9   8   7     2.059538068105   119.66011565   180.01068752
 C      5   4   2     2.666661271947   121.76633426   359.95363882
 H     12   5   4     2.065831684227   117.17994550     0.00000000
 C     12   5   4     2.834010514413   125.00739805   179.99730656
 H     14  12   5     2.097035610129   109.99741929   302.41126797
 H     14  12   5     2.096963583106   109.99854623    57.19641117
 C     14  12   5     2.899395832138   113.47464441   179.79919469
 H     17  14  12     2.088817061272   109.00143726   302.33343419
 H     17  14  12     2.088834769616   109.00917860    57.64935036
 C     17  14  12     2.891082873916   113.11544112   179.99404752
 H     20  17  14     2.085858650278   111.29232654    59.86593035
 H     20  17  14     2.085860111689   111.29292028   300.11999163
 C      8   7   6     2.861742516678   119.59327999   179.98817634
 H     23   8   7     2.090485169067   108.18168280   303.76792127
 H     23   8   7     2.090495686648   108.18500334    56.31132860
 C     23   8   7     2.893063493732   116.95250926   180.04297036
 H     26  23   8     2.089218885550   109.86877713   301.73860173
 H     26  23   8     2.089226570958   109.86361863    58.24894927
 C     26  23   8     2.898149416616   112.61356005   179.99322952
 H     29  26  23     2.089836367821   109.19947972   302.34296274
 H     29  26  23     2.089835621537   109.20043303    57.67897657
 C     29  26  23     2.892842625012   113.16490503   180.01103911
 H     32  29  26     2.085755033957   111.26385321    59.86765382
 H     32  29  26     2.085752848329   111.26351558   300.16286423
 C      3   2   1     2.309603832492   179.38164601   183.49857717
 H     20  17  14     2.082316716301   111.47092752   179.99208124
 H     32  29  26     2.082710779633   111.51983900   180.01536577
 C     35   3   7     2.698823598102   179.75699023   341.42766537
 C     38  35   3     2.668559932306   120.58474753    12.07271998
 C     39  38  35     2.635291736462   120.41417232   180.00598973
 C     40  39  38     2.644758444031   120.34679423     0.00000000
 C     41  40  39     2.644880136334   119.71592610     0.00000000
 C     42  41  40     2.635188252089   120.34131874     0.00000000
 H     41  40  39     2.064546759115   120.14065751   179.99930227
 H     42  41  40     2.064890377885   120.04735498   179.99952415
 H     39  38  35     2.062873916416   119.10319965     0.00000000
 H     43  42  41     2.062906329695   120.46259005   179.99862574
 H     40  39  38     2.064884422496   119.61095409   179.99912119
 C      1   2   4     2.695344192940   179.44811046     8.16152607
 C     49   1   2     2.669943152924   120.84104545   174.53750930
 C     50  49   1     2.634879374836   120.43886245   180.00675065
 C     51  50  49     2.645095691381   120.37375199     0.00000000
 C     52  51  50     2.645177035137   119.69036683     0.00000000
 C     53  52  51     2.634610644921   120.36137841     0.00000000
 H     52  51  50     2.064536958766   120.15711823   179.99875534
 H     53  52  51     2.064935010616   120.03421118   180.00008802
 H     50  49   1     2.062896353451   119.14533143     0.00000000
 H     54  53  52     2.062897096356   120.48110760   180.00024613
 H     51  50  49     2.064942135608   119.59084068   179.99831588

---------------------
BASIS SET INFORMATION
---------------------
There are 2 groups of distinct atoms

 Group   1 Type C   : 17s4p1d contracted to 3s2p1d pattern {881/31/1}
 Group   2 Type H   : 4s1p contracted to 2s1p pattern {31/1}

Atom   0C    basis set group =>   1
Atom   1C    basis set group =>   1
Atom   2C    basis set group =>   1
Atom   3C    basis set group =>   1
Atom   4C    basis set group =>   1
Atom   5C    basis set group =>   1
Atom   6C    basis set group =>   1
Atom   7C    basis set group =>   1
Atom   8C    basis set group =>   1
Atom   9H    basis set group =>   2
Atom  10H    basis set group =>   2
Atom  11C    basis set group =>   1
Atom  12H    basis set group =>   2
Atom  13C    basis set group =>   1
Atom  14H    basis set group =>   2
Atom  15H    basis set group =>   2
Atom  16C    basis set group =>   1
Atom  17H    basis set group =>   2
Atom  18H    basis set group =>   2
Atom  19C    basis set group =>   1
Atom  20H    basis set group =>   2
Atom  21H    basis set group =>   2
Atom  22C    basis set group =>   1
Atom  23H    basis set group =>   2
Atom  24H    basis set group =>   2
Atom  25C    basis set group =>   1
Atom  26H    basis set group =>   2
Atom  27H    basis set group =>   2
Atom  28C    basis set group =>   1
Atom  29H    basis set group =>   2
Atom  30H    basis set group =>   2
Atom  31C    basis set group =>   1
Atom  32H    basis set group =>   2
Atom  33H    basis set group =>   2
Atom  34C    basis set group =>   1
Atom  35H    basis set group =>   2
Atom  36H    basis set group =>   2
Atom  37C    basis set group =>   1
Atom  38C    basis set group =>   1
Atom  39C    basis set group =>   1
Atom  40C    basis set group =>   1
Atom  41C    basis set group =>   1
Atom  42C    basis set group =>   1
Atom  43H    basis set group =>   2
Atom  44H    basis set group =>   2
Atom  45H    basis set group =>   2
Atom  46H    basis set group =>   2
Atom  47H    basis set group =>   2
Atom  48C    basis set group =>   1
Atom  49C    basis set group =>   1
Atom  50C    basis set group =>   1
Atom  51C    basis set group =>   1
Atom  52C    basis set group =>   1
Atom  53C    basis set group =>   1
Atom  54H    basis set group =>   2
Atom  55H    basis set group =>   2
Atom  56H    basis set group =>   2
Atom  57H    basis set group =>   2
Atom  58H    basis set group =>   2
---------------------------------
AUXILIARY/J BASIS SET INFORMATION
---------------------------------
There are 2 groups of distinct atoms

 Group   1 Type C   : 14s11p10d2f contracted to 14s11p10d2f pattern {11111111111111/11111111111/1111111111/11}
 Group   2 Type H   : 9s2p1d contracted to 9s2p1d pattern {111111111/11/1}

Atom   0C    basis set group =>   1
Atom   1C    basis set group =>   1
Atom   2C    basis set group =>   1
Atom   3C    basis set group =>   1
Atom   4C    basis set group =>   1
Atom   5C    basis set group =>   1
Atom   6C    basis set group =>   1
Atom   7C    basis set group =>   1
Atom   8C    basis set group =>   1
Atom   9H    basis set group =>   2
Atom  10H    basis set group =>   2
Atom  11C    basis set group =>   1
Atom  12H    basis set group =>   2
Atom  13C    basis set group =>   1
Atom  14H    basis set group =>   2
Atom  15H    basis set group =>   2
Atom  16C    basis set group =>   1
Atom  17H    basis set group =>   2
Atom  18H    basis set group =>   2
Atom  19C    basis set group =>   1
Atom  20H    basis set group =>   2
Atom  21H    basis set group =>   2
Atom  22C    basis set group =>   1
Atom  23H    basis set group =>   2
Atom  24H    basis set group =>   2
Atom  25C    basis set group =>   1
Atom  26H    basis set group =>   2
Atom  27H    basis set group =>   2
Atom  28C    basis set group =>   1
Atom  29H    basis set group =>   2
Atom  30H    basis set group =>   2
Atom  31C    basis set group =>   1
Atom  32H    basis set group =>   2
Atom  33H    basis set group =>   2
Atom  34C    basis set group =>   1
Atom  35H    basis set group =>   2
Atom  36H    basis set group =>   2
Atom  37C    basis set group =>   1
Atom  38C    basis set group =>   1
Atom  39C    basis set group =>   1
Atom  40C    basis set group =>   1
Atom  41C    basis set group =>   1
Atom  42C    basis set group =>   1
Atom  43H    basis set group =>   2
Atom  44H    basis set group =>   2
Atom  45H    basis set group =>   2
Atom  46H    basis set group =>   2
Atom  47H    basis set group =>   2
Atom  48C    basis set group =>   1
Atom  49C    basis set group =>   1
Atom  50C    basis set group =>   1
Atom  51C    basis set group =>   1
Atom  52C    basis set group =>   1
Atom  53C    basis set group =>   1
Atom  54H    basis set group =>   2
Atom  55H    basis set group =>   2
Atom  56H    basis set group =>   2
Atom  57H    basis set group =>   2
Atom  58H    basis set group =>   2
---------------------------------
AUXILIARY/C BASIS SET INFORMATION
---------------------------------
There are 2 groups of distinct atoms

 Group   1 Type C   : 14s11p10d2f contracted to 14s11p10d2f pattern {11111111111111/11111111111/1111111111/11}
 Group   2 Type H   : 9s2p1d contracted to 9s2p1d pattern {111111111/11/1}

Atom   0C    basis set group =>   1
Atom   1C    basis set group =>   1
Atom   2C    basis set group =>   1
Atom   3C    basis set group =>   1
Atom   4C    basis set group =>   1
Atom   5C    basis set group =>   1
Atom   6C    basis set group =>   1
Atom   7C    basis set group =>   1
Atom   8C    basis set group =>   1
Atom   9H    basis set group =>   2
Atom  10H    basis set group =>   2
Atom  11C    basis set group =>   1
Atom  12H    basis set group =>   2
Atom  13C    basis set group =>   1
Atom  14H    basis set group =>   2
Atom  15H    basis set group =>   2
Atom  16C    basis set group =>   1
Atom  17H    basis set group =>   2
Atom  18H    basis set group =>   2
Atom  19C    basis set group =>   1
Atom  20H    basis set group =>   2
Atom  21H    basis set group =>   2
Atom  22C    basis set group =>   1
Atom  23H    basis set group =>   2
Atom  24H    basis set group =>   2
Atom  25C    basis set group =>   1
Atom  26H    basis set group =>   2
Atom  27H    basis set group =>   2
Atom  28C    basis set group =>   1
Atom  29H    basis set group =>   2
Atom  30H    basis set group =>   2
Atom  31C    basis set group =>   1
Atom  32H    basis set group =>   2
Atom  33H    basis set group =>   2
Atom  34C    basis set group =>   1
Atom  35H    basis set group =>   2
Atom  36H    basis set group =>   2
Atom  37C    basis set group =>   1
Atom  38C    basis set group =>   1
Atom  39C    basis set group =>   1
Atom  40C    basis set group =>   1
Atom  41C    basis set group =>   1
Atom  42C    basis set group =>   1
Atom  43H    basis set group =>   2
Atom  44H    basis set group =>   2
Atom  45H    basis set group =>   2
Atom  46H    basis set group =>   2
Atom  47H    basis set group =>   2
Atom  48C    basis set group =>   1
Atom  49C    basis set group =>   1
Atom  50C    basis set group =>   1
Atom  51C    basis set group =>   1
Atom  52C    basis set group =>   1
Atom  53C    basis set group =>   1
Atom  54H    basis set group =>   2
Atom  55H    basis set group =>   2
Atom  56H    basis set group =>   2
Atom  57H    basis set group =>   2
Atom  58H    basis set group =>   2
----------------------------------
AUXILIARY/JK BASIS SET INFORMATION
----------------------------------
There are 2 groups of distinct atoms

 Group   1 Type C   : 14s11p10d2f contracted to 14s11p10d2f pattern {11111111111111/11111111111/1111111111/11}
 Group   2 Type H   : 9s2p1d contracted to 9s2p1d pattern {111111111/11/1}

Atom   0C    basis set group =>   1
Atom   1C    basis set group =>   1
Atom   2C    basis set group =>   1
Atom   3C    basis set group =>   1
Atom   4C    basis set group =>   1
Atom   5C    basis set group =>   1
Atom   6C    basis set group =>   1
Atom   7C    basis set group =>   1
Atom   8C    basis set group =>   1
Atom   9H    basis set group =>   2
Atom  10H    basis set group =>   2
Atom  11C    basis set group =>   1
Atom  12H    basis set group =>   2
Atom  13C    basis set group =>   1
Atom  14H    basis set group =>   2
Atom  15H    basis set group =>   2
Atom  16C    basis set group =>   1
Atom  17H    basis set group =>   2
Atom  18H    basis set group =>   2
Atom  19C    basis set group =>   1
Atom  20H    basis set group =>   2
Atom  21H    basis set group =>   2
Atom  22C    basis set group =>   1
Atom  23H    basis set group =>   2
Atom  24H    basis set group =>   2
Atom  25C    basis set group =>   1
Atom  26H    basis set group =>   2
Atom  27H    basis set group =>   2
Atom  28C    basis set group =>   1
Atom  29H    basis set group =>   2
Atom  30H    basis set group =>   2
Atom  31C    basis set group =>   1
Atom  32H    basis set group =>   2
Atom  33H    basis set group =>   2
Atom  34C    basis set group =>   1
Atom  35H    basis set group =>   2
Atom  36H    basis set group =>   2
Atom  37C    basis set group =>   1
Atom  38C    basis set group =>   1
Atom  39C    basis set group =>   1
Atom  40C    basis set group =>   1
Atom  41C    basis set group =>   1
Atom  42C    basis set group =>   1
Atom  43H    basis set group =>   2
Atom  44H    basis set group =>   2
Atom  45H    basis set group =>   2
Atom  46H    basis set group =>   2
Atom  47H    basis set group =>   2
Atom  48C    basis set group =>   1
Atom  49C    basis set group =>   1
Atom  50C    basis set group =>   1
Atom  51C    basis set group =>   1
Atom  52C    basis set group =>   1
Atom  53C    basis set group =>   1
Atom  54H    basis set group =>   2
Atom  55H    basis set group =>   2
Atom  56H    basis set group =>   2
Atom  57H    basis set group =>   2
Atom  58H    basis set group =>   2

Checking for AutoStart:
The File: cc-pVDZ.gbw exists
Trying to determine its content:
     ... Fine, the file contains calculation information
     ... Fine, the calculation information was read
     ... Fine, the file contains a basis set
     ... Fine, the basis set was read
     ... Fine, the file contains a geometry
     ... Fine, the geometry was read
     ... Fine, the file contains a set of orbitals
     ... Fine, the orbitals can be read
     => possible old guess file was deleted
     => GBW file was renamed to GES file
     => GES file is set as startup file
     => Guess is set to MORead
     ... now leaving AutoStart



           ************************************************************
           *        Program running with 16 parallel MPI-processes    *
           *              working on a common directory               *
           ************************************************************
------------------------------------------------------------------------------
                           ORCA GTO INTEGRAL CALCULATION
                           -- RI-GTO INTEGRALS CHOSEN --
------------------------------------------------------------------------------
------------------------------------------------------------------------------
                   ___                                                        
                  /   \      - P O W E R E D   B Y -                         
                 /     \                                                     
                 |  |  |   _    _      __       _____    __    __             
                 |  |  |  | |  | |    /  \     |  _  \  |  |  /  |          
                  \  \/   | |  | |   /    \    | | | |  |  | /  /          
                 / \  \   | |__| |  /  /\  \   | |_| |  |  |/  /          
                |  |  |   |  __  | /  /__\  \  |    /   |      \           
                |  |  |   | |  | | |   __   |  |    \   |  |\   \          
                \     /   | |  | | |  |  |  |  | |\  \  |  | \   \       
                 \___/    |_|  |_| |__|  |__|  |_| \__\ |__|  \__/        
                                                                              
                      - O R C A' S   B I G   F R I E N D -                    
                                      &                                       
                       - I N T E G R A L  F E E D E R -                       
                                                                              
 v1 FN, 2020, v2 2021                                                         
------------------------------------------------------------------------------


Reading SHARK input file cc-pVDZ.SHARKINP.tmp ... ok
----------------------
SHARK INTEGRAL PACKAGE
----------------------

Number of atoms                             ...     59
Number of basis functions                   ...    745
Number of shells                            ...    447
Maximum angular momentum                    ...      2
Integral batch strategy                     ... SHARK/LIBINT Hybrid
RI-J (if used) integral strategy            ... SPLIT-RIJ (Revised 2003 algorithm where possible)
Printlevel                                  ...      1
Contraction scheme used                     ... PARTIAL GENERAL contraction
Coulomb Range Separation                    ... NOT USED
Exchange Range Separation                   ... NOT USED
Finite Nucleus Model                        ... NOT USED
Auxiliary Coulomb fitting basis             ... AVAILABLE
   # of basis functions in Aux-J            ...   3910
   # of shells in Aux-J                     ...   1458
   Maximum angular momentum in Aux-J        ...      3
Auxiliary J/K fitting basis                 ... AVAILABLE
   # of basis functions in Aux-JK           ...   3910
   # of shells in Aux-JK                    ...   1458
   Maximum angular momentum in Aux-JK       ...      3
Auxiliary Correlation fitting basis         ... AVAILABLE
   # of basis functions in Aux-C            ...   3910
   # of shells in Aux-C                     ...   1458
   Maximum angular momentum in Aux-C        ...      3
Auxiliary 'external' fitting basis          ... NOT available
Integral threshold                          ...     1.000000e-10
Primitive cut-off                           ...     1.000000e-11
Primitive pair pre-selection threshold      ...     1.000000e-11

Calculating pre-screening integrals         ... done (  0.0 sec) Dimension = 447
Calculating pre-screening integrals (ORCA)  ... done (  0.1 sec) Dimension = 267
Organizing shell pair data                  ... done (  0.2 sec)
Shell pair information
Total number of shell pairs                 ...    100128
Shell pairs after pre-screening             ...     32148
Total number of primitive shell pairs       ...    160072
Primitive shell pairs kept                  ...     42896
          la=0 lb=0:  13782 shell pairs
          la=1 lb=0:  11420 shell pairs
          la=1 lb=1:   2054 shell pairs
          la=2 lb=0:   3435 shell pairs
          la=2 lb=1:   1252 shell pairs
          la=2 lb=2:    205 shell pairs

Calculating one electron integrals          ... done (  0.1 sec)
Calculating RI/J V-Matrix + Cholesky decomp.... done (  0.9 sec)
Calculating RI/JK V-Matrix + Cholesky decomp... done (  0.9 sec)
Calculating RI/C V-Matrix + Cholesky decomp.... done (  0.9 sec)
Calculating Nuclear repulsion               ... done (  0.0 sec) ENN=   2363.850750878803 Eh

SHARK setup successfully completed in   3.7 seconds

Maximum memory used throughout the entire GTOINT-calculation: 56.7 MB


           ************************************************************
           *        Program running with 16 parallel MPI-processes    *
           *              working on a common directory               *
           ************************************************************
-------------------------------------------------------------------------------
                                 ORCA SCF
-------------------------------------------------------------------------------

------------
SCF SETTINGS
------------
Hamiltonian:
 Density Functional     Method          .... DFT(GTOs)
 Exchange Functional    Exchange        .... B88
   X-Alpha parameter    XAlpha          ....  0.666667
   Becke's b parameter  XBeta           ....  0.004200
 Correlation Functional Correlation     .... LYP
 LDA part of GGA corr.  LDAOpt          .... VWN-5
 Gradients option       PostSCFGGA      .... off
 Hybrid DFT is turned on
   Fraction HF Exchange ScalHFX         ....  0.200000
   Scaling of DF-GGA-X  ScalDFX         ....  0.720000
   Scaling of DF-GGA-C  ScalDFC         ....  0.810000
   Scaling of DF-LDA-C  ScalLDAC        ....  1.000000
   Perturbative correction              ....  0.000000
   Density functional embedding theory  .... OFF
   NL short-range parameter             ....  4.800000
 RI-approximation to the Coulomb term is turned on
   Number of AuxJ basis functions       .... 3910
   RIJ-COSX (HFX calculated with COS-X)).... on


General Settings:
 Integral files         IntName         .... cc-pVDZ
 Hartree-Fock type      HFTyp           .... UHF
 Total Charge           Charge          ....    0
 Multiplicity           Mult            ....    2
 Number of Electrons    NEL             ....  209
 Basis Dimension        Dim             ....  565
 Nuclear Repulsion      ENuc            ....   2363.8507508788 Eh

Convergence Acceleration:
 DIIS                   CNVDIIS         .... on
   Start iteration      DIISMaxIt       ....    12
   Startup error        DIISStart       ....  0.200000
   # of expansion vecs  DIISMaxEq       ....     5
   Bias factor          DIISBfac        ....   1.050
   Max. coefficient     DIISMaxC        ....  10.000
 Trust-Rad. Augm. Hess. CNVTRAH         .... auto
   Auto Start mean grad. ratio tolernc. ....  1.125000
   Auto Start start iteration           ....     1
   Auto Start num. interpolation iter.  ....    10
   Max. Number of Micro iterations      ....    16
   Max. Number of Macro iterations      .... Maxiter - #DIIS iter
   Number of Davidson start vectors     ....     2
   Converg. threshold I  (grad. norm)   ....   5.000e-05
   Converg. threshold II (energy diff.) ....   1.000e-06
   Grad. Scal. Fac. for Micro threshold ....   0.100
   Minimum threshold for Micro iter.    ....   0.010
   NR start threshold (gradient norm)   ....   0.001
   Initial trust radius                 ....   0.400
   Minimum AH scaling param. (alpha)    ....   1.000
   Maximum AH scaling param. (alpha)    .... 1000.000
   Orbital update algorithm             .... Taylor
   White noise on init. David. guess    .... on
   Maximum white noise                  ....   0.010
   Quad. conv. algorithm                .... NR
 SOSCF                  CNVSOSCF        .... off
 Level Shifting         CNVShift        .... on
   Level shift para.    LevelShift      ....    0.2500
   Turn off err/grad.   ShiftErr        ....    0.0010
 Zerner damping         CNVZerner       .... off
 Static damping         CNVDamp         .... on
   Fraction old density DampFac         ....    0.7000
   Max. Damping (<1)    DampMax         ....    0.9800
   Min. Damping (>=0)   DampMin         ....    0.0000
   Turn off err/grad.   DampErr         ....    0.1000
 Fernandez-Rico         CNVRico         .... off

SCF Procedure:
 Maximum # iterations   MaxIter         ....   125
 SCF integral mode      SCFMode         .... Direct
   Integral package                     .... SHARK and LIBINT hybrid scheme
 Reset frequency        DirectResetFreq ....    20
 Integral Threshold     Thresh          ....  1.000e-10 Eh
 Primitive CutOff       TCut            ....  1.000e-11 Eh

Convergence Tolerance:
 Convergence Check Mode ConvCheckMode   .... Total+1el-Energy
 Convergence forced     ConvForced      .... 0
 Energy Change          TolE            ....  1.000e-06 Eh
 1-El. energy change                    ....  1.000e-03 Eh
 DIIS Error             TolErr          ....  1.000e-06


Diagonalization of the overlap matrix:
Smallest eigenvalue                        ... 4.689e-05
Time for diagonalization                   ...    0.086 sec
Threshold for overlap eigenvalues          ... 1.000e-08
Number of eigenvalues below threshold      ... 0
Time for construction of square roots      ...    0.060 sec
Total time needed                          ...    0.148 sec

---------------------
INITIAL GUESS: MOREAD
---------------------
Guess MOs are being read from file: cc-pVDZ.ges
Input Geometry matches current geometry (good)
Input basis set matches current basis set (good)
MOs were renormalized
MOs were reorthogonalized (Cholesky)
                      ------------------
                      INITIAL GUESS DONE (   0.3 sec)
                      ------------------
-------------------
DFT GRID GENERATION
-------------------

General Integration Accuracy     IntAcc      ... 4.388
Radial Grid Type                 RadialGrid  ... OptM3 with GC (2021)
Angular Grid (max. ang.)         AngularGrid ... 4 (Lebedev-302)
Angular grid pruning method      GridPruning ... 4 (adaptive)
Weight generation scheme         WeightScheme... Becke
Basis function cutoff            BFCut       ... 1.0000e-10
Integration weight cutoff        WCut        ... 1.0000e-14
Angular grids for H and He will be reduced by one unit
Partially contracted basis set               ... off
Rotationally invariant grid construction     ... off

Total number of grid points                  ...   271672
Total number of batches                      ...     4271
Average number of points per batch           ...       63
Average number of grid points per atom       ...     4605
Time for grid setup =    1.720 sec

--------------------
COSX GRID GENERATION
--------------------

GRIDX 1
-------
General Integration Accuracy     IntAcc      ... 3.816
Radial Grid Type                 RadialGrid  ... OptM3 with GC (2021)
Angular Grid (max. ang.)         AngularGrid ... 1 (Lebedev-50)
Angular grid pruning method      GridPruning ... 4 (adaptive)
Weight generation scheme         WeightScheme... Becke
Basis function cutoff            BFCut       ... 1.0000e-10
Integration weight cutoff        WCut        ... 1.0000e-14
Angular grids for H and He will be reduced by one unit
Partially contracted basis set               ... on
Rotationally invariant grid construction     ... off

Total number of grid points                  ...    34621
Total number of batches                      ...      570
Average number of points per batch           ...       60
Average number of grid points per atom       ...      587
UseSFitting                                  ... on

GRIDX 2
-------
General Integration Accuracy     IntAcc      ... 4.020
Radial Grid Type                 RadialGrid  ... OptM3 with GC (2021)
Angular Grid (max. ang.)         AngularGrid ... 2 (Lebedev-110)
Angular grid pruning method      GridPruning ... 4 (adaptive)
Weight generation scheme         WeightScheme... Becke
Basis function cutoff            BFCut       ... 1.0000e-10
Integration weight cutoff        WCut        ... 1.0000e-14
Angular grids for H and He will be reduced by one unit
Partially contracted basis set               ... on
Rotationally invariant grid construction     ... off

Total number of grid points                  ...    73987
Total number of batches                      ...     1188
Average number of points per batch           ...       62
Average number of grid points per atom       ...     1254
UseSFitting                                  ... on

GRIDX 3
-------
General Integration Accuracy     IntAcc      ... 4.338
Radial Grid Type                 RadialGrid  ... OptM3 with GC (2021)
Angular Grid (max. ang.)         AngularGrid ... 3 (Lebedev-194)
Angular grid pruning method      GridPruning ... 4 (adaptive)
Weight generation scheme         WeightScheme... Becke
Basis function cutoff            BFCut       ... 1.0000e-10
Integration weight cutoff        WCut        ... 1.0000e-14
Angular grids for H and He will be reduced by one unit
Partially contracted basis set               ... on
Rotationally invariant grid construction     ... off

Total number of grid points                  ...   161745
Total number of batches                      ...     2559
Average number of points per batch           ...       63
Average number of grid points per atom       ...     2741
UseSFitting                                  ... on

Time for X-Grid setup             =    2.851 sec

 re-compute Schwartz prescreening matrix in partically contracted basis (1) ...done (   0.107 sec)
--------------
SCF ITERATIONS
--------------
ITER       Energy         Delta-E        Max-DP      RMS-DP      [F,P]     Damp
               ***  Starting incremental Fock matrix formation  ***
  0  -1159.8356267005   0.000000000000 0.00002743  0.00000024  0.0000186 0.7000
                 **** Energy Check signals convergence ****

               *****************************************************
               *                     SUCCESS                       *
               *           SCF CONVERGED AFTER   1 CYCLES          *
               *****************************************************

Old exchange energy                            =    -33.145834379 Eh
New exchange energy                            =    -33.145970194 Eh
Exchange energy change after final integration =     -0.000135814 Eh
Total energy after final integration           =  -1159.835762376 Eh
Final COS-X integration done in                =    11.174 sec

----------------
TOTAL SCF ENERGY
----------------

Total Energy       :        -1159.83576238 Eh          -31560.73561 eV

Components:
Nuclear Repulsion  :         2363.85075088 Eh           64323.64908 eV
Electronic Energy  :        -3523.68651325 Eh          -95884.38469 eV
One Electron Energy:        -6262.60372595 Eh         -170414.11107 eV
Two Electron Energy:         2738.91721270 Eh           74529.72638 eV
Max COSX asymmetry :            0.00000062 Eh               0.00002 eV

Virial components:
Potential Energy   :        -2311.73800865 Eh          -62905.58927 eV
Kinetic Energy     :         1151.90224628 Eh           31344.85366 eV
Virial Ratio       :            2.00688732


DFT components:
N(Alpha)           :      105.000155167146 electrons
N(Beta)            :      104.000147136400 electrons
N(Total)           :      209.000302303546 electrons
E(X)               :     -131.491503892734 Eh       
E(C)               :       -8.161214967337 Eh       
E(XC)              :     -139.652718860071 Eh       
DFET-embed. en.    :        0.000000000000 Eh       

---------------
SCF CONVERGENCE
---------------

  Last Energy change         ...    1.3890e-07  Tolerance :   1.0000e-06
  Last MAX-Density change    ...    6.8537e-06  Tolerance :   1.0000e-05
  Last RMS-Density change    ...    7.0863e-08  Tolerance :   1.0000e-06
  Last DIIS Error            ...    1.3030e-05  Tolerance :   1.0000e-06

             **** THE GBW FILE WAS UPDATED (cc-pVDZ.gbw) ****
             **** DENSITY cc-pVDZ.scfp WAS UPDATED ****
             **** ENERGY FILE WAS UPDATED (cc-pVDZ.en.tmp) ****
----------------------
UHF SPIN CONTAMINATION
----------------------

Warning: in a DFT calculation there is little theoretical justification to 
         calculate <S**2> as in Hartree-Fock theory. We will do it anyways
         but you should keep in mind that the values have only limited relevance

Expectation value of <S**2>     :     0.788636
Ideal value S*(S+1) for S=0.5   :     0.750000
Deviation                       :     0.038636

             **** THE GBW FILE WAS UPDATED (cc-pVDZ.gbw) ****
             **** DENSITY cc-pVDZ.scfp WAS UPDATED ****
----------------
ORBITAL ENERGIES
----------------
                 SPIN UP ORBITALS
  NO   OCC          E(Eh)            E(eV) 
   0   1.0000     -10.215946      -277.9900 
   1   1.0000     -10.214510      -277.9510 
   2   1.0000     -10.212695      -277.9016 
   3   1.0000     -10.210533      -277.8427 
   4   1.0000     -10.200997      -277.5832 
   5   1.0000     -10.196972      -277.4737 
   6   1.0000     -10.196557      -277.4624 
   7   1.0000     -10.196429      -277.4589 
   8   1.0000     -10.195577      -277.4358 
   9   1.0000     -10.195518      -277.4342 
  10   1.0000     -10.195325      -277.4289 
  11   1.0000     -10.195057      -277.4216 
  12   1.0000     -10.194828      -277.4154 
  13   1.0000     -10.194251      -277.3997 
  14   1.0000     -10.193628      -277.3827 
  15   1.0000     -10.193443      -277.3777 
  16   1.0000     -10.193201      -277.3711 
  17   1.0000     -10.191312      -277.3197 
  18   1.0000     -10.188795      -277.2512 
  19   1.0000     -10.188374      -277.2398 
  20   1.0000     -10.187965      -277.2286 
  21   1.0000     -10.187642      -277.2198 
  22   1.0000     -10.186794      -277.1968 
  23   1.0000     -10.186171      -277.1798 
  24   1.0000     -10.185643      -277.1654 
  25   1.0000     -10.183797      -277.1152 
  26   1.0000     -10.181687      -277.0578 
  27   1.0000     -10.181270      -277.0464 
  28   1.0000     -10.177034      -276.9312 
  29   1.0000     -10.175577      -276.8915 
  30   1.0000      -0.872378       -23.7386 
  31   1.0000      -0.862708       -23.4755 
  32   1.0000      -0.861537       -23.4436 
  33   1.0000      -0.819143       -22.2900 
  34   1.0000      -0.798610       -21.7313 
  35   1.0000      -0.796129       -21.6638 
  36   1.0000      -0.781777       -21.2732 
  37   1.0000      -0.772769       -21.0281 
  38   1.0000      -0.765773       -20.8377 
  39   1.0000      -0.750433       -20.4203 
  40   1.0000      -0.749369       -20.3914 
  41   1.0000      -0.737889       -20.0790 
  42   1.0000      -0.726098       -19.7581 
  43   1.0000      -0.709292       -19.3008 
  44   1.0000      -0.696733       -18.9591 
  45   1.0000      -0.656047       -17.8519 
  46   1.0000      -0.645904       -17.5759 
  47   1.0000      -0.623103       -16.9555 
  48   1.0000      -0.613069       -16.6825 
  49   1.0000      -0.608757       -16.5651 
  50   1.0000      -0.608361       -16.5543 
  51   1.0000      -0.607213       -16.5231 
  52   1.0000      -0.590185       -16.0598 
  53   1.0000      -0.579556       -15.7705 
  54   1.0000      -0.560593       -15.2545 
  55   1.0000      -0.540185       -14.6992 
  56   1.0000      -0.534504       -14.5446 
  57   1.0000      -0.506647       -13.7866 
  58   1.0000      -0.503574       -13.7030 
  59   1.0000      -0.479837       -13.0570 
  60   1.0000      -0.478725       -13.0268 
  61   1.0000      -0.474531       -12.9126 
  62   1.0000      -0.470296       -12.7974 
  63   1.0000      -0.461948       -12.5703 
  64   1.0000      -0.457227       -12.4418 
  65   1.0000      -0.455909       -12.4059 
  66   1.0000      -0.436558       -11.8793 
  67   1.0000      -0.434764       -11.8305 
  68   1.0000      -0.430454       -11.7133 
  69   1.0000      -0.428202       -11.6520 
  70   1.0000      -0.425620       -11.5817 
  71   1.0000      -0.423761       -11.5311 
  72   1.0000      -0.422552       -11.4982 
  73   1.0000      -0.421401       -11.4669 
  74   1.0000      -0.411191       -11.1891 
  75   1.0000      -0.397964       -10.8291 
  76   1.0000      -0.397442       -10.8149 
  77   1.0000      -0.383826       -10.4444 
  78   1.0000      -0.381146       -10.3715 
  79   1.0000      -0.377586       -10.2746 
  80   1.0000      -0.374524       -10.1913 
  81   1.0000      -0.364646        -9.9225 
  82   1.0000      -0.361421        -9.8348 
  83   1.0000      -0.359488        -9.7822 
  84   1.0000      -0.355261        -9.6671 
  85   1.0000      -0.353245        -9.6123 
  86   1.0000      -0.349992        -9.5238 
  87   1.0000      -0.348797        -9.4913 
  88   1.0000      -0.339736        -9.2447 
  89   1.0000      -0.332258        -9.0412 
  90   1.0000      -0.331929        -9.0323 
  91   1.0000      -0.330679        -8.9982 
  92   1.0000      -0.327289        -8.9060 
  93   1.0000      -0.323466        -8.8019 
  94   1.0000      -0.321622        -8.7518 
  95   1.0000      -0.305615        -8.3162 
  96   1.0000      -0.278124        -7.5681 
  97   1.0000      -0.271900        -7.3988 
  98   1.0000      -0.267720        -7.2850 
  99   1.0000      -0.266198        -7.2436 
 100   1.0000      -0.258091        -7.0230 
 101   1.0000      -0.257549        -7.0083 
 102   1.0000      -0.235949        -6.4205 
 103   1.0000      -0.208131        -5.6635 
 104   1.0000      -0.169516        -4.6128 
 105   0.0000      -0.063770        -1.7353 
 106   0.0000      -0.026976        -0.7341 
 107   0.0000      -0.009781        -0.2662 
 108   0.0000      -0.008959        -0.2438 
 109   0.0000       0.005713         0.1554 
 110   0.0000       0.019129         0.5205 
 111   0.0000       0.042683         1.1615 
 112   0.0000       0.051460         1.4003 
 113   0.0000       0.054312         1.4779 
 114   0.0000       0.056374         1.5340 
 115   0.0000       0.063320         1.7230 
 116   0.0000       0.064795         1.7632 
 117   0.0000       0.078521         2.1367 
 118   0.0000       0.078918         2.1475 
 119   0.0000       0.080906         2.2016 
 120   0.0000       0.088774         2.4157 
 121   0.0000       0.089928         2.4471 
 122   0.0000       0.096784         2.6336 
 123   0.0000       0.101382         2.7588 
 124   0.0000       0.102672         2.7938 
 125   0.0000       0.104048         2.8313 
 126   0.0000       0.113936         3.1004 
 127   0.0000       0.117868         3.2073 
 128   0.0000       0.121530         3.3070 
 129   0.0000       0.125882         3.4254 
 130   0.0000       0.130544         3.5523 
 131   0.0000       0.134609         3.6629 
 132   0.0000       0.138393         3.7659 
 133   0.0000       0.143646         3.9088 
 134   0.0000       0.145534         3.9602 
 135   0.0000       0.148877         4.0512 
 136   0.0000       0.156310         4.2534 
 137   0.0000       0.157216         4.2781 
 138   0.0000       0.160262         4.3610 
 139   0.0000       0.161509         4.3949 
 140   0.0000       0.163843         4.4584 
 141   0.0000       0.168542         4.5863 
 142   0.0000       0.173437         4.7195 
 143   0.0000       0.174077         4.7369 
 144   0.0000       0.180273         4.9055 
 145   0.0000       0.199890         5.4393 
 146   0.0000       0.204727         5.5709 
 147   0.0000       0.213552         5.8111 
 148   0.0000       0.217896         5.9292 
 149   0.0000       0.219058         5.9609 
 150   0.0000       0.219185         5.9643 
 151   0.0000       0.224591         6.1114 
 152   0.0000       0.226472         6.1626 
 153   0.0000       0.244169         6.6442 
 154   0.0000       0.248300         6.7566 
 155   0.0000       0.268622         7.3096 
 156   0.0000       0.276726         7.5301 
 157   0.0000       0.279633         7.6092 
 158   0.0000       0.280839         7.6420 
 159   0.0000       0.288242         7.8435 
 160   0.0000       0.292356         7.9554 
 161   0.0000       0.292551         7.9607 
 162   0.0000       0.308200         8.3865 
 163   0.0000       0.314149         8.5484 
 164   0.0000       0.314987         8.5712 
 165   0.0000       0.322059         8.7637 
 166   0.0000       0.331918         9.0319 
 167   0.0000       0.343687         9.3522 
 168   0.0000       0.362111         9.8536 
 169   0.0000       0.364635         9.9222 
 170   0.0000       0.372865        10.1462 
 171   0.0000       0.382071        10.3967 
 172   0.0000       0.396399        10.7866 
 173   0.0000       0.409131        11.1330 
 174   0.0000       0.412078        11.2132 
 175   0.0000       0.413556        11.2534 
 176   0.0000       0.419364        11.4115 
 177   0.0000       0.420109        11.4317 
 178   0.0000       0.429051        11.6751 
 179   0.0000       0.435139        11.8407 
 180   0.0000       0.440583        11.9889 
 181   0.0000       0.441952        12.0261 
 182   0.0000       0.446150        12.1404 
 183   0.0000       0.451208        12.2780 
 184   0.0000       0.452619        12.3164 
 185   0.0000       0.455023        12.3818 
 186   0.0000       0.461541        12.5592 
 187   0.0000       0.470276        12.7969 
 188   0.0000       0.473387        12.8815 
 189   0.0000       0.474747        12.9185 
 190   0.0000       0.475831        12.9480 
 191   0.0000       0.476384        12.9631 
 192   0.0000       0.478787        13.0285 
 193   0.0000       0.484368        13.1803 
 194   0.0000       0.490014        13.3339 
 195   0.0000       0.499403        13.5895 
 196   0.0000       0.499818        13.6007 
 197   0.0000       0.504146        13.7185 
 198   0.0000       0.507571        13.8117 
 199   0.0000       0.508484        13.8365 
 200   0.0000       0.509530        13.8650 
 201   0.0000       0.509873        13.8744 
 202   0.0000       0.512986        13.9591 
 203   0.0000       0.514648        14.0043 
 204   0.0000       0.516484        14.0542 
 205   0.0000       0.516593        14.0572 
 206   0.0000       0.517403        14.0792 
 207   0.0000       0.517493        14.0817 
 208   0.0000       0.521747        14.1975 
 209   0.0000       0.524786        14.2802 
 210   0.0000       0.528516        14.3817 
 211   0.0000       0.540386        14.7047 
 212   0.0000       0.549631        14.9562 
 213   0.0000       0.557211        15.1625 
 214   0.0000       0.561310        15.2740 
 215   0.0000       0.572225        15.5710 
 216   0.0000       0.580556        15.7977 
 217   0.0000       0.580864        15.8061 
 218   0.0000       0.586170        15.9505 
 219   0.0000       0.588800        16.0221 
 220   0.0000       0.592499        16.1227 
 221   0.0000       0.593919        16.1613 
 222   0.0000       0.601014        16.3544 
 223   0.0000       0.605296        16.4709 
 224   0.0000       0.610622        16.6159 
 225   0.0000       0.619246        16.8506 
 226   0.0000       0.621946        16.9240 
 227   0.0000       0.627432        17.0733 
 228   0.0000       0.632074        17.1996 
 229   0.0000       0.634123        17.2554 
 230   0.0000       0.638384        17.3713 
 231   0.0000       0.639520        17.4022 
 232   0.0000       0.639846        17.4111 
 233   0.0000       0.642477        17.4827 
 234   0.0000       0.645478        17.5643 
 235   0.0000       0.646040        17.5796 
 236   0.0000       0.651228        17.7208 
 237   0.0000       0.655929        17.8487 
 238   0.0000       0.659985        17.9591 
 239   0.0000       0.662193        18.0192 
 240   0.0000       0.663017        18.0416 
 241   0.0000       0.663176        18.0459 
 242   0.0000       0.666606        18.1393 
 243   0.0000       0.669353        18.2140 
 244   0.0000       0.672246        18.2927 
 245   0.0000       0.675730        18.3876 
 246   0.0000       0.678961        18.4755 
 247   0.0000       0.682498        18.5717 
 248   0.0000       0.684021        18.6131 
 249   0.0000       0.686938        18.6925 
 250   0.0000       0.687547        18.7091 
 251   0.0000       0.688473        18.7343 
 252   0.0000       0.691232        18.8094 
 253   0.0000       0.695742        18.9321 
 254   0.0000       0.700934        19.0734 
 255   0.0000       0.705544        19.1988 
 256   0.0000       0.711348        19.3568 
 257   0.0000       0.717172        19.5152 
 258   0.0000       0.719774        19.5861 
 259   0.0000       0.720990        19.6191 
 260   0.0000       0.725720        19.7479 
 261   0.0000       0.735446        20.0125 
 262   0.0000       0.737442        20.0668 
 263   0.0000       0.744833        20.2679 
 264   0.0000       0.744965        20.2715 
 265   0.0000       0.764343        20.7988 
 266   0.0000       0.766559        20.8591 
 267   0.0000       0.766989        20.8708 
 268   0.0000       0.780738        21.2450 
 269   0.0000       0.786966        21.4144 
 270   0.0000       0.792457        21.5638 
 271   0.0000       0.797790        21.7090 
 272   0.0000       0.813519        22.1370 
 273   0.0000       0.815231        22.1836 
 274   0.0000       0.831522        22.6269 
 275   0.0000       0.834412        22.7055 
 276   0.0000       0.846997        23.0480 
 277   0.0000       0.852821        23.2064 
 278   0.0000       0.862780        23.4774 
 279   0.0000       0.865604        23.5543 
 280   0.0000       0.867703        23.6114 
 281   0.0000       0.881842        23.9961 
 282   0.0000       0.885355        24.0917 
 283   0.0000       0.900896        24.5146 
 284   0.0000       0.902031        24.5455 
 285   0.0000       0.908235        24.7143 
 286   0.0000       0.908873        24.7317 
 287   0.0000       0.913683        24.8626 
 288   0.0000       0.914401        24.8821 
 289   0.0000       0.922730        25.1088 
 290   0.0000       0.934084        25.4177 
 291   0.0000       0.937086        25.4994 
 292   0.0000       0.948235        25.8028 
 293   0.0000       0.952254        25.9121 
 294   0.0000       0.959190        26.1009 
 295   0.0000       0.964191        26.2370 
 296   0.0000       0.975015        26.5315 
 297   0.0000       0.977241        26.5921 
 298   0.0000       0.979164        26.6444 
 299   0.0000       0.986561        26.8457 
 300   0.0000       0.993160        27.0253 
 301   0.0000       0.994847        27.0712 
 302   0.0000       1.001282        27.2463 
 303   0.0000       1.003176        27.2978 
 304   0.0000       1.003246        27.2997 
 305   0.0000       1.011508        27.5245 
 306   0.0000       1.021665        27.8009 
 307   0.0000       1.024823        27.8868 
 308   0.0000       1.028362        27.9832 
 309   0.0000       1.032840        28.1050 
 310   0.0000       1.036371        28.2011 
 311   0.0000       1.044093        28.4112 
 312   0.0000       1.046865        28.4866 
 313   0.0000       1.048688        28.5363 
 314   0.0000       1.052673        28.6447 
 315   0.0000       1.059173        28.8216 
 316   0.0000       1.060270        28.8514 
 317   0.0000       1.071096        29.1460 
 318   0.0000       1.091999        29.7148 
 319   0.0000       1.094161        29.7736 
 320   0.0000       1.111436        30.2437 
 321   0.0000       1.112341        30.2683 
 322   0.0000       1.119365        30.4595 
 323   0.0000       1.123749        30.5788 
 324   0.0000       1.136724        30.9318 
 325   0.0000       1.146326        31.1931 
 326   0.0000       1.155574        31.4448 
 327   0.0000       1.170951        31.8632 
 328   0.0000       1.182162        32.1683 
 329   0.0000       1.188966        32.3534 
 330   0.0000       1.199544        32.6413 
 331   0.0000       1.207200        32.8496 
 332   0.0000       1.210269        32.9331 
 333   0.0000       1.214088        33.0370 
 334   0.0000       1.218287        33.1513 
 335   0.0000       1.221043        33.2263 
 336   0.0000       1.226647        33.3788 
 337   0.0000       1.229486        33.4560 
 338   0.0000       1.233439        33.5636 
 339   0.0000       1.253788        34.1173 
 340   0.0000       1.277493        34.7624 
 341   0.0000       1.279993        34.8304 
 342   0.0000       1.294578        35.2273 
 343   0.0000       1.299835        35.3703 
 344   0.0000       1.303190        35.4616 
 345   0.0000       1.314732        35.7757 
 346   0.0000       1.317984        35.8642 
 347   0.0000       1.329025        36.1646 
 348   0.0000       1.337897        36.4060 
 349   0.0000       1.358423        36.9646 
 350   0.0000       1.369384        37.2628 
 351   0.0000       1.380528        37.5661 
 352   0.0000       1.386785        37.7363 
 353   0.0000       1.387710        37.7615 
 354   0.0000       1.390463        37.8364 
 355   0.0000       1.403650        38.1952 
 356   0.0000       1.415687        38.5228 
 357   0.0000       1.416825        38.5538 
 358   0.0000       1.423985        38.7486 
 359   0.0000       1.425451        38.7885 
 360   0.0000       1.426675        38.8218 
 361   0.0000       1.440819        39.2067 
 362   0.0000       1.452697        39.5299 
 363   0.0000       1.459963        39.7276 
 364   0.0000       1.463946        39.8360 
 365   0.0000       1.476475        40.1769 
 366   0.0000       1.478390        40.2290 
 367   0.0000       1.480965        40.2991 
 368   0.0000       1.481938        40.3256 
 369   0.0000       1.483666        40.3726 
 370   0.0000       1.486358        40.4459 
 371   0.0000       1.494835        40.6765 
 372   0.0000       1.496277        40.7158 
 373   0.0000       1.498006        40.7628 
 374   0.0000       1.509901        41.0865 
 375   0.0000       1.513052        41.1722 
 376   0.0000       1.526255        41.5315 
 377   0.0000       1.533663        41.7331 
 378   0.0000       1.534401        41.7532 
 379   0.0000       1.544825        42.0368 
 380   0.0000       1.566527        42.6274 
 381   0.0000       1.571735        42.7691 
 382   0.0000       1.581490        43.0345 
 383   0.0000       1.585609        43.1466 
 384   0.0000       1.593675        43.3661 
 385   0.0000       1.598540        43.4985 
 386   0.0000       1.599158        43.5153 
 387   0.0000       1.599265        43.5182 
 388   0.0000       1.602657        43.6105 
 389   0.0000       1.607957        43.7547 
 390   0.0000       1.613887        43.9161 
 391   0.0000       1.616682        43.9921 
 392   0.0000       1.617635        44.0181 
 393   0.0000       1.624194        44.1966 
 394   0.0000       1.626972        44.2722 
 395   0.0000       1.628122        44.3034 
 396   0.0000       1.631538        44.3964 
 397   0.0000       1.638381        44.5826 
 398   0.0000       1.639140        44.6033 
 399   0.0000       1.640235        44.6331 
 400   0.0000       1.643797        44.7300 
 401   0.0000       1.646912        44.8148 
 402   0.0000       1.648324        44.8532 
 403   0.0000       1.652257        44.9602 
 404   0.0000       1.654346        45.0170 
 405   0.0000       1.661172        45.2028 
 406   0.0000       1.670936        45.4685 
 407   0.0000       1.671327        45.4791 
 408   0.0000       1.675365        45.5890 
 409   0.0000       1.681718        45.7619 
 410   0.0000       1.683813        45.8189 
 411   0.0000       1.684679        45.8424 
 412   0.0000       1.688416        45.9441 
 413   0.0000       1.690050        45.9886 
 414   0.0000       1.693565        46.0842 
 415   0.0000       1.697796        46.1994 
 416   0.0000       1.701412        46.2978 
 417   0.0000       1.705412        46.4066 
 418   0.0000       1.708074        46.4791 
 419   0.0000       1.712871        46.6096 
 420   0.0000       1.717999        46.7491 
 421   0.0000       1.723390        46.8958 
 422   0.0000       1.727388        47.0046 
 423   0.0000       1.737250        47.2730 
 424   0.0000       1.737617        47.2830 
 425   0.0000       1.742872        47.4259 
 426   0.0000       1.745325        47.4927 
 427   0.0000       1.754756        47.7493 
 428   0.0000       1.764928        48.0261 
 429   0.0000       1.771217        48.1973 
 430   0.0000       1.773877        48.2696 
 431   0.0000       1.774139        48.2768 
 432   0.0000       1.782420        48.5021 
 433   0.0000       1.785819        48.5946 
 434   0.0000       1.789152        48.6853 
 435   0.0000       1.790617        48.7252 
 436   0.0000       1.799188        48.9584 
 437   0.0000       1.800719        49.0001 
 438   0.0000       1.804497        49.1028 
 439   0.0000       1.806074        49.1458 
 440   0.0000       1.811537        49.2944 
 441   0.0000       1.827834        49.7379 
 442   0.0000       1.831740        49.8442 
 443   0.0000       1.832469        49.8640 
 444   0.0000       1.838892        50.0388 
 445   0.0000       1.841143        50.1001 
 446   0.0000       1.841372        50.1063 
 447   0.0000       1.845364        50.2149 
 448   0.0000       1.850112        50.3441 
 449   0.0000       1.851590        50.3843 
 450   0.0000       1.853295        50.4307 
 451   0.0000       1.854415        50.4612 
 452   0.0000       1.856271        50.5117 
 453   0.0000       1.864787        50.7434 
 454   0.0000       1.879171        51.1348 
 455   0.0000       1.895406        51.5766 
 456   0.0000       1.902626        51.7731 
 457   0.0000       1.907440        51.9041 
 458   0.0000       1.911533        52.0155 
 459   0.0000       1.923255        52.3344 
 460   0.0000       1.926845        52.4321 
 461   0.0000       1.933024        52.6003 
 462   0.0000       1.938571        52.7512 
 463   0.0000       1.959548        53.3220 
 464   0.0000       1.963762        53.4367 
 465   0.0000       1.966406        53.5086 
 466   0.0000       1.973310        53.6965 
 467   0.0000       1.974357        53.7250 
 468   0.0000       1.975528        53.7569 
 469   0.0000       1.986399        54.0527 
 470   0.0000       1.988972        54.1227 
 471   0.0000       1.991227        54.1841 
 472   0.0000       1.994311        54.2680 
 473   0.0000       1.996250        54.3207 
 474   0.0000       2.014785        54.8251 
 475   0.0000       2.031493        55.2797 
 476   0.0000       2.044693        55.6389 
 477   0.0000       2.055552        55.9344 
 478   0.0000       2.074979        56.4630 
 479   0.0000       2.075587        56.4796 
 480   0.0000       2.082226        56.6602 
 481   0.0000       2.084252        56.7154 
 482   0.0000       2.108988        57.3885 
 483   0.0000       2.114402        57.5358 
 484   0.0000       2.132317        58.0233 
 485   0.0000       2.151061        58.5333 
 486   0.0000       2.155798        58.6622 
 487   0.0000       2.160543        58.7914 
 488   0.0000       2.171758        59.0965 
 489   0.0000       2.188477        59.5515 
 490   0.0000       2.189169        59.5703 
 491   0.0000       2.196604        59.7726 
 492   0.0000       2.199205        59.8434 
 493   0.0000       2.204880        59.9978 
 494   0.0000       2.210269        60.1445 
 495   0.0000       2.219460        60.3946 
 496   0.0000       2.229546        60.6690 
 497   0.0000       2.237858        60.8952 
 498   0.0000       2.241071        60.9826 
 499   0.0000       2.249219        61.2044 
 500   0.0000       2.254255        61.3414 
 501   0.0000       2.277481        61.9734 
 502   0.0000       2.284860        62.1742 
 503   0.0000       2.302517        62.6547 
 504   0.0000       2.305572        62.7378 
 505   0.0000       2.306592        62.7656 
 506   0.0000       2.322681        63.2034 
 507   0.0000       2.337256        63.6000 
 508   0.0000       2.350982        63.9735 
 509   0.0000       2.361103        64.2489 
 510   0.0000       2.366078        64.3843 
 511   0.0000       2.371326        64.5271 
 512   0.0000       2.385623        64.9161 
 513   0.0000       2.408566        65.5404 
 514   0.0000       2.411406        65.6177 
 515   0.0000       2.412370        65.6439 
 516   0.0000       2.415514        65.7295 
 517   0.0000       2.416487        65.7560 
 518   0.0000       2.417306        65.7782 
 519   0.0000       2.417895        65.7943 
 520   0.0000       2.420711        65.8709 
 521   0.0000       2.423222        65.9392 
 522   0.0000       2.432347        66.1875 
 523   0.0000       2.445639        66.5492 
 524   0.0000       2.450382        66.6783 
 525   0.0000       2.462357        67.0041 
 526   0.0000       2.483771        67.5869 
 527   0.0000       2.497153        67.9510 
 528   0.0000       2.513844        68.4052 
 529   0.0000       2.530553        68.8599 
 530   0.0000       2.543028        69.1993 
 531   0.0000       2.552699        69.4625 
 532   0.0000       2.557368        69.5895 
 533   0.0000       2.576791        70.1180 
 534   0.0000       2.596046        70.6420 
 535   0.0000       2.604275        70.8659 
 536   0.0000       2.617384        71.2226 
 537   0.0000       2.620718        71.3134 
 538   0.0000       2.630658        71.5839 
 539   0.0000       2.642718        71.9120 
 540   0.0000       2.654094        72.2216 
 541   0.0000       2.661839        72.4323 
 542   0.0000       2.681296        72.9618 
 543   0.0000       2.694498        73.3210 
 544   0.0000       2.714056        73.8532 
 545   0.0000       2.716447        73.9183 
 546   0.0000       2.719314        73.9963 
 547   0.0000       2.724071        74.1257 
 548   0.0000       2.727776        74.2266 
 549   0.0000       2.740635        74.5765 
 550   0.0000       2.773423        75.4687 
 551   0.0000       2.794326        76.0375 
 552   0.0000       2.833143        77.0937 
 553   0.0000       2.851522        77.5939 
 554   0.0000       2.870609        78.1132 
 555   0.0000       2.879512        78.3555 
 556   0.0000       2.883028        78.4512 
 557   0.0000       2.946730        80.1846 
 558   0.0000       3.063708        83.3677 
 559   0.0000       3.079613        83.8005 
 560   0.0000       3.098479        84.3139 
 561   0.0000       3.130973        85.1981 
 562   0.0000       3.393700        92.3473 
 563   0.0000       3.584334        97.5347 
 564   0.0000       3.585531        97.5673 

                 SPIN DOWN ORBITALS
  NO   OCC          E(Eh)            E(eV) 
   0   1.0000     -10.215788      -277.9857 
   1   1.0000     -10.214864      -277.9606 
[...]

 -----------------------------------------------------------
 Nucleus  56H : A:ISTP=    1 I=  0.5 P=533.5514 MHz/au**3
                Q:ISTP=    2 I=  1.0 Q=  0.0029 barn     
 -----------------------------------------------------------
 Solving for nuclear perturbation:
Forming RHS of the CP-SCF equations         ... 
Calc. nucleus orbit integrals (SHARK)       ... done

------------------------------------------------------------------------------
                           ORCA CP-SCF CALCULATION
------------------------------------------------------------------------------

Input orbitals are from        ... cc-pVDZ.gbw
Input Perturbation             ... cc-pVDZ.pin.tmp
Wavefunction output            ... cc-pVDZ.pout.tmp
Perturbation mode              ... Imaginary perturbation
Solver                         ... POPLE
Max. number of iterations      ... 64
Convergence tolerance          ... 1.000e-03
Integral handling              ... Direct
DFT GridXC                     ... 1
COSX GridX                     ... 1
COSX IntAccX                   ... 3.067
COSX Algorithm                 ... Auto
Number of perturbations        ... 3
Number of operators            ... 2
Orbital ranges used for CP-SCF:
 Operator 0:  Orbitals   0...104  to 105...564
 Operator 1:  Orbitals   0...103  to 104...564
Variables per perturbation     ... 96244
DFT calculation                         ... on
XC functional terms                     ... off
Hybrid DFT                              ... on
   Exchange mixing (SCF)                ...  0.200
   Exchange mixing (CP-SCF)             ...  0.200
   GGA exch. scaling(SCF)               ...  0.720
   GGA exch. scaling (CP-SCF)           ...  0.720
   GGA corr. scaling (SCF)              ...  0.810
   GGA corr. scaling (CP-SCF)           ...  0.810

CP-SCF GRID
-----------

General Integration Accuracy     IntAcc      ... 3.467
Radial Grid Type                 RadialGrid  ... OptM3 with GC (2021)
Angular Grid (max. ang.)         AngularGrid ... 1 (Lebedev-50)
Angular grid pruning method      GridPruning ... 4 (adaptive)
Weight generation scheme         WeightScheme... Becke
Basis function cutoff            BFCut       ... 1.0000e-10
Integration weight cutoff        WCut        ... 1.0000e-14
Angular grids for H and He will be reduced by one unit
Partially contracted basis set               ... off
Rotationally invariant grid construction     ... off

Total number of grid points                  ...    38985
Total number of batches                      ...      633
Average number of points per batch           ...       61
Average number of grid points per atom       ...      661

CP-SCF GRIDX
------------

General Integration Accuracy     IntAcc      ... 3.067
Radial Grid Type                 RadialGrid  ... OptM3 with GC (2021)
Angular Grid (max. ang.)         AngularGrid ... 1 (Lebedev-50)
Angular grid pruning method      GridPruning ... 4 (adaptive)
Weight generation scheme         WeightScheme... Becke
Basis function cutoff            BFCut       ... 1.0000e-10
Integration weight cutoff        WCut        ... 1.0000e-14
Angular grids for H and He will be reduced by one unit
Partially contracted basis set               ... on
Rotationally invariant grid construction     ... off

Total number of grid points                  ...    18241
Total number of batches                      ...      321
Average number of points per batch           ...       56
Average number of grid points per atom       ...      309

Memory available               ... 840.1 MB
Memory needed per perturbation ...  20.1 MB
Perturbations treated per batch... 3
Number of batches              ... 1
     CP-SCF ITERATION   0:   4.5868e-02 (   2.6 sec   0/  3 done)
     CP-SCF ITERATION   1:   2.0781e-03 (   2.7 sec   0/  3 done)
     CP-SCF ITERATION   2:   1.4369e-04 (   2.8 sec   3/  3 done)
                    *** THE CP-SCF HAS CONVERGED ***

Forming final perturbed densities           ... done
Transforming perturbed density to AO basis  ... done

 Raw HFC matrix (all values in MHz): 
 -----------------------------------
                -1.0784               0.5755              -0.0019
                 0.5753              -1.4684              -0.0019
                -0.0019              -0.0019              -2.5479

 A(FC)          -1.6986              -1.6986              -1.6986
 A(SD)           1.0322              -0.1831              -0.8491
 A(ORB+DIA)      0.0006               0.0008              -0.0002    A(PC) =   0.0004
 A(ORB)          0.0005               0.0006               0.0000    A(PC) =   0.0004
 A(DIA)          0.0001               0.0001              -0.0002    A(PC) =   0.0000
             ----------           ----------           ----------
 A(Tot)         -0.6658              -1.8809              -2.5479    A(iso)=   -1.6982
 Orientation: 
  X           0.8126901            0.5826956           -0.0007478
  Y           0.5826943           -0.8126902           -0.0014007
  Z          -0.0014239            0.0007026           -0.9999987

Notes:  (1) The A matrix conforms to the "SAI" spin Hamiltonian convention.
        (2) Tensor is right-handed.

 -----------------------------------------------------------
 Nucleus  57H : A:ISTP=    1 I=  0.5 P=533.5514 MHz/au**3
                Q:ISTP=    2 I=  1.0 Q=  0.0029 barn     
 -----------------------------------------------------------
 Solving for nuclear perturbation:
Forming RHS of the CP-SCF equations         ... 
Calc. nucleus orbit integrals (SHARK)       ... done

------------------------------------------------------------------------------
                           ORCA CP-SCF CALCULATION
------------------------------------------------------------------------------

Input orbitals are from        ... cc-pVDZ.gbw
Input Perturbation             ... cc-pVDZ.pin.tmp
Wavefunction output            ... cc-pVDZ.pout.tmp
Perturbation mode              ... Imaginary perturbation
Solver                         ... POPLE
Max. number of iterations      ... 64
Convergence tolerance          ... 1.000e-03
Integral handling              ... Direct
DFT GridXC                     ... 1
COSX GridX                     ... 1
COSX IntAccX                   ... 3.067
COSX Algorithm                 ... Auto
Number of perturbations        ... 3
Number of operators            ... 2
Orbital ranges used for CP-SCF:
 Operator 0:  Orbitals   0...104  to 105...564
 Operator 1:  Orbitals   0...103  to 104...564
Variables per perturbation     ... 96244
DFT calculation                         ... on
XC functional terms                     ... off
Hybrid DFT                              ... on
   Exchange mixing (SCF)                ...  0.200
   Exchange mixing (CP-SCF)             ...  0.200
   GGA exch. scaling(SCF)               ...  0.720
   GGA exch. scaling (CP-SCF)           ...  0.720
   GGA corr. scaling (SCF)              ...  0.810
   GGA corr. scaling (CP-SCF)           ...  0.810

CP-SCF GRID
-----------

General Integration Accuracy     IntAcc      ... 3.467
Radial Grid Type                 RadialGrid  ... OptM3 with GC (2021)
Angular Grid (max. ang.)         AngularGrid ... 1 (Lebedev-50)
Angular grid pruning method      GridPruning ... 4 (adaptive)
Weight generation scheme         WeightScheme... Becke
Basis function cutoff            BFCut       ... 1.0000e-10
Integration weight cutoff        WCut        ... 1.0000e-14
Angular grids for H and He will be reduced by one unit
Partially contracted basis set               ... off
Rotationally invariant grid construction     ... off

Total number of grid points                  ...    38985
Total number of batches                      ...      633
Average number of points per batch           ...       61
Average number of grid points per atom       ...      661

CP-SCF GRIDX
------------

General Integration Accuracy     IntAcc      ... 3.067
Radial Grid Type                 RadialGrid  ... OptM3 with GC (2021)
Angular Grid (max. ang.)         AngularGrid ... 1 (Lebedev-50)
Angular grid pruning method      GridPruning ... 4 (adaptive)
Weight generation scheme         WeightScheme... Becke
Basis function cutoff            BFCut       ... 1.0000e-10
Integration weight cutoff        WCut        ... 1.0000e-14
Angular grids for H and He will be reduced by one unit
Partially contracted basis set               ... on
Rotationally invariant grid construction     ... off

Total number of grid points                  ...    18241
Total number of batches                      ...      321
Average number of points per batch           ...       56
Average number of grid points per atom       ...      309

Memory available               ... 839.5 MB
Memory needed per perturbation ...  20.1 MB
Perturbations treated per batch... 3
Number of batches              ... 1
     CP-SCF ITERATION   0:   4.5753e-02 (   2.7 sec   0/  3 done)
     CP-SCF ITERATION   1:   1.9712e-03 (   2.9 sec   0/  3 done)
     CP-SCF ITERATION   2:   1.3616e-04 (   2.8 sec   3/  3 done)
                    *** THE CP-SCF HAS CONVERGED ***

Forming final perturbed densities           ... done
Transforming perturbed density to AO basis  ... done

 Raw HFC matrix (all values in MHz): 
 -----------------------------------
                -1.8585              -0.2512               0.0001
                -0.2507              -0.9872              -0.0022
                 0.0001              -0.0022              -2.2413

 A(FC)          -1.6960              -1.6960              -1.6960
 A(SD)           0.7758              -0.2305              -0.5452
 A(ORB+DIA)      0.0002               0.0009              -0.0001    A(PC) =   0.0003
 A(ORB)          0.0000               0.0008               0.0000    A(PC) =   0.0003
 A(DIA)          0.0001               0.0001              -0.0001    A(PC) =   0.0001
             ----------           ----------           ----------
 A(Tot)         -0.9200              -1.9256              -2.2413    A(iso)=   -1.6956
 Orientation: 
  X          -0.2585739            0.9659908           -0.0011362
  Y           0.9659901            0.2585714           -0.0019897
  Z          -0.0016283           -0.0016120           -0.9999974

Notes:  (1) The A matrix conforms to the "SAI" spin Hamiltonian convention.
        (2) Tensor is right-handed.

 -----------------------------------------------------------
 Nucleus  58H : A:ISTP=    1 I=  0.5 P=533.5514 MHz/au**3
                Q:ISTP=    2 I=  1.0 Q=  0.0029 barn     
 -----------------------------------------------------------
 Solving for nuclear perturbation:
Forming RHS of the CP-SCF equations         ... 
Calc. nucleus orbit integrals (SHARK)       ... done

------------------------------------------------------------------------------
                           ORCA CP-SCF CALCULATION
------------------------------------------------------------------------------

Input orbitals are from        ... cc-pVDZ.gbw
Input Perturbation             ... cc-pVDZ.pin.tmp
Wavefunction output            ... cc-pVDZ.pout.tmp
Perturbation mode              ... Imaginary perturbation
Solver                         ... POPLE
Max. number of iterations      ... 64
Convergence tolerance          ... 1.000e-03
Integral handling              ... Direct
DFT GridXC                     ... 1
COSX GridX                     ... 1
COSX IntAccX                   ... 3.067
COSX Algorithm                 ... Auto
Number of perturbations        ... 3
Number of operators            ... 2
Orbital ranges used for CP-SCF:
 Operator 0:  Orbitals   0...104  to 105...564
 Operator 1:  Orbitals   0...103  to 104...564
Variables per perturbation     ... 96244
DFT calculation                         ... on
XC functional terms                     ... off
Hybrid DFT                              ... on
   Exchange mixing (SCF)                ...  0.200
   Exchange mixing (CP-SCF)             ...  0.200
   GGA exch. scaling(SCF)               ...  0.720
   GGA exch. scaling (CP-SCF)           ...  0.720
   GGA corr. scaling (SCF)              ...  0.810
   GGA corr. scaling (CP-SCF)           ...  0.810

CP-SCF GRID
-----------

General Integration Accuracy     IntAcc      ... 3.467
Radial Grid Type                 RadialGrid  ... OptM3 with GC (2021)
Angular Grid (max. ang.)         AngularGrid ... 1 (Lebedev-50)
Angular grid pruning method      GridPruning ... 4 (adaptive)
Weight generation scheme         WeightScheme... Becke
Basis function cutoff            BFCut       ... 1.0000e-10
Integration weight cutoff        WCut        ... 1.0000e-14
Angular grids for H and He will be reduced by one unit
Partially contracted basis set               ... off
Rotationally invariant grid construction     ... off

Total number of grid points                  ...    38985
Total number of batches                      ...      633
Average number of points per batch           ...       61
Average number of grid points per atom       ...      661

CP-SCF GRIDX
------------

General Integration Accuracy     IntAcc      ... 3.067
Radial Grid Type                 RadialGrid  ... OptM3 with GC (2021)
Angular Grid (max. ang.)         AngularGrid ... 1 (Lebedev-50)
Angular grid pruning method      GridPruning ... 4 (adaptive)
Weight generation scheme         WeightScheme... Becke
Basis function cutoff            BFCut       ... 1.0000e-10
Integration weight cutoff        WCut        ... 1.0000e-14
Angular grids for H and He will be reduced by one unit
Partially contracted basis set               ... on
Rotationally invariant grid construction     ... off

Total number of grid points                  ...    18241
Total number of batches                      ...      321
Average number of points per batch           ...       56
Average number of grid points per atom       ...      309

Memory available               ... 838.8 MB
Memory needed per perturbation ...  20.1 MB
Perturbations treated per batch... 3
Number of batches              ... 1
     CP-SCF ITERATION   0:   4.1661e-02 (   2.7 sec   0/  3 done)
     CP-SCF ITERATION   1:   1.7141e-03 (   2.7 sec   2/  3 done)
     CP-SCF ITERATION   2:   9.1196e-05 (   1.8 sec   3/  3 done)
                    *** THE CP-SCF HAS CONVERGED ***

Forming final perturbed densities           ... done
Transforming perturbed density to AO basis  ... done

 Raw HFC matrix (all values in MHz): 
 -----------------------------------
                 1.3504               0.2782              -0.0005
                 0.2782               0.5414              -0.0002
                -0.0005              -0.0002               0.3352

 A(FC)           0.7424               0.7424               0.7424
 A(SD)          -0.4071              -0.2875               0.6946
 A(ORB+DIA)     -0.0000               0.0001              -0.0002    A(PC) =  -0.0000
 A(ORB)         -0.0000               0.0001              -0.0002    A(PC) =  -0.0000
 A(DIA)          0.0000              -0.0000               0.0000    A(PC) =   0.0000
             ----------           ----------           ----------
 A(Tot)          0.3352               0.4550               1.4368    A(iso)=    0.7423
 Orientation: 
  X           0.0003257           -0.2967395           -0.9549584
  Y           0.0004726            0.9549584           -0.2967393
  Z           0.9999998           -0.0003547            0.0004513

Notes:  (1) The A matrix conforms to the "SAI" spin Hamiltonian convention.
        (2) Tensor is right-handed.


--------------------------------------------------------------------------------
----------------------------------------------------------------------------
                           ORCA EULER ANGLE PROGRAM
----------------------------------------------------------------------------

Only g-tensor available        -->  using g-tensor as reference tensor

Reference tensor               ...  g

g-tensor ordering              ...  |g_min> --> |gx>
                                    |g_mid> --> |gy>
                                    |g_max> --> |gz>

A- and EFG-tensor ordering     ...  the axes |Ax>, |Qx>, |Ay>, etc. are assigned
                                    such that the Euler rotation is minimal. You
                                    can find the respective eigenvalues as Ax,
                                    EFGx, Ay, etc. in the tables below.
                                    The relation of |Ax>, |Ay>,  etc. to Amin, Amid, etc.
                                    (as printed in the ORCA EPR/NMR CALCULATION Output)
                                    is obtained in the detailed printout.

Euler rotation around          ...  z - y - z
   First rotation              -->  by alpha around z
   Second rotation             -->  by beta around y'
   Third rotation              -->  by gamma around z''
   Positive / Negative angle   -->  clockwise / counterclockwise rotation

Plot EFG-tensors                    (-)
Plot HFC-tensors                    (-)
Detailed Printout                   (-)

-------------------------------------------------------------------------
          Euler rotation of hyperfine tensor to g-tensor
-------------------------------------------------------------------------

-------------------------------------------------------------------
 Atom  |   Alpha    Beta    Gamma   |   Ax       Ay       Az 
       |          [degrees]         |           [MHz]         
-------------------------------------------------------------------
  9H       91.3      2.6    -91.4     -16.11    -7.05   -19.67
 10H       89.9      5.6    -89.9       4.04     4.66     9.41
 12H       89.9     42.8    -90.0     -45.75   -70.53   -17.13
 14H       13.4     11.9      4.4      56.44    65.91    57.72
 15H      166.7     11.3    175.7      56.03    65.50    57.32
 17H      -30.2     29.3     59.4      -3.15    -2.98     3.14
 18H     -149.5     29.0    120.1      -3.14    -2.98     3.13
 20H      130.6     46.5   -153.3      -0.10     2.22     0.03
 21H       49.0     47.1    -26.3      -0.10     2.22     0.03
 23H      148.1     17.5    170.7      19.85    20.41    23.48
 24H       31.9     17.5      9.4      19.88    20.44    23.51
 26H       82.4     28.9    -95.4      -0.96     0.96    -0.83
 27H       97.6     28.8    -84.3      -0.96     0.96    -0.84
 29H      -69.9     30.8    107.0      -0.10    -0.15     0.79
 30H     -110.1     30.8     73.0      -0.10    -0.15     0.79
 32H       95.2     42.2    -87.1      -0.13     0.38    -0.10
 33H       84.7     42.2    -92.8      -0.13     0.37    -0.10
 35H      -91.7     39.7     89.8      -0.78    -0.80     0.75
 36H      -89.5     38.0     90.0      -0.13    -0.13     0.24
 43H       90.1     44.5    -90.0       0.67     1.13     0.40
 44H       90.7      2.2    -90.6      -0.29    -0.46    -0.13
 45H      -90.0     34.9     90.1       0.53     1.43     0.10
 46H       90.1     21.7    -90.1       0.58     0.12     1.37
 47H      -90.3     19.1     90.4      -0.30    -0.16    -0.42
 54H      -90.1     43.3     90.1      -1.99    -0.50    -3.07
 55H       90.1     37.0    -90.0       0.39     0.62     1.21
 56H      -90.4     13.3     90.4      -2.55    -0.67    -1.88
 57H      -90.1     34.0     90.1      -2.24    -1.93    -0.92
 58H      -90.2     31.7     90.2       0.34     1.44     0.45
-------------------------------------------------------------------


Maximum memory used throughout the entire EPRNMR-calculation: 284.0 MB

Timings for individual modules:

Sum of individual times         ...    10329.002 sec (= 172.150 min)
GTO integral calculation        ...        6.259 sec (=   0.104 min)   0.1 %
Spin-Orbit-Coupling Matrices    ...       13.211 sec (=   0.220 min)   0.1 %
SCF iterations                  ...       39.046 sec (=   0.651 min)   0.4 %
EPR/NMR calculation             ...    10270.486 sec (= 171.175 min)  99.4 %
                             ****ORCA TERMINATED NORMALLY****
TOTAL RUN TIME: 0 days 2 hours 52 minutes 13 seconds 601 msec
