
                                 *****************
                                 * O   R   C   A *
                                 *****************

                                            #,                                       
                                            ###                                      
                                            ####                                     
                                            #####                                    
                                            ######                                   
                                           ########,                                 
                                     ,,################,,,,,                         
                               ,,#################################,,                 
                          ,,##########################################,,             
                       ,#########################################, ''#####,          
                    ,#############################################,,   '####,        
                  ,##################################################,,,,####,       
                ,###########''''           ''''###############################       
              ,#####''   ,,,,##########,,,,          '''####'''          '####       
            ,##' ,,,,###########################,,,                        '##       
           ' ,,###''''                  '''############,,,                           
         ,,##''                                '''############,,,,        ,,,,,,###''
      ,#''                                            '''#######################'''  
     '                                                          ''''####''''         
             ,#######,   #######,   ,#######,      ##                                
            ,#'     '#,  ##    ##  ,#'     '#,    #''#        ######   ,####,        
            ##       ##  ##   ,#'  ##            #'  '#       #        #'  '#        
            ##       ##  #######   ##           ,######,      #####,   #    #        
            '#,     ,#'  ##    ##  '#,     ,#' ,#      #,         ##   #,  ,#        
             '#######'   ##     ##  '#######'  #'      '#     #####' # '####'        



                  #######################################################
                  #                        -***-                        #
                  #          Department of theory and spectroscopy      #
                  #    Directorship and core code : Frank Neese         #
                  #        Max Planck Institute fuer Kohlenforschung    #
                  #                Kaiser Wilhelm Platz 1               #
                  #                 D-45470 Muelheim/Ruhr               #
                  #                      Germany                        #
                  #                                                     #
                  #                  All rights reserved                #
                  #                        -***-                        #
                  #######################################################


                         Program Version 5.0.4 -  RELEASE  -


 With contributions from (in alphabetic order):
   Daniel Aravena         : Magnetic Suceptibility
   Michael Atanasov       : Ab Initio Ligand Field Theory (pilot matlab implementation)
   Alexander A. Auer      : GIAO ZORA, VPT2 properties, NMR spectrum
   Ute Becker             : Parallelization
   Giovanni Bistoni       : ED, misc. LED, open-shell LED, HFLD
   Martin Brehm           : Molecular dynamics
   Dmytro Bykov           : SCF Hessian
   Vijay G. Chilkuri      : MRCI spin determinant printing, contributions to CSF-ICE
   Dipayan Datta          : RHF DLPNO-CCSD density
   Achintya Kumar Dutta   : EOM-CC, STEOM-CC
   Dmitry Ganyushin       : Spin-Orbit,Spin-Spin,Magnetic field MRCI
   Miquel Garcia          : C-PCM and meta-GGA Hessian, CC/C-PCM, Gaussian charge scheme
   Yang Guo               : DLPNO-NEVPT2, F12-NEVPT2, CIM, IAO-localization
   Andreas Hansen         : Spin unrestricted coupled pair/coupled cluster methods
   Benjamin Helmich-Paris : MC-RPA, TRAH-SCF, COSX integrals
   Lee Huntington         : MR-EOM, pCC
   Robert Izsak           : Overlap fitted RIJCOSX, COSX-SCS-MP3, EOM
   Marcus Kettner         : VPT2
   Christian Kollmar      : KDIIS, OOCD, Brueckner-CCSD(T), CCSD density, CASPT2, CASPT2-K
   Simone Kossmann        : Meta GGA functionals, TD-DFT gradient, OOMP2, MP2 Hessian
   Martin Krupicka        : Initial AUTO-CI
   Lucas Lang             : DCDCAS
   Marvin Lechner         : AUTO-CI (C++ implementation), FIC-MRCC
   Dagmar Lenk            : GEPOL surface, SMD
   Dimitrios Liakos       : Extrapolation schemes; Compound Job, initial MDCI parallelization
   Dimitrios Manganas     : Further ROCIS development; embedding schemes
   Dimitrios Pantazis     : SARC Basis sets
   Anastasios Papadopoulos: AUTO-CI, single reference methods and gradients
   Taras Petrenko         : DFT Hessian,TD-DFT gradient, ASA, ECA, R-Raman, ABS, FL, XAS/XES, NRVS
   Peter Pinski           : DLPNO-MP2, DLPNO-MP2 Gradient
   Christoph Reimann      : Effective Core Potentials
   Marius Retegan         : Local ZFS, SOC
   Christoph Riplinger    : Optimizer, TS searches, QM/MM, DLPNO-CCSD(T), (RO)-DLPNO pert. Triples
   Tobias Risthaus        : Range-separated hybrids, TD-DFT gradient, RPA, STAB
   Michael Roemelt        : Original ROCIS implementation
   Masaaki Saitow         : Open-shell DLPNO-CCSD energy and density
   Barbara Sandhoefer     : DKH picture change effects
   Avijit Sen             : IP-ROCIS
   Kantharuban Sivalingam : CASSCF convergence, NEVPT2, FIC-MRCI
   Bernardo de Souza      : ESD, SOC TD-DFT
   Georgi Stoychev        : AutoAux, RI-MP2 NMR, DLPNO-MP2 response
   Willem Van den Heuvel  : Paramagnetic NMR
   Boris Wezisla          : Elementary symmetry handling
   Frank Wennmohs         : Technical directorship


 We gratefully acknowledge several colleagues who have allowed us to
 interface, adapt or use parts of their codes:
   Stefan Grimme, W. Hujo, H. Kruse, P. Pracht,  : VdW corrections, initial TS optimization,
                  C. Bannwarth, S. Ehlert          DFT functionals, gCP, sTDA/sTD-DF
   Ed Valeev, F. Pavosevic, A. Kumar             : LibInt (2-el integral package), F12 methods
   Garnet Chan, S. Sharma, J. Yang, R. Olivares  : DMRG
   Ulf Ekstrom                                   : XCFun DFT Library
   Mihaly Kallay                                 : mrcc  (arbitrary order and MRCC methods)
   Jiri Pittner, Ondrej Demel                    : Mk-CCSD
   Frank Weinhold                                : gennbo (NPA and NBO analysis)
   Christopher J. Cramer and Donald G. Truhlar   : smd solvation model
   Lars Goerigk                                  : TD-DFT with DH, B97 family of functionals
   V. Asgeirsson, H. Jonsson                     : NEB implementation
   FAccTs GmbH                                   : IRC, NEB, NEB-TS, DLPNO-Multilevel, CI-OPT
                                                   MM, QMMM, 2- and 3-layer-ONIOM, Crystal-QMMM,
                                                   LR-CPCM, SF, NACMEs, symmetry and pop. for TD-DFT,
                                                   nearIR, NL-DFT gradient (VV10), updates on ESD,
                                                   ML-optimized integration grids
   S Lehtola, MJT Oliveira, MAL Marques          : LibXC Library
   Liviu Ungur et al                             : ANISO software


 Your calculation uses the libint2 library for the computation of 2-el integrals
 For citations please refer to: http://libint.valeyev.net

 Your ORCA version has been built with support for libXC version: 5.1.0
 For citations please refer to: https://tddft.org/programs/libxc/

 This ORCA versions uses:
   CBLAS   interface :  Fast vector & matrix operations
   LAPACKE interface :  Fast linear algebra routines
   SCALAPACK package :  Parallel linear algebra routines
   Shared memory     :  Shared parallel matrices
   BLAS/LAPACK       :  OpenBLAS 0.3.15  USE64BITINT DYNAMIC_ARCH NO_AFFINITY SkylakeX SINGLE_THREADED
        Core in use  :  SkylakeX
   Copyright (c) 2011-2014, The OpenBLAS Project




***************************************
The coordinates will be read from file: opt.xyz
***************************************


================================================================================

----- Orbital basis set information -----
Your calculation utilizes the basis: cc-pVDZ 
       H, B-Ne : Obtained from the ccRepo (grant-hill.group.shef.ac.uk/ccrepo) Feb. 2017
                 T. H. Dunning, Jr., J. Chem. Phys. 90, 1007 (1989)
            He : Obtained from the ccRepo (grant-hill.group.shef.ac.uk/ccrepo) Feb. 2017
                 D. E. Woon, T. H. Dunning, Jr., J. Chem. Phys. 100, 2975 (1994)
  Li-Be, Na-Mg : Obtained from the ccRepo (grant-hill.group.shef.ac.uk/ccrepo) Feb. 2017
                 B. P. Prascher, D. E. Woon, K. A. Peterson, T. H. Dunning, Jr., A. K. Wilson, Theor. Chem. Acc. 128, 69 (2011)
         Al-Ar : Obtained from the ccRepo (grant-hill.group.shef.ac.uk/ccrepo) Feb. 2017
                 D. E. Woon, T. H. Dunning, Jr., J. Chem. Phys. 98, 1358 (1993)
            Ca : Obtained from the Peterson Research Group Website (tyr0.chem.wsu.edu/~kipeters) Feb. 2017
                 J. Koput, K. A. Peterson, J. Phys. Chem. 106, 9595 (2002)
         Sc-Zn : Obtained from the ccRepo (grant-hill.group.shef.ac.uk/ccrepo) Feb. 2017
                 N. B. Balabanov, K. A. Peterson, J. Chem. Phys. 123, 064107 (2005)
                 N. B. Balabanov, K. A. Peterson, J. Chem. Phys. 125, 074110 (2006)
         Ga-Kr : Obtained from the ccRepo (grant-hill.group.shef.ac.uk/ccrepo) Feb. 2017
                 A. K. Wilson, D. E. Woon, K. A. Peterson, T. H. Dunning, Jr., J. Chem. Phys. 110, 7667 (1999)

----- AuxJ basis set information -----
Your calculation utilizes the AutoAux generation procedure.
  G. L. Stoychev, A. A. Auer, F. Neese, J. Chem. Theory Comput. 13, 554 (2017)

----- AuxC basis set information -----
Your calculation utilizes the AutoAux generation procedure.
  G. L. Stoychev, A. A. Auer, F. Neese, J. Chem. Theory Comput. 13, 554 (2017)

----- AuxJK basis set information -----
Your calculation utilizes the AutoAux generation procedure.
  G. L. Stoychev, A. A. Auer, F. Neese, J. Chem. Theory Comput. 13, 554 (2017)

================================================================================
                                        WARNINGS
                       Please study these warnings very carefully!
================================================================================


WARNING: your system is open-shell and RHF/RKS was chosen
  ===> : WILL SWITCH to UHF/UKS


INFO   : the flag for use of the SHARK integral package has been found!

================================================================================
                                       INPUT FILE
================================================================================
NAME = cc-pVDZ_i.inp
|  1> ! B3LYP cc-pVDZ AUTOAUX
|  2> %pal nprocs 16 end
|  3> *XYZFile 0 2 opt.xyz
|  4> %EPRNMR
|  5>         GTENSOR   TRUE
|  6>         NUCLEI    = ALL H {SHIFT, AISO, ADIP, AORB}
|  7>         ORI       GIAO
|  8> END
|  9> 
| 10>                          ****END OF INPUT****
================================================================================

                       ****************************
                       * Single Point Calculation *
                       ****************************

---------------------------------
CARTESIAN COORDINATES (ANGSTROEM)
---------------------------------
  C     -4.058780   -0.114027   -0.000729
  C     -2.837067   -0.037217    0.000458
  C      2.839456    0.025128    0.001303
  C     -1.417730    0.016651    0.000204
  C     -0.712128    1.278604   -0.003269
  C      0.709687    1.211983   -0.002475
  C      1.411298    0.003549    0.000975
  C      0.702255   -1.241266    0.003983
  C     -0.691408   -1.190779    0.003621
  H      1.285445    2.137757   -0.004762
  H     -1.264663   -2.117693    0.006030
  C     -1.396749    2.512534   -0.007530
  H     -2.489374    2.477379   -0.008222
  C     -0.740034    3.860790   -0.011243
  H     -0.071952    3.959921    0.869257
  H     -0.065383    3.951892   -0.887544
  C     -1.737595    5.026485   -0.020436
  H     -2.392913    4.932401   -0.905600
  H     -2.399942    4.940503    0.860321
  C     -1.059047    6.397666   -0.024026
  H     -0.415065    6.523869   -0.911556
  H     -0.422198    6.532067    0.867440
  C      1.476339   -2.542840    0.007434
  H      2.155053   -2.543120   -0.866126
  H      2.153685   -2.539371    0.882056
  C      0.658132   -3.836796    0.009521
  H     -0.005723   -3.860159    0.893279
  H     -0.004355   -3.863766   -0.875166
  C      1.539543   -5.091841    0.012796
  H      2.206455   -5.070185   -0.869111
  H      2.204866   -5.066716    0.895810
  C      0.733887   -6.393511    0.014637
  H      0.084970   -6.463882   -0.875410
  H      0.082960   -6.460115    0.903504
  C      4.061356    0.051700    0.002498
  H     -1.799216    7.213950   -0.030767
  H      1.392930   -7.276874    0.017252
  C      5.489033    0.088671    0.002622
  C      6.175837    1.322543    0.001416
  C      7.570008    1.354492    0.001416
  C      8.304589    0.163225    0.002633
  C      7.634082   -1.065321    0.003864
  C      6.240226   -1.107100    0.003878
  H      9.396716    0.192185    0.002617
  H      8.202215   -1.998703    0.004810
  H      5.600673    2.250353    0.000473
  H      5.715229   -2.064211    0.004815
  H      8.088008    2.316597    0.000461
  C     -5.481361   -0.217167   -0.000792
  C     -6.291506    0.940362   -0.001962
  C     -7.681432    0.829777   -0.001873
  C     -8.291180   -0.430157   -0.000632
  C     -7.498648   -1.583951    0.000528
  C     -6.108081   -1.483701    0.000446
  H     -9.380565   -0.512687   -0.000545
  H     -7.968746   -2.570377    0.001498
  H     -5.815246    1.922629   -0.002861
  H     -5.488129   -2.382218    0.001345
  H     -8.294683    1.734189   -0.002759

----------------------------
CARTESIAN COORDINATES (A.U.)
----------------------------
  NO LB      ZA    FRAG     MASS         X           Y           Z
   0 C     6.0000    0    12.011   -7.669983   -0.215479   -0.001378
   1 C     6.0000    0    12.011   -5.361279   -0.070330    0.000865
   2 C     6.0000    0    12.011    5.365794    0.047486    0.002462
   3 C     6.0000    0    12.011   -2.679121    0.031465    0.000385
   4 C     6.0000    0    12.011   -1.345726    2.416212   -0.006177
   5 C     6.0000    0    12.011    1.341114    2.290315   -0.004677
   6 C     6.0000    0    12.011    2.666966    0.006706    0.001843
   7 C     6.0000    0    12.011    1.327070   -2.345653    0.007526
   8 C     6.0000    0    12.011   -1.306572   -2.250246    0.006843
   9 H     1.0000    0     1.008    2.429140    4.039775   -0.008998
  10 H     1.0000    0     1.008   -2.389867   -4.001860    0.011394
  11 C     6.0000    0    12.011   -2.639472    4.748001   -0.014229
  12 H     1.0000    0     1.008   -4.704235    4.681567   -0.015538
  13 C     6.0000    0    12.011   -1.398462    7.295835   -0.021246
  14 H     1.0000    0     1.008   -0.135969    7.483167    1.642658
  15 H     1.0000    0     1.008   -0.123556    7.467993   -1.677215
  16 C     6.0000    0    12.011   -3.283580    9.498680   -0.038619
  17 H     1.0000    0     1.008   -4.521951    9.320886   -1.711336
  18 H     1.0000    0     1.008   -4.535233    9.336197    1.625771
  19 C     6.0000    0    12.011   -2.001308   12.089837   -0.045402
  20 H     1.0000    0     1.008   -0.784360   12.328325   -1.722592
  21 H     1.0000    0     1.008   -0.797838   12.343818    1.639225
  22 C     6.0000    0    12.011    2.789877   -4.805272    0.014049
  23 H     1.0000    0     1.008    4.072461   -4.805801   -1.636741
  24 H     1.0000    0     1.008    4.069875   -4.798716    1.666845
  25 C     6.0000    0    12.011    1.243690   -7.250493    0.017991
  26 H     1.0000    0     1.008   -0.010815   -7.294643    1.688052
  27 H     1.0000    0     1.008   -0.008229   -7.301460   -1.653824
  28 C     6.0000    0    12.011    2.909315   -9.622185    0.024181
  29 H     1.0000    0     1.008    4.169596   -9.581262   -1.642383
  30 H     1.0000    0     1.008    4.166594   -9.574705    1.692836
  31 C     6.0000    0    12.011    1.386845  -12.081985    0.027659
  32 H     1.0000    0     1.008    0.160570  -12.214966   -1.654286
  33 H     1.0000    0     1.008    0.156772  -12.207847    1.707374
  34 C     6.0000    0    12.011    7.674851    0.097700    0.004721
  35 H     1.0000    0     1.008   -3.400025   13.632390   -0.058142
  36 H     1.0000    0     1.008    2.632257  -13.751299    0.032602
  37 C     6.0000    0    12.011   10.372770    0.167563    0.004955
  38 C     6.0000    0    12.011   11.670641    2.499244    0.002676
  39 C     6.0000    0    12.011   14.305241    2.559620    0.002675
  40 C     6.0000    0    12.011   15.693399    0.308451    0.004975
  41 C     6.0000    0    12.011   14.426324   -2.013166    0.007303
  42 C     6.0000    0    12.011   11.792319   -2.092115    0.007328
  43 H     1.0000    0     1.008   17.757221    0.363176    0.004945
  44 H     1.0000    0     1.008   15.499941   -3.777002    0.009089
  45 H     1.0000    0     1.008   10.583739    4.252552    0.000893
  46 H     1.0000    0     1.008   10.800217   -3.900793    0.009099
  47 H     1.0000    0     1.008   15.284121    4.377734    0.000870
  48 C     6.0000    0    12.011  -10.358271   -0.410386   -0.001496
  49 C     6.0000    0    12.011  -11.889224    1.777027   -0.003708
  50 C     6.0000    0    12.011  -14.515803    1.568051   -0.003539
  51 C     6.0000    0    12.011  -15.668060   -0.812879   -0.001194
  52 C     6.0000    0    12.011  -14.170391   -2.993233    0.000997
  53 C     6.0000    0    12.011  -11.542601   -2.803788    0.000842
  54 H     1.0000    0     1.008  -17.726698   -0.968838   -0.001030
  55 H     1.0000    0     1.008  -15.058748   -4.857308    0.002830
  56 H     1.0000    0     1.008  -10.989222    3.633242   -0.005406
  57 H     1.0000    0     1.008  -10.371061   -4.501739    0.002541
  58 H     1.0000    0     1.008  -15.674678    3.277142   -0.005214

--------------------------------
INTERNAL COORDINATES (ANGSTROEM)
--------------------------------
 C      0   0   0     0.000000000000     0.00000000     0.00000000
 C      1   0   0     1.224126443433     0.00000000     0.00000000
 C      2   1   0     5.676864868464   177.03140915     0.00000000
 C      2   1   3     1.420358645532   178.57449228     1.73877668
 C      4   2   1     1.445826295041   121.38448468   177.19897879
 C      5   4   2     1.423375089311   116.52816424   179.96755751
 C      6   5   4     1.397348470617   122.82193934     0.00000000
 C      7   6   5     1.432590108934   120.19523973     0.00000000
 C      8   7   6     1.394577932782   117.59088971     0.00000000
 H      6   5   4     1.090210974542   119.19545768   180.01422906
 H      9   8   7     1.089860605267   119.66011565   180.01068752
 C      5   4   2     1.411136367371   121.76633426   359.95363882
 H     12   5   4     1.093191043477   117.17994550     0.00000000
 C     12   5   4     1.499693772310   125.00739805   179.99730656
 H     14  12   5     1.109703449874   109.99741929   302.41126797
 H     14  12   5     1.109665334815   109.99854623    57.19641117
 C     14  12   5     1.534294192207   113.47464441   179.79919469
 H     17  14  12     1.105354381134   109.00143726   302.33343419
 H     17  14  12     1.105363751985   109.00917860    57.64935036
 C     17  14  12     1.529895164183   113.11544112   179.99404752
 H     20  17  14     1.103788857462   111.29232654    59.86593035
 H     20  17  14     1.103789630808   111.29292028   300.11999163
 C      8   7   6     1.514368915849   119.59327999   179.98817634
 H     23   8   7     1.106237105759   108.18168280   303.76792127
 H     23   8   7     1.106242671424   108.18500334    56.31132860
 C     23   8   7     1.530943263048   116.95250926   180.04297036
 H     26  23   8     1.105567017383   109.86877713   301.73860173
 H     26  23   8     1.105571084326   109.86361863    58.24894927
 C     26  23   8     1.533634617521   112.61356005   179.99322952
 H     29  26  23     1.105893774928   109.19947972   302.34296274
 H     29  26  23     1.105893380011   109.20043303    57.67897657
 C     29  26  23     1.530826384355   113.16490503   180.01103911
 H     32  29  26     1.103734026067   111.26385321    59.86765382
 H     32  29  26     1.103732869483   111.26351558   300.16286423
 C      3   2   1     1.222189708357   179.38164601   183.49857717
 H     20  17  14     1.101914546728   111.47092752   179.99208124
 H     32  29  26     1.102123076063   111.51983900   180.01536577
 C     35   3   7     1.428155937338   179.75699023   341.42766537
 C     38  35   3     1.412141095159   120.58474753    12.07271998
 C     39  38  35     1.394536324157   120.41417232   180.00598973
 C     40  39  38     1.399545890040   120.34679423     0.00000000
 C     41  40  39     1.399610286834   119.71592610     0.00000000
 C     42  41  40     1.394481562585   120.34131874     0.00000000
 H     41  40  39     1.092511090393   120.14065751   179.99930227
 H     42  41  40     1.092692925615   120.04735498   179.99952415
 H     39  38  35     1.091625860164   119.10319965     0.00000000
 H     43  42  41     1.091643012532   120.46259005   179.99862574
 H     40  39  38     1.092689774159   119.61095409   179.99912119
 C      1   2   4     1.426314715428   179.44811046     8.16152607
 C     49   1   2     1.412873063984   120.84104545   174.53750930
 C     50  49   1     1.394318111783   120.43886245   180.00675065
 C     51  50  49     1.399724353652   120.37375199     0.00000000
 C     52  51  50     1.399767398913   119.69036683     0.00000000
 C     53  52  51     1.394175906037   120.36137841     0.00000000
 H     52  51  50     1.092505904272   120.15711823   179.99875534
 H     53  52  51     1.092716544239   120.03421118   180.00008802
 H     50  49   1     1.091637733331   119.14533143     0.00000000
 H     54  53  52     1.091638126460   120.48110760   180.00024613
 H     51  50  49     1.092720314622   119.59084068   179.99831588

---------------------------
INTERNAL COORDINATES (A.U.)
---------------------------
 C      0   0   0     0.000000000000     0.00000000     0.00000000
 C      1   0   0     2.313263731380     0.00000000     0.00000000
 C      2   1   0    10.727719900675   177.03140915     0.00000000
 C      2   1   3     2.684088852002   178.57449228     1.73877668
 C      4   2   1     2.732215734849   121.38448468   177.19897879
 C      5   4   2     2.689789104643   116.52816424   179.96755751
 C      6   5   4     2.640605923120   122.82193934     0.00000000
 C      7   6   5     2.707202968050   120.19523973     0.00000000
 C      8   7   6     2.635370365368   117.59088971     0.00000000
 H      6   5   4     2.060200170080   119.19545768   180.01422906
 H      9   8   7     2.059538068105   119.66011565   180.01068752
 C      5   4   2     2.666661271947   121.76633426   359.95363882
 H     12   5   4     2.065831684227   117.17994550     0.00000000
 C     12   5   4     2.834010514413   125.00739805   179.99730656
 H     14  12   5     2.097035610129   109.99741929   302.41126797
 H     14  12   5     2.096963583106   109.99854623    57.19641117
 C     14  12   5     2.899395832138   113.47464441   179.79919469
 H     17  14  12     2.088817061272   109.00143726   302.33343419
 H     17  14  12     2.088834769616   109.00917860    57.64935036
 C     17  14  12     2.891082873916   113.11544112   179.99404752
 H     20  17  14     2.085858650278   111.29232654    59.86593035
 H     20  17  14     2.085860111689   111.29292028   300.11999163
 C      8   7   6     2.861742516678   119.59327999   179.98817634
 H     23   8   7     2.090485169067   108.18168280   303.76792127
 H     23   8   7     2.090495686648   108.18500334    56.31132860
 C     23   8   7     2.893063493732   116.95250926   180.04297036
 H     26  23   8     2.089218885550   109.86877713   301.73860173
 H     26  23   8     2.089226570958   109.86361863    58.24894927
 C     26  23   8     2.898149416616   112.61356005   179.99322952
 H     29  26  23     2.089836367821   109.19947972   302.34296274
 H     29  26  23     2.089835621537   109.20043303    57.67897657
 C     29  26  23     2.892842625012   113.16490503   180.01103911
 H     32  29  26     2.085755033957   111.26385321    59.86765382
 H     32  29  26     2.085752848329   111.26351558   300.16286423
 C      3   2   1     2.309603832492   179.38164601   183.49857717
 H     20  17  14     2.082316716301   111.47092752   179.99208124
 H     32  29  26     2.082710779633   111.51983900   180.01536577
 C     35   3   7     2.698823598102   179.75699023   341.42766537
 C     38  35   3     2.668559932306   120.58474753    12.07271998
 C     39  38  35     2.635291736462   120.41417232   180.00598973
 C     40  39  38     2.644758444031   120.34679423     0.00000000
 C     41  40  39     2.644880136334   119.71592610     0.00000000
 C     42  41  40     2.635188252089   120.34131874     0.00000000
 H     41  40  39     2.064546759115   120.14065751   179.99930227
 H     42  41  40     2.064890377885   120.04735498   179.99952415
 H     39  38  35     2.062873916416   119.10319965     0.00000000
 H     43  42  41     2.062906329695   120.46259005   179.99862574
 H     40  39  38     2.064884422496   119.61095409   179.99912119
 C      1   2   4     2.695344192940   179.44811046     8.16152607
 C     49   1   2     2.669943152924   120.84104545   174.53750930
 C     50  49   1     2.634879374836   120.43886245   180.00675065
 C     51  50  49     2.645095691381   120.37375199     0.00000000
 C     52  51  50     2.645177035137   119.69036683     0.00000000
 C     53  52  51     2.634610644921   120.36137841     0.00000000
 H     52  51  50     2.064536958766   120.15711823   179.99875534
 H     53  52  51     2.064935010616   120.03421118   180.00008802
 H     50  49   1     2.062896353451   119.14533143     0.00000000
 H     54  53  52     2.062897096356   120.48110760   180.00024613
 H     51  50  49     2.064942135608   119.59084068   179.99831588

---------------------
BASIS SET INFORMATION
---------------------
There are 2 groups of distinct atoms

 Group   1 Type C   : 17s4p1d contracted to 3s2p1d pattern {881/31/1}
 Group   2 Type H   : 4s1p contracted to 2s1p pattern {31/1}

Atom   0C    basis set group =>   1
Atom   1C    basis set group =>   1
Atom   2C    basis set group =>   1
Atom   3C    basis set group =>   1
Atom   4C    basis set group =>   1
Atom   5C    basis set group =>   1
Atom   6C    basis set group =>   1
Atom   7C    basis set group =>   1
Atom   8C    basis set group =>   1
Atom   9H    basis set group =>   2
Atom  10H    basis set group =>   2
Atom  11C    basis set group =>   1
Atom  12H    basis set group =>   2
Atom  13C    basis set group =>   1
Atom  14H    basis set group =>   2
Atom  15H    basis set group =>   2
Atom  16C    basis set group =>   1
Atom  17H    basis set group =>   2
Atom  18H    basis set group =>   2
Atom  19C    basis set group =>   1
Atom  20H    basis set group =>   2
Atom  21H    basis set group =>   2
Atom  22C    basis set group =>   1
Atom  23H    basis set group =>   2
Atom  24H    basis set group =>   2
Atom  25C    basis set group =>   1
Atom  26H    basis set group =>   2
Atom  27H    basis set group =>   2
Atom  28C    basis set group =>   1
Atom  29H    basis set group =>   2
Atom  30H    basis set group =>   2
Atom  31C    basis set group =>   1
Atom  32H    basis set group =>   2
Atom  33H    basis set group =>   2
Atom  34C    basis set group =>   1
Atom  35H    basis set group =>   2
Atom  36H    basis set group =>   2
Atom  37C    basis set group =>   1
Atom  38C    basis set group =>   1
Atom  39C    basis set group =>   1
Atom  40C    basis set group =>   1
Atom  41C    basis set group =>   1
Atom  42C    basis set group =>   1
Atom  43H    basis set group =>   2
Atom  44H    basis set group =>   2
Atom  45H    basis set group =>   2
Atom  46H    basis set group =>   2
Atom  47H    basis set group =>   2
Atom  48C    basis set group =>   1
Atom  49C    basis set group =>   1
Atom  50C    basis set group =>   1
Atom  51C    basis set group =>   1
Atom  52C    basis set group =>   1
Atom  53C    basis set group =>   1
Atom  54H    basis set group =>   2
Atom  55H    basis set group =>   2
Atom  56H    basis set group =>   2
Atom  57H    basis set group =>   2
Atom  58H    basis set group =>   2
---------------------------------
AUXILIARY/J BASIS SET INFORMATION
---------------------------------
There are 2 groups of distinct atoms

 Group   1 Type C   : 14s11p10d2f contracted to 14s11p10d2f pattern {11111111111111/11111111111/1111111111/11}
 Group   2 Type H   : 9s2p1d contracted to 9s2p1d pattern {111111111/11/1}

Atom   0C    basis set group =>   1
Atom   1C    basis set group =>   1
Atom   2C    basis set group =>   1
Atom   3C    basis set group =>   1
Atom   4C    basis set group =>   1
Atom   5C    basis set group =>   1
Atom   6C    basis set group =>   1
Atom   7C    basis set group =>   1
Atom   8C    basis set group =>   1
Atom   9H    basis set group =>   2
Atom  10H    basis set group =>   2
Atom  11C    basis set group =>   1
Atom  12H    basis set group =>   2
Atom  13C    basis set group =>   1
Atom  14H    basis set group =>   2
Atom  15H    basis set group =>   2
Atom  16C    basis set group =>   1
Atom  17H    basis set group =>   2
Atom  18H    basis set group =>   2
Atom  19C    basis set group =>   1
Atom  20H    basis set group =>   2
Atom  21H    basis set group =>   2
Atom  22C    basis set group =>   1
Atom  23H    basis set group =>   2
Atom  24H    basis set group =>   2
Atom  25C    basis set group =>   1
Atom  26H    basis set group =>   2
Atom  27H    basis set group =>   2
Atom  28C    basis set group =>   1
Atom  29H    basis set group =>   2
Atom  30H    basis set group =>   2
Atom  31C    basis set group =>   1
Atom  32H    basis set group =>   2
Atom  33H    basis set group =>   2
Atom  34C    basis set group =>   1
Atom  35H    basis set group =>   2
Atom  36H    basis set group =>   2
Atom  37C    basis set group =>   1
Atom  38C    basis set group =>   1
Atom  39C    basis set group =>   1
Atom  40C    basis set group =>   1
Atom  41C    basis set group =>   1
Atom  42C    basis set group =>   1
Atom  43H    basis set group =>   2
Atom  44H    basis set group =>   2
Atom  45H    basis set group =>   2
Atom  46H    basis set group =>   2
Atom  47H    basis set group =>   2
Atom  48C    basis set group =>   1
Atom  49C    basis set group =>   1
Atom  50C    basis set group =>   1
Atom  51C    basis set group =>   1
Atom  52C    basis set group =>   1
Atom  53C    basis set group =>   1
Atom  54H    basis set group =>   2
Atom  55H    basis set group =>   2
Atom  56H    basis set group =>   2
Atom  57H    basis set group =>   2
Atom  58H    basis set group =>   2
---------------------------------
AUXILIARY/C BASIS SET INFORMATION
---------------------------------
There are 2 groups of distinct atoms

 Group   1 Type C   : 14s11p10d2f contracted to 14s11p10d2f pattern {11111111111111/11111111111/1111111111/11}
 Group   2 Type H   : 9s2p1d contracted to 9s2p1d pattern {111111111/11/1}

Atom   0C    basis set group =>   1
Atom   1C    basis set group =>   1
Atom   2C    basis set group =>   1
Atom   3C    basis set group =>   1
Atom   4C    basis set group =>   1
Atom   5C    basis set group =>   1
Atom   6C    basis set group =>   1
Atom   7C    basis set group =>   1
Atom   8C    basis set group =>   1
Atom   9H    basis set group =>   2
Atom  10H    basis set group =>   2
Atom  11C    basis set group =>   1
Atom  12H    basis set group =>   2
Atom  13C    basis set group =>   1
Atom  14H    basis set group =>   2
Atom  15H    basis set group =>   2
Atom  16C    basis set group =>   1
Atom  17H    basis set group =>   2
Atom  18H    basis set group =>   2
Atom  19C    basis set group =>   1
Atom  20H    basis set group =>   2
Atom  21H    basis set group =>   2
Atom  22C    basis set group =>   1
Atom  23H    basis set group =>   2
Atom  24H    basis set group =>   2
Atom  25C    basis set group =>   1
Atom  26H    basis set group =>   2
Atom  27H    basis set group =>   2
Atom  28C    basis set group =>   1
Atom  29H    basis set group =>   2
Atom  30H    basis set group =>   2
Atom  31C    basis set group =>   1
Atom  32H    basis set group =>   2
Atom  33H    basis set group =>   2
Atom  34C    basis set group =>   1
Atom  35H    basis set group =>   2
Atom  36H    basis set group =>   2
Atom  37C    basis set group =>   1
Atom  38C    basis set group =>   1
Atom  39C    basis set group =>   1
Atom  40C    basis set group =>   1
Atom  41C    basis set group =>   1
Atom  42C    basis set group =>   1
Atom  43H    basis set group =>   2
Atom  44H    basis set group =>   2
Atom  45H    basis set group =>   2
Atom  46H    basis set group =>   2
Atom  47H    basis set group =>   2
Atom  48C    basis set group =>   1
Atom  49C    basis set group =>   1
Atom  50C    basis set group =>   1
Atom  51C    basis set group =>   1
Atom  52C    basis set group =>   1
Atom  53C    basis set group =>   1
Atom  54H    basis set group =>   2
Atom  55H    basis set group =>   2
Atom  56H    basis set group =>   2
Atom  57H    basis set group =>   2
Atom  58H    basis set group =>   2
----------------------------------
AUXILIARY/JK BASIS SET INFORMATION
----------------------------------
There are 2 groups of distinct atoms

 Group   1 Type C   : 14s11p10d2f contracted to 14s11p10d2f pattern {11111111111111/11111111111/1111111111/11}
 Group   2 Type H   : 9s2p1d contracted to 9s2p1d pattern {111111111/11/1}

Atom   0C    basis set group =>   1
Atom   1C    basis set group =>   1
Atom   2C    basis set group =>   1
Atom   3C    basis set group =>   1
Atom   4C    basis set group =>   1
Atom   5C    basis set group =>   1
Atom   6C    basis set group =>   1
Atom   7C    basis set group =>   1
Atom   8C    basis set group =>   1
Atom   9H    basis set group =>   2
Atom  10H    basis set group =>   2
Atom  11C    basis set group =>   1
Atom  12H    basis set group =>   2
Atom  13C    basis set group =>   1
Atom  14H    basis set group =>   2
Atom  15H    basis set group =>   2
Atom  16C    basis set group =>   1
Atom  17H    basis set group =>   2
Atom  18H    basis set group =>   2
Atom  19C    basis set group =>   1
Atom  20H    basis set group =>   2
Atom  21H    basis set group =>   2
Atom  22C    basis set group =>   1
Atom  23H    basis set group =>   2
Atom  24H    basis set group =>   2
Atom  25C    basis set group =>   1
Atom  26H    basis set group =>   2
Atom  27H    basis set group =>   2
Atom  28C    basis set group =>   1
Atom  29H    basis set group =>   2
Atom  30H    basis set group =>   2
Atom  31C    basis set group =>   1
Atom  32H    basis set group =>   2
Atom  33H    basis set group =>   2
Atom  34C    basis set group =>   1
Atom  35H    basis set group =>   2
Atom  36H    basis set group =>   2
Atom  37C    basis set group =>   1
Atom  38C    basis set group =>   1
Atom  39C    basis set group =>   1
Atom  40C    basis set group =>   1
Atom  41C    basis set group =>   1
Atom  42C    basis set group =>   1
Atom  43H    basis set group =>   2
Atom  44H    basis set group =>   2
Atom  45H    basis set group =>   2
Atom  46H    basis set group =>   2
Atom  47H    basis set group =>   2
Atom  48C    basis set group =>   1
Atom  49C    basis set group =>   1
Atom  50C    basis set group =>   1
Atom  51C    basis set group =>   1
Atom  52C    basis set group =>   1
Atom  53C    basis set group =>   1
Atom  54H    basis set group =>   2
Atom  55H    basis set group =>   2
Atom  56H    basis set group =>   2
Atom  57H    basis set group =>   2
Atom  58H    basis set group =>   2


           ************************************************************
           *        Program running with 16 parallel MPI-processes    *
           *              working on a common directory               *
           ************************************************************
------------------------------------------------------------------------------
                           ORCA GTO INTEGRAL CALCULATION
                           -- RI-GTO INTEGRALS CHOSEN --
------------------------------------------------------------------------------
------------------------------------------------------------------------------
                   ___                                                        
                  /   \      - P O W E R E D   B Y -                         
                 /     \                                                     
                 |  |  |   _    _      __       _____    __    __             
                 |  |  |  | |  | |    /  \     |  _  \  |  |  /  |          
                  \  \/   | |  | |   /    \    | | | |  |  | /  /          
                 / \  \   | |__| |  /  /\  \   | |_| |  |  |/  /          
                |  |  |   |  __  | /  /__\  \  |    /   |      \           
                |  |  |   | |  | | |   __   |  |    \   |  |\   \          
                \     /   | |  | | |  |  |  |  | |\  \  |  | \   \       
                 \___/    |_|  |_| |__|  |__|  |_| \__\ |__|  \__/        
                                                                              
                      - O R C A' S   B I G   F R I E N D -                    
                                      &                                       
                       - I N T E G R A L  F E E D E R -                       
                                                                              
 v1 FN, 2020, v2 2021                                                         
------------------------------------------------------------------------------


Reading SHARK input file cc-pVDZ_i.SHARKINP.tmp ... ok
----------------------
SHARK INTEGRAL PACKAGE
----------------------

Number of atoms                             ...     59
Number of basis functions                   ...    745
Number of shells                            ...    447
Maximum angular momentum                    ...      2
Integral batch strategy                     ... SHARK/LIBINT Hybrid
RI-J (if used) integral strategy            ... SPLIT-RIJ (Revised 2003 algorithm where possible)
Printlevel                                  ...      1
Contraction scheme used                     ... PARTIAL GENERAL contraction
Coulomb Range Separation                    ... NOT USED
Exchange Range Separation                   ... NOT USED
Finite Nucleus Model                        ... NOT USED
Auxiliary Coulomb fitting basis             ... AVAILABLE
   # of basis functions in Aux-J            ...   3910
   # of shells in Aux-J                     ...   1458
   Maximum angular momentum in Aux-J        ...      3
Auxiliary J/K fitting basis                 ... AVAILABLE
   # of basis functions in Aux-JK           ...   3910
   # of shells in Aux-JK                    ...   1458
   Maximum angular momentum in Aux-JK       ...      3
Auxiliary Correlation fitting basis         ... AVAILABLE
   # of basis functions in Aux-C            ...   3910
   # of shells in Aux-C                     ...   1458
   Maximum angular momentum in Aux-C        ...      3
Auxiliary 'external' fitting basis          ... NOT available
Integral threshold                          ...     1.000000e-10
Primitive cut-off                           ...     1.000000e-11
Primitive pair pre-selection threshold      ...     1.000000e-11

Calculating pre-screening integrals         ... done (  0.0 sec) Dimension = 447
Calculating pre-screening integrals (ORCA)  ... done (  0.1 sec) Dimension = 267
Organizing shell pair data                  ... done (  0.2 sec)
Shell pair information
Total number of shell pairs                 ...    100128
Shell pairs after pre-screening             ...     32148
Total number of primitive shell pairs       ...    160072
Primitive shell pairs kept                  ...     42896
          la=0 lb=0:  13782 shell pairs
          la=1 lb=0:  11420 shell pairs
          la=1 lb=1:   2054 shell pairs
          la=2 lb=0:   3435 shell pairs
          la=2 lb=1:   1252 shell pairs
          la=2 lb=2:    205 shell pairs

Calculating one electron integrals          ... done (  0.1 sec)
Calculating RI/J V-Matrix + Cholesky decomp.... done (  0.9 sec)
Calculating RI/JK V-Matrix + Cholesky decomp... done (  0.9 sec)
Calculating RI/C V-Matrix + Cholesky decomp.... done (  0.9 sec)
Calculating Nuclear repulsion               ... done (  0.0 sec) ENN=   2363.850750878803 Eh

SHARK setup successfully completed in   3.5 seconds

Maximum memory used throughout the entire GTOINT-calculation: 56.7 MB


           ************************************************************
           *        Program running with 16 parallel MPI-processes    *
           *              working on a common directory               *
           ************************************************************
-------------------------------------------------------------------------------
                                 ORCA SCF
-------------------------------------------------------------------------------

------------
SCF SETTINGS
------------
Hamiltonian:
 Density Functional     Method          .... DFT(GTOs)
 Exchange Functional    Exchange        .... B88
   X-Alpha parameter    XAlpha          ....  0.666667
   Becke's b parameter  XBeta           ....  0.004200
 Correlation Functional Correlation     .... LYP
 LDA part of GGA corr.  LDAOpt          .... VWN-5
 Gradients option       PostSCFGGA      .... off
 Hybrid DFT is turned on
   Fraction HF Exchange ScalHFX         ....  0.200000
   Scaling of DF-GGA-X  ScalDFX         ....  0.720000
   Scaling of DF-GGA-C  ScalDFC         ....  0.810000
   Scaling of DF-LDA-C  ScalLDAC        ....  1.000000
   Perturbative correction              ....  0.000000
   Density functional embedding theory  .... OFF
   NL short-range parameter             ....  4.800000
 RI-approximation to the Coulomb term is turned on
   Number of AuxJ basis functions       .... 3910
   RIJ-COSX (HFX calculated with COS-X)).... on


General Settings:
 Integral files         IntName         .... cc-pVDZ_i
 Hartree-Fock type      HFTyp           .... UHF
 Total Charge           Charge          ....    0
 Multiplicity           Mult            ....    2
 Number of Electrons    NEL             ....  209
 Basis Dimension        Dim             ....  565
 Nuclear Repulsion      ENuc            ....   2363.8507508788 Eh

Convergence Acceleration:
 DIIS                   CNVDIIS         .... on
   Start iteration      DIISMaxIt       ....    12
   Startup error        DIISStart       ....  0.200000
   # of expansion vecs  DIISMaxEq       ....     5
   Bias factor          DIISBfac        ....   1.050
   Max. coefficient     DIISMaxC        ....  10.000
 Trust-Rad. Augm. Hess. CNVTRAH         .... auto
   Auto Start mean grad. ratio tolernc. ....  1.125000
   Auto Start start iteration           ....    20
   Auto Start num. interpolation iter.  ....    10
   Max. Number of Micro iterations      ....    16
   Max. Number of Macro iterations      .... Maxiter - #DIIS iter
   Number of Davidson start vectors     ....     2
   Converg. threshold I  (grad. norm)   ....   5.000e-05
   Converg. threshold II (energy diff.) ....   1.000e-06
   Grad. Scal. Fac. for Micro threshold ....   0.100
   Minimum threshold for Micro iter.    ....   0.010
   NR start threshold (gradient norm)   ....   0.001
   Initial trust radius                 ....   0.400
   Minimum AH scaling param. (alpha)    ....   1.000
   Maximum AH scaling param. (alpha)    .... 1000.000
   Orbital update algorithm             .... Taylor
   White noise on init. David. guess    .... on
   Maximum white noise                  ....   0.010
   Quad. conv. algorithm                .... NR
 SOSCF                  CNVSOSCF        .... off
 Level Shifting         CNVShift        .... on
   Level shift para.    LevelShift      ....    0.2500
   Turn off err/grad.   ShiftErr        ....    0.0010
 Zerner damping         CNVZerner       .... off
 Static damping         CNVDamp         .... on
   Fraction old density DampFac         ....    0.7000
   Max. Damping (<1)    DampMax         ....    0.9800
   Min. Damping (>=0)   DampMin         ....    0.0000
   Turn off err/grad.   DampErr         ....    0.1000
 Fernandez-Rico         CNVRico         .... off

SCF Procedure:
 Maximum # iterations   MaxIter         ....   125
 SCF integral mode      SCFMode         .... Direct
   Integral package                     .... SHARK and LIBINT hybrid scheme
 Reset frequency        DirectResetFreq ....    20
 Integral Threshold     Thresh          ....  1.000e-10 Eh
 Primitive CutOff       TCut            ....  1.000e-11 Eh

Convergence Tolerance:
 Convergence Check Mode ConvCheckMode   .... Total+1el-Energy
 Convergence forced     ConvForced      .... 0
 Energy Change          TolE            ....  1.000e-06 Eh
 1-El. energy change                    ....  1.000e-03 Eh
 DIIS Error             TolErr          ....  1.000e-06


Diagonalization of the overlap matrix:
Smallest eigenvalue                        ... 4.689e-05
Time for diagonalization                   ...    0.060 sec
Threshold for overlap eigenvalues          ... 1.000e-08
Number of eigenvalues below threshold      ... 0
Time for construction of square roots      ...    0.063 sec
Total time needed                          ...    0.125 sec

Time for model grid setup =    0.416 sec

------------------------------
INITIAL GUESS: MODEL POTENTIAL
------------------------------
Loading Hartree-Fock densities                     ... done
Calculating cut-offs                               ... done
Initializing the effective Hamiltonian             ... done
Setting up the integral package (SHARK)            ... done
Starting the Coulomb interaction                   ... done (   0.3 sec)
Reading the grid                                   ... done
Mapping shells                                     ... done
Starting the XC term evaluation                    ... done (   0.1 sec)
  promolecular density results
     # of electrons  =    208.987696710
     EX              =   -162.717052521
     EC              =     -6.909370204
     EX+EC           =   -169.626422725
Transforming the Hamiltonian                       ... done (   0.0 sec)
Diagonalizing the Hamiltonian                      ... done (   0.1 sec)
Back transforming the eigenvectors                 ... done (   0.0 sec)
Now organizing SCF variables                       ... done
                      ------------------
                      INITIAL GUESS DONE (   1.3 sec)
                      ------------------
-------------------
DFT GRID GENERATION
-------------------

General Integration Accuracy     IntAcc      ... 4.388
Radial Grid Type                 RadialGrid  ... OptM3 with GC (2021)
Angular Grid (max. ang.)         AngularGrid ... 4 (Lebedev-302)
Angular grid pruning method      GridPruning ... 4 (adaptive)
Weight generation scheme         WeightScheme... Becke
Basis function cutoff            BFCut       ... 1.0000e-10
Integration weight cutoff        WCut        ... 1.0000e-14
Angular grids for H and He will be reduced by one unit
Partially contracted basis set               ... off
Rotationally invariant grid construction     ... off

Total number of grid points                  ...   271672
Total number of batches                      ...     4271
Average number of points per batch           ...       63
Average number of grid points per atom       ...     4605
Time for grid setup =    1.680 sec

--------------------
COSX GRID GENERATION
--------------------

GRIDX 1
-------
General Integration Accuracy     IntAcc      ... 3.816
Radial Grid Type                 RadialGrid  ... OptM3 with GC (2021)
Angular Grid (max. ang.)         AngularGrid ... 1 (Lebedev-50)
Angular grid pruning method      GridPruning ... 4 (adaptive)
Weight generation scheme         WeightScheme... Becke
Basis function cutoff            BFCut       ... 1.0000e-10
Integration weight cutoff        WCut        ... 1.0000e-14
Angular grids for H and He will be reduced by one unit
Partially contracted basis set               ... on
Rotationally invariant grid construction     ... off

Total number of grid points                  ...    34621
Total number of batches                      ...      570
Average number of points per batch           ...       60
Average number of grid points per atom       ...      587
UseSFitting                                  ... on

GRIDX 2
-------
General Integration Accuracy     IntAcc      ... 4.020
Radial Grid Type                 RadialGrid  ... OptM3 with GC (2021)
Angular Grid (max. ang.)         AngularGrid ... 2 (Lebedev-110)
Angular grid pruning method      GridPruning ... 4 (adaptive)
Weight generation scheme         WeightScheme... Becke
Basis function cutoff            BFCut       ... 1.0000e-10
Integration weight cutoff        WCut        ... 1.0000e-14
Angular grids for H and He will be reduced by one unit
Partially contracted basis set               ... on
Rotationally invariant grid construction     ... off

Total number of grid points                  ...    73987
Total number of batches                      ...     1188
Average number of points per batch           ...       62
Average number of grid points per atom       ...     1254
UseSFitting                                  ... on

GRIDX 3
-------
General Integration Accuracy     IntAcc      ... 4.338
Radial Grid Type                 RadialGrid  ... OptM3 with GC (2021)
Angular Grid (max. ang.)         AngularGrid ... 3 (Lebedev-194)
Angular grid pruning method      GridPruning ... 4 (adaptive)
Weight generation scheme         WeightScheme... Becke
Basis function cutoff            BFCut       ... 1.0000e-10
Integration weight cutoff        WCut        ... 1.0000e-14
Angular grids for H and He will be reduced by one unit
Partially contracted basis set               ... on
Rotationally invariant grid construction     ... off

Total number of grid points                  ...   161745
Total number of batches                      ...     2559
Average number of points per batch           ...       63
Average number of grid points per atom       ...     2741
UseSFitting                                  ... on

Time for X-Grid setup             =    2.829 sec

 re-compute Schwartz prescreening matrix in partically contracted basis (1) ...done (   0.122 sec)
--------------
SCF ITERATIONS
--------------
ITER       Energy         Delta-E        Max-DP      RMS-DP      [F,P]     Damp
               ***  Starting incremental Fock matrix formation  ***
  0  -1159.1947771206   0.000000000000 0.07215028  0.00082690  0.0869273 0.7000
  1  -1159.4750574441  -0.280280323512 0.06326316  0.00066691  0.0457904 0.7000
                               ***Turning on DIIS***
  2  -1159.6030570791  -0.127999635040 0.13235376  0.00131263  0.0175466 0.0000
  3  -1159.7867483686  -0.183691289453 0.02877986  0.00034668  0.0248729 0.0000
  4  -1159.8318470751  -0.045098706534 0.01821642  0.00015827  0.0053949 0.0000
  5  -1159.8346512601  -0.002804184985 0.00456607  0.00003508  0.0030313 0.0000
  6  -1159.8350435678  -0.000392307723 0.00339162  0.00001996  0.0023143 0.0000
  7  -1159.8352012237  -0.000157655849 0.00253694  0.00001381  0.0014543 0.0000
  8  -1159.8352872015  -0.000085977873 0.00357920  0.00002485  0.0009708 0.0000
               *** Restarting incremental Fock matrix formation ***
                                   *** Resetting DIIS ***
  9  -1159.8356064889  -0.000319287328 0.00162330  0.00001554  0.0008566 0.0000
 10  -1159.8355934312   0.000013057643 0.00048897  0.00000447  0.0018255 0.0000
 11  -1159.8356174879  -0.000024056655 0.00054211  0.00000419  0.0007381 0.0000
 12  -1159.8356232864  -0.000005798535 0.00065825  0.00000399  0.0002418 0.0000
 13  -1159.8356256711  -0.000002384726 0.00034252  0.00000192  0.0001073 0.0000
 14  -1159.8356263217  -0.000000650528 0.00018541  0.00000155  0.0000796 0.0000
 15  -1159.8356266401  -0.000000318448 0.00005861  0.00000057  0.0000351 0.0000
                 **** Energy Check signals convergence ****

               *****************************************************
               *                     SUCCESS                       *
               *           SCF CONVERGED AFTER  16 CYCLES          *
               *****************************************************

Old exchange energy                            =    -33.145832225 Eh
New exchange energy                            =    -33.145967092 Eh
Exchange energy change after final integration =     -0.000134867 Eh
Total energy after final integration           =  -1159.835761730 Eh
Final COS-X integration done in                =    11.747 sec

----------------
TOTAL SCF ENERGY
----------------

Total Energy       :        -1159.83576173 Eh          -31560.73559 eV

Components:
Nuclear Repulsion  :         2363.85075088 Eh           64323.64908 eV
Electronic Energy  :        -3523.68651261 Eh          -95884.38468 eV
One Electron Energy:        -6262.60342282 Eh         -170414.10282 eV
Two Electron Energy:         2738.91691021 Eh           74529.71814 eV
Max COSX asymmetry :            0.00000062 Eh               0.00002 eV

Virial components:
Potential Energy   :        -2311.73790592 Eh          -62905.58648 eV
Kinetic Energy     :         1151.90214419 Eh           31344.85088 eV
Virial Ratio       :            2.00688741


DFT components:
N(Alpha)           :      105.000155154725 electrons
N(Beta)            :      104.000147128139 electrons
N(Total)           :      209.000302282863 electrons
E(X)               :     -131.491498674639 Eh       
E(C)               :       -8.161214665298 Eh       
E(XC)              :     -139.652713339938 Eh       
DFET-embed. en.    :        0.000000000000 Eh       

---------------
SCF CONVERGENCE
---------------

  Last Energy change         ...   -2.2273e-07  Tolerance :   1.0000e-06
  Last MAX-Density change    ...    0.0000e+00  Tolerance :   1.0000e-05
  Last RMS-Density change    ...    0.0000e+00  Tolerance :   1.0000e-06
  Last DIIS Error            ...    1.8607e-05  Tolerance :   1.0000e-06

             **** THE GBW FILE WAS UPDATED (cc-pVDZ_i.gbw) ****
             **** DENSITY cc-pVDZ_i.scfp WAS UPDATED ****
             **** ENERGY FILE WAS UPDATED (cc-pVDZ_i.en.tmp) ****
----------------------
UHF SPIN CONTAMINATION
----------------------

Warning: in a DFT calculation there is little theoretical justification to 
         calculate <S**2> as in Hartree-Fock theory. We will do it anyways
         but you should keep in mind that the values have only limited relevance

Expectation value of <S**2>     :     0.788622
Ideal value S*(S+1) for S=0.5   :     0.750000
Deviation                       :     0.038622

             **** THE GBW FILE WAS UPDATED (cc-pVDZ_i.gbw) ****
             **** DENSITY cc-pVDZ_i.scfp WAS UPDATED ****
----------------
ORBITAL ENERGIES
----------------
                 SPIN UP ORBITALS
  NO   OCC          E(Eh)            E(eV) 
   0   1.0000     -10.215983      -277.9910 
   1   1.0000     -10.214485      -277.9503 
   2   1.0000     -10.212666      -277.9008 
   3   1.0000     -10.210551      -277.8432 
   4   1.0000     -10.201002      -277.5834 
   5   1.0000     -10.196942      -277.4729 
   6   1.0000     -10.196615      -277.4640 
   7   1.0000     -10.196485      -277.4605 
   8   1.0000     -10.195531      -277.4345 
   9   1.0000     -10.195486      -277.4333 
  10   1.0000     -10.195284      -277.4278 
  11   1.0000     -10.195043      -277.4212 
  12   1.0000     -10.194805      -277.4147 
  13   1.0000     -10.194281      -277.4005 
  14   1.0000     -10.193643      -277.3831 
  15   1.0000     -10.193463      -277.3782 
  16   1.0000     -10.193138      -277.3694 
  17   1.0000     -10.191312      -277.3197 
  18   1.0000     -10.188805      -277.2515 
  19   1.0000     -10.188377      -277.2398 
  20   1.0000     -10.187961      -277.2285 
  21   1.0000     -10.187643      -277.2199 
  22   1.0000     -10.186806      -277.1971 
  23   1.0000     -10.186166      -277.1797 
  24   1.0000     -10.185628      -277.1650 
  25   1.0000     -10.183799      -277.1153 
  26   1.0000     -10.181677      -277.0575 
  27   1.0000     -10.181253      -277.0460 
  28   1.0000     -10.177026      -276.9309 
  29   1.0000     -10.175562      -276.8911 
  30   1.0000      -0.872366       -23.7383 
  31   1.0000      -0.862723       -23.4759 
  32   1.0000      -0.861529       -23.4434 
  33   1.0000      -0.819138       -22.2899 
  34   1.0000      -0.798604       -21.7311 
  35   1.0000      -0.796125       -21.6637 
  36   1.0000      -0.781779       -21.2733 
  37   1.0000      -0.772768       -21.0281 
  38   1.0000      -0.765765       -20.8375 
  39   1.0000      -0.750447       -20.4207 
  40   1.0000      -0.749361       -20.3911 
  41   1.0000      -0.737886       -20.0789 
  42   1.0000      -0.726095       -19.7580 
  43   1.0000      -0.709289       -19.3007 
  44   1.0000      -0.696727       -18.9589 
  45   1.0000      -0.656041       -17.8518 
  46   1.0000      -0.645900       -17.5758 
  47   1.0000      -0.623104       -16.9555 
  48   1.0000      -0.613066       -16.6824 
  49   1.0000      -0.608759       -16.5652 
  50   1.0000      -0.608366       -16.5545 
  51   1.0000      -0.607209       -16.5230 
  52   1.0000      -0.590181       -16.0596 
  53   1.0000      -0.579553       -15.7704 
  54   1.0000      -0.560586       -15.2543 
  55   1.0000      -0.540188       -14.6993 
  56   1.0000      -0.534505       -14.5446 
  57   1.0000      -0.506641       -13.7864 
  58   1.0000      -0.503568       -13.7028 
  59   1.0000      -0.479838       -13.0570 
  60   1.0000      -0.478720       -13.0266 
  61   1.0000      -0.474529       -12.9126 
  62   1.0000      -0.470292       -12.7973 
  63   1.0000      -0.461947       -12.5702 
  64   1.0000      -0.457237       -12.4420 
  65   1.0000      -0.455904       -12.4058 
  66   1.0000      -0.436561       -11.8794 
  67   1.0000      -0.434762       -11.8305 
  68   1.0000      -0.430451       -11.7132 
  69   1.0000      -0.428193       -11.6517 
  70   1.0000      -0.425615       -11.5816 
  71   1.0000      -0.423772       -11.5314 
  72   1.0000      -0.422546       -11.4981 
  73   1.0000      -0.421398       -11.4668 
  74   1.0000      -0.411184       -11.1889 
  75   1.0000      -0.397958       -10.8290 
  76   1.0000      -0.397435       -10.8148 
  77   1.0000      -0.383824       -10.4444 
  78   1.0000      -0.381149       -10.3716 
  79   1.0000      -0.377580       -10.2745 
  80   1.0000      -0.374520       -10.1912 
  81   1.0000      -0.364642        -9.9224 
  82   1.0000      -0.361421        -9.8348 
  83   1.0000      -0.359489        -9.7822 
  84   1.0000      -0.355256        -9.6670 
  85   1.0000      -0.353239        -9.6121 
  86   1.0000      -0.349999        -9.5239 
  87   1.0000      -0.348795        -9.4912 
  88   1.0000      -0.339731        -9.2446 
  89   1.0000      -0.332255        -9.0411 
  90   1.0000      -0.331926        -9.0322 
  91   1.0000      -0.330677        -8.9982 
  92   1.0000      -0.327284        -8.9059 
  93   1.0000      -0.323459        -8.8018 
  94   1.0000      -0.321619        -8.7517 
  95   1.0000      -0.305613        -8.3162 
  96   1.0000      -0.278123        -7.5681 
  97   1.0000      -0.271892        -7.3986 
  98   1.0000      -0.267730        -7.2853 
  99   1.0000      -0.266188        -7.2433 
 100   1.0000      -0.258104        -7.0234 
 101   1.0000      -0.257542        -7.0081 
 102   1.0000      -0.235948        -6.4205 
 103   1.0000      -0.208130        -5.6635 
 104   1.0000      -0.169512        -4.6126 
 105   0.0000      -0.063770        -1.7353 
 106   0.0000      -0.026975        -0.7340 
 107   0.0000      -0.009793        -0.2665 
 108   0.0000      -0.008954        -0.2436 
 109   0.0000       0.005717         0.1556 
 110   0.0000       0.019134         0.5207 
 111   0.0000       0.042684         1.1615 
 112   0.0000       0.051461         1.4003 
 113   0.0000       0.054311         1.4779 
 114   0.0000       0.056373         1.5340 
 115   0.0000       0.063322         1.7231 
 116   0.0000       0.064797         1.7632 
 117   0.0000       0.078523         2.1367 
 118   0.0000       0.078918         2.1475 
 119   0.0000       0.080910         2.2017 
 120   0.0000       0.088777         2.4158 
 121   0.0000       0.089930         2.4471 
 122   0.0000       0.096785         2.6337 
 123   0.0000       0.101382         2.7587 
 124   0.0000       0.102674         2.7939 
 125   0.0000       0.104048         2.8313 
 126   0.0000       0.113935         3.1003 
 127   0.0000       0.117869         3.2074 
 128   0.0000       0.121531         3.3070 
 129   0.0000       0.125885         3.4255 
 130   0.0000       0.130545         3.5523 
 131   0.0000       0.134609         3.6629 
 132   0.0000       0.138393         3.7659 
 133   0.0000       0.143647         3.9088 
 134   0.0000       0.145533         3.9602 
 135   0.0000       0.148880         4.0512 
 136   0.0000       0.156309         4.2534 
 137   0.0000       0.157216         4.2781 
 138   0.0000       0.160265         4.3610 
 139   0.0000       0.161510         4.3949 
 140   0.0000       0.163845         4.4585 
 141   0.0000       0.168545         4.5863 
 142   0.0000       0.173437         4.7195 
 143   0.0000       0.174081         4.7370 
 144   0.0000       0.180277         4.9056 
 145   0.0000       0.199890         5.4393 
 146   0.0000       0.204732         5.5710 
 147   0.0000       0.213551         5.8110 
 148   0.0000       0.217900         5.9293 
 149   0.0000       0.219063         5.9610 
 150   0.0000       0.219191         5.9645 
 151   0.0000       0.224586         6.1113 
 152   0.0000       0.226475         6.1627 
 153   0.0000       0.244173         6.6443 
 154   0.0000       0.248305         6.7567 
 155   0.0000       0.268622         7.3096 
 156   0.0000       0.276726         7.5301 
 157   0.0000       0.279635         7.6093 
 158   0.0000       0.280834         7.6419 
 159   0.0000       0.288240         7.8434 
 160   0.0000       0.292358         7.9555 
 161   0.0000       0.292552         7.9607 
 162   0.0000       0.308198         8.3865 
 163   0.0000       0.314153         8.5485 
 164   0.0000       0.314986         8.5712 
 165   0.0000       0.322065         8.7638 
 166   0.0000       0.331924         9.0321 
 167   0.0000       0.343686         9.3522 
 168   0.0000       0.362115         9.8536 
 169   0.0000       0.364641         9.9224 
 170   0.0000       0.372870        10.1463 
 171   0.0000       0.382067        10.3966 
 172   0.0000       0.396401        10.7866 
 173   0.0000       0.409131        11.1330 
 174   0.0000       0.412079        11.2133 
 175   0.0000       0.413558        11.2535 
 176   0.0000       0.419369        11.4116 
 177   0.0000       0.420110        11.4318 
 178   0.0000       0.429053        11.6751 
 179   0.0000       0.435142        11.8408 
 180   0.0000       0.440589        11.9890 
 181   0.0000       0.441957        12.0263 
 182   0.0000       0.446148        12.1403 
 183   0.0000       0.451204        12.2779 
 184   0.0000       0.452613        12.3162 
 185   0.0000       0.455022        12.3818 
 186   0.0000       0.461545        12.5593 
 187   0.0000       0.470279        12.7969 
 188   0.0000       0.473388        12.8815 
 189   0.0000       0.474750        12.9186 
 190   0.0000       0.475834        12.9481 
 191   0.0000       0.476386        12.9631 
 192   0.0000       0.478786        13.0284 
 193   0.0000       0.484366        13.1803 
 194   0.0000       0.490018        13.3341 
 195   0.0000       0.499405        13.5895 
 196   0.0000       0.499823        13.6009 
 197   0.0000       0.504143        13.7184 
 198   0.0000       0.507571        13.8117 
 199   0.0000       0.508483        13.8365 
 200   0.0000       0.509530        13.8650 
 201   0.0000       0.509877        13.8745 
 202   0.0000       0.512988        13.9591 
 203   0.0000       0.514641        14.0041 
 204   0.0000       0.516489        14.0544 
 205   0.0000       0.516594        14.0572 
 206   0.0000       0.517401        14.0792 
 207   0.0000       0.517495        14.0818 
 208   0.0000       0.521752        14.1976 
 209   0.0000       0.524788        14.2802 
 210   0.0000       0.528518        14.3817 
 211   0.0000       0.540395        14.7049 
 212   0.0000       0.549630        14.9562 
 213   0.0000       0.557215        15.1626 
 214   0.0000       0.561311        15.2741 
 215   0.0000       0.572229        15.5711 
 216   0.0000       0.580561        15.7979 
 217   0.0000       0.580861        15.8060 
 218   0.0000       0.586162        15.9503 
 219   0.0000       0.588804        16.0222 
 220   0.0000       0.592500        16.1227 
 221   0.0000       0.593923        16.1615 
 222   0.0000       0.601014        16.3544 
 223   0.0000       0.605300        16.4710 
 224   0.0000       0.610625        16.6160 
 225   0.0000       0.619251        16.8507 
 226   0.0000       0.621947        16.9240 
 227   0.0000       0.627434        17.0733 
 228   0.0000       0.632074        17.1996 
 229   0.0000       0.634124        17.2554 
 230   0.0000       0.638387        17.3714 
 231   0.0000       0.639520        17.4022 
 232   0.0000       0.639846        17.4111 
 233   0.0000       0.642479        17.4827 
 234   0.0000       0.645481        17.5644 
 235   0.0000       0.646040        17.5796 
 236   0.0000       0.651232        17.7209 
 237   0.0000       0.655932        17.8488 
 238   0.0000       0.659989        17.9592 
 239   0.0000       0.662197        18.0193 
 240   0.0000       0.663020        18.0417 
 241   0.0000       0.663180        18.0460 
 242   0.0000       0.666608        18.1393 
 243   0.0000       0.669355        18.2141 
 244   0.0000       0.672249        18.2928 
 245   0.0000       0.675736        18.3877 
 246   0.0000       0.678954        18.4753 
 247   0.0000       0.682501        18.5718 
 248   0.0000       0.684027        18.6133 
 249   0.0000       0.686938        18.6925 
 250   0.0000       0.687552        18.7092 
 251   0.0000       0.688471        18.7342 
 252   0.0000       0.691233        18.8094 
 253   0.0000       0.695739        18.9320 
 254   0.0000       0.700935        19.0734 
 255   0.0000       0.705546        19.1989 
 256   0.0000       0.711344        19.3566 
 257   0.0000       0.717175        19.5153 
 258   0.0000       0.719777        19.5861 
 259   0.0000       0.720992        19.6192 
 260   0.0000       0.725722        19.7479 
 261   0.0000       0.735447        20.0125 
 262   0.0000       0.737445        20.0669 
 263   0.0000       0.744835        20.2680 
 264   0.0000       0.744967        20.2716 
 265   0.0000       0.764344        20.7989 
 266   0.0000       0.766562        20.8592 
 267   0.0000       0.766993        20.8709 
 268   0.0000       0.780741        21.2450 
 269   0.0000       0.786976        21.4147 
 270   0.0000       0.792462        21.5640 
 271   0.0000       0.797785        21.7088 
 272   0.0000       0.813524        22.1371 
 273   0.0000       0.815235        22.1837 
 274   0.0000       0.831525        22.6269 
 275   0.0000       0.834411        22.7055 
 276   0.0000       0.847001        23.0481 
 277   0.0000       0.852820        23.2064 
 278   0.0000       0.862780        23.4775 
 279   0.0000       0.865605        23.5543 
 280   0.0000       0.867708        23.6115 
 281   0.0000       0.881847        23.9963 
 282   0.0000       0.885355        24.0917 
 283   0.0000       0.900889        24.5144 
 284   0.0000       0.902032        24.5455 
 285   0.0000       0.908237        24.7144 
 286   0.0000       0.908870        24.7316 
 287   0.0000       0.913683        24.8626 
 288   0.0000       0.914406        24.8823 
 289   0.0000       0.922734        25.1089 
 290   0.0000       0.934089        25.4178 
 291   0.0000       0.937091        25.4995 
 292   0.0000       0.948237        25.8028 
 293   0.0000       0.952253        25.9121 
 294   0.0000       0.959191        26.1009 
 295   0.0000       0.964193        26.2370 
 296   0.0000       0.975016        26.5315 
 297   0.0000       0.977237        26.5920 
 298   0.0000       0.979164        26.6444 
 299   0.0000       0.986564        26.8458 
 300   0.0000       0.993162        27.0253 
 301   0.0000       0.994850        27.0712 
 302   0.0000       1.001276        27.2461 
 303   0.0000       1.003179        27.2979 
 304   0.0000       1.003247        27.2997 
 305   0.0000       1.011507        27.5245 
 306   0.0000       1.021664        27.8009 
 307   0.0000       1.024823        27.8869 
 308   0.0000       1.028367        27.9833 
 309   0.0000       1.032840        28.1050 
 310   0.0000       1.036372        28.2011 
 311   0.0000       1.044094        28.4112 
 312   0.0000       1.046865        28.4866 
 313   0.0000       1.048692        28.5364 
 314   0.0000       1.052675        28.6447 
 315   0.0000       1.059167        28.8214 
 316   0.0000       1.060273        28.8515 
 317   0.0000       1.071098        29.1461 
 318   0.0000       1.092002        29.7149 
 319   0.0000       1.094163        29.7737 
 320   0.0000       1.111436        30.2437 
 321   0.0000       1.112341        30.2683 
 322   0.0000       1.119357        30.4592 
 323   0.0000       1.123748        30.5787 
 324   0.0000       1.136729        30.9320 
 325   0.0000       1.146327        31.1931 
 326   0.0000       1.155581        31.4450 
 327   0.0000       1.170955        31.8633 
 328   0.0000       1.182167        32.1684 
 329   0.0000       1.188962        32.3533 
 330   0.0000       1.199544        32.6413 
 331   0.0000       1.207204        32.8497 
 332   0.0000       1.210273        32.9332 
 333   0.0000       1.214088        33.0370 
 334   0.0000       1.218290        33.1514 
 335   0.0000       1.221045        33.2263 
 336   0.0000       1.226648        33.3788 
 337   0.0000       1.229488        33.4561 
 338   0.0000       1.233444        33.5637 
 339   0.0000       1.253792        34.1174 
 340   0.0000       1.277490        34.7623 
 341   0.0000       1.279998        34.8305 
 342   0.0000       1.294572        35.2271 
 343   0.0000       1.299837        35.3704 
 344   0.0000       1.303194        35.4617 
 345   0.0000       1.314736        35.7758 
 346   0.0000       1.317984        35.8642 
 347   0.0000       1.329024        36.1646 
 348   0.0000       1.337899        36.4061 
 349   0.0000       1.358427        36.9647 
 350   0.0000       1.369385        37.2629 
 351   0.0000       1.380526        37.5660 
 352   0.0000       1.386789        37.7365 
 353   0.0000       1.387718        37.7617 
 354   0.0000       1.390470        37.8366 
 355   0.0000       1.403652        38.1953 
 356   0.0000       1.415692        38.5229 
 357   0.0000       1.416830        38.5539 
 358   0.0000       1.423985        38.7486 
 359   0.0000       1.425453        38.7885 
 360   0.0000       1.426677        38.8219 
 361   0.0000       1.440823        39.2068 
 362   0.0000       1.452703        39.5301 
 363   0.0000       1.459964        39.7277 
 364   0.0000       1.463944        39.8359 
 365   0.0000       1.476475        40.1769 
 366   0.0000       1.478387        40.2290 
 367   0.0000       1.480966        40.2991 
 368   0.0000       1.481938        40.3256 
 369   0.0000       1.483669        40.3727 
 370   0.0000       1.486362        40.4460 
 371   0.0000       1.494834        40.6765 
 372   0.0000       1.496284        40.7160 
 373   0.0000       1.498005        40.7628 
 374   0.0000       1.509905        41.0866 
 375   0.0000       1.513055        41.1723 
 376   0.0000       1.526258        41.5316 
 377   0.0000       1.533669        41.7333 
 378   0.0000       1.534396        41.7530 
 379   0.0000       1.544827        42.0369 
 380   0.0000       1.566531        42.6275 
 381   0.0000       1.571737        42.7691 
 382   0.0000       1.581493        43.0346 
 383   0.0000       1.585620        43.1469 
 384   0.0000       1.593671        43.3660 
 385   0.0000       1.598536        43.4984 
 386   0.0000       1.599158        43.5153 
 387   0.0000       1.599266        43.5182 
 388   0.0000       1.602657        43.6105 
 389   0.0000       1.607959        43.7548 
 390   0.0000       1.613887        43.9161 
 391   0.0000       1.616684        43.9922 
 392   0.0000       1.617633        44.0180 
 393   0.0000       1.624198        44.1967 
 394   0.0000       1.626976        44.2723 
 395   0.0000       1.628124        44.3035 
 396   0.0000       1.631541        44.3965 
 397   0.0000       1.638379        44.5826 
 398   0.0000       1.639145        44.6034 
 399   0.0000       1.640238        44.6332 
 400   0.0000       1.643793        44.7299 
 401   0.0000       1.646914        44.8148 
 402   0.0000       1.648329        44.8533 
 403   0.0000       1.652259        44.9603 
 404   0.0000       1.654348        45.0171 
 405   0.0000       1.661173        45.2028 
 406   0.0000       1.670940        45.4686 
 407   0.0000       1.671331        45.4792 
 408   0.0000       1.675368        45.5891 
 409   0.0000       1.681715        45.7618 
 410   0.0000       1.683812        45.8189 
 411   0.0000       1.684682        45.8425 
 412   0.0000       1.688418        45.9442 
 413   0.0000       1.690055        45.9887 
 414   0.0000       1.693566        46.0843 
 415   0.0000       1.697801        46.1995 
 416   0.0000       1.701415        46.2978 
 417   0.0000       1.705414        46.4067 
 418   0.0000       1.708088        46.4794 
 419   0.0000       1.712878        46.6098 
 420   0.0000       1.718001        46.7492 
 421   0.0000       1.723404        46.8962 
 422   0.0000       1.727390        47.0047 
 423   0.0000       1.737248        47.2729 
 424   0.0000       1.737619        47.2830 
 425   0.0000       1.742874        47.4260 
 426   0.0000       1.745331        47.4929 
 427   0.0000       1.754756        47.7493 
 428   0.0000       1.764927        48.0261 
 429   0.0000       1.771218        48.1973 
 430   0.0000       1.773874        48.2696 
 431   0.0000       1.774137        48.2767 
 432   0.0000       1.782424        48.5022 
 433   0.0000       1.785820        48.5946 
 434   0.0000       1.789155        48.6854 
 435   0.0000       1.790618        48.7252 
 436   0.0000       1.799191        48.9585 
 437   0.0000       1.800723        49.0002 
 438   0.0000       1.804495        49.1028 
 439   0.0000       1.806078        49.1459 
 440   0.0000       1.811541        49.2945 
 441   0.0000       1.827837        49.7380 
 442   0.0000       1.831747        49.8444 
 443   0.0000       1.832470        49.8640 
 444   0.0000       1.838890        50.0387 
 445   0.0000       1.841146        50.1001 
 446   0.0000       1.841372        50.1063 
 447   0.0000       1.845366        50.2150 
 448   0.0000       1.850108        50.3440 
 449   0.0000       1.851588        50.3843 
 450   0.0000       1.853296        50.4308 
 451   0.0000       1.854417        50.4613 
 452   0.0000       1.856275        50.5118 
 453   0.0000       1.864788        50.7435 
 454   0.0000       1.879171        51.1348 
 455   0.0000       1.895408        51.5767 
 456   0.0000       1.902628        51.7732 
 457   0.0000       1.907439        51.9041 
 458   0.0000       1.911537        52.0156 
 459   0.0000       1.923260        52.3346 
 460   0.0000       1.926853        52.4323 
 461   0.0000       1.933028        52.6004 
 462   0.0000       1.938576        52.7513 
 463   0.0000       1.959549        53.3220 
 464   0.0000       1.963761        53.4367 
 465   0.0000       1.966408        53.5087 
 466   0.0000       1.973301        53.6962 
 467   0.0000       1.974361        53.7251 
 468   0.0000       1.975530        53.7569 
 469   0.0000       1.986402        54.0527 
 470   0.0000       1.988969        54.1226 
 471   0.0000       1.991219        54.1838 
 472   0.0000       1.994314        54.2681 
 473   0.0000       1.996253        54.3208 
 474   0.0000       2.014780        54.8250 
 475   0.0000       2.031486        55.2795 
 476   0.0000       2.044693        55.6389 
 477   0.0000       2.055560        55.9346 
 478   0.0000       2.074987        56.4633 
 479   0.0000       2.075593        56.4798 
 480   0.0000       2.082228        56.6603 
 481   0.0000       2.084259        56.7156 
 482   0.0000       2.108980        57.3883 
 483   0.0000       2.114404        57.5359 
 484   0.0000       2.132315        58.0232 
 485   0.0000       2.151064        58.5334 
 486   0.0000       2.155801        58.6623 
 487   0.0000       2.160545        58.7914 
 488   0.0000       2.171760        59.0966 
 489   0.0000       2.188479        59.5516 
 490   0.0000       2.189170        59.5703 
 491   0.0000       2.196602        59.7726 
 492   0.0000       2.199203        59.8434 
 493   0.0000       2.204883        59.9979 
 494   0.0000       2.210270        60.1445 
 495   0.0000       2.219462        60.3946 
 496   0.0000       2.229552        60.6692 
 497   0.0000       2.237863        60.8953 
 498   0.0000       2.241067        60.9825 
 499   0.0000       2.249222        61.2044 
 500   0.0000       2.254247        61.3412 
 501   0.0000       2.277484        61.9735 
 502   0.0000       2.284861        62.1742 
 503   0.0000       2.302521        62.6548 
 504   0.0000       2.305574        62.7379 
 505   0.0000       2.306595        62.7656 
 506   0.0000       2.322685        63.2035 
 507   0.0000       2.337263        63.6002 
 508   0.0000       2.350978        63.9734 
 509   0.0000       2.361102        64.2488 
 510   0.0000       2.366082        64.3844 
 511   0.0000       2.371326        64.5271 
 512   0.0000       2.385622        64.9161 
 513   0.0000       2.408566        65.5404 
 514   0.0000       2.411408        65.6178 
 515   0.0000       2.412372        65.6440 
 516   0.0000       2.415513        65.7295 
 517   0.0000       2.416491        65.7561 
 518   0.0000       2.417307        65.7783 
 519   0.0000       2.417892        65.7942 
 520   0.0000       2.420708        65.8708 
 521   0.0000       2.423222        65.9392 
 522   0.0000       2.432342        66.1874 
 523   0.0000       2.445639        66.5492 
 524   0.0000       2.450379        66.6782 
 525   0.0000       2.462331        67.0034 
 526   0.0000       2.483776        67.5870 
 527   0.0000       2.497153        67.9510 
 528   0.0000       2.513840        68.4051 
 529   0.0000       2.530558        68.8600 
 530   0.0000       2.543032        69.1994 
 531   0.0000       2.552701        69.4625 
 532   0.0000       2.557370        69.5896 
 533   0.0000       2.576793        70.1181 
 534   0.0000       2.596047        70.6420 
 535   0.0000       2.604281        70.8661 
[...]
 Nucleus  56H : A:ISTP=    1 I=  0.5 P=533.5514 MHz/au**3
                Q:ISTP=    2 I=  1.0 Q=  0.0029 barn     
 -----------------------------------------------------------
 Solving for nuclear perturbation:
Forming RHS of the CP-SCF equations         ... 
Calc. nucleus orbit integrals (SHARK)       ... done

------------------------------------------------------------------------------
                           ORCA CP-SCF CALCULATION
------------------------------------------------------------------------------

Input orbitals are from        ... cc-pVDZ_i.gbw
Input Perturbation             ... cc-pVDZ_i.pin.tmp
Wavefunction output            ... cc-pVDZ_i.pout.tmp
Perturbation mode              ... Imaginary perturbation
Solver                         ... POPLE
Max. number of iterations      ... 64
Convergence tolerance          ... 1.000e-03
Integral handling              ... Direct
DFT GridXC                     ... 1
COSX GridX                     ... 1
COSX IntAccX                   ... 3.067
COSX Algorithm                 ... Auto
Number of perturbations        ... 3
Number of operators            ... 2
Orbital ranges used for CP-SCF:
 Operator 0:  Orbitals   0...104  to 105...564
 Operator 1:  Orbitals   0...103  to 104...564
Variables per perturbation     ... 96244
DFT calculation                         ... on
XC functional terms                     ... off
Hybrid DFT                              ... on
   Exchange mixing (SCF)                ...  0.200
   Exchange mixing (CP-SCF)             ...  0.200
   GGA exch. scaling(SCF)               ...  0.720
   GGA exch. scaling (CP-SCF)           ...  0.720
   GGA corr. scaling (SCF)              ...  0.810
   GGA corr. scaling (CP-SCF)           ...  0.810

CP-SCF GRID
-----------

General Integration Accuracy     IntAcc      ... 3.467
Radial Grid Type                 RadialGrid  ... OptM3 with GC (2021)
Angular Grid (max. ang.)         AngularGrid ... 1 (Lebedev-50)
Angular grid pruning method      GridPruning ... 4 (adaptive)
Weight generation scheme         WeightScheme... Becke
Basis function cutoff            BFCut       ... 1.0000e-10
Integration weight cutoff        WCut        ... 1.0000e-14
Angular grids for H and He will be reduced by one unit
Partially contracted basis set               ... off
Rotationally invariant grid construction     ... off

Total number of grid points                  ...    38985
Total number of batches                      ...      633
Average number of points per batch           ...       61
Average number of grid points per atom       ...      661

CP-SCF GRIDX
------------

General Integration Accuracy     IntAcc      ... 3.067
Radial Grid Type                 RadialGrid  ... OptM3 with GC (2021)
Angular Grid (max. ang.)         AngularGrid ... 1 (Lebedev-50)
Angular grid pruning method      GridPruning ... 4 (adaptive)
Weight generation scheme         WeightScheme... Becke
Basis function cutoff            BFCut       ... 1.0000e-10
Integration weight cutoff        WCut        ... 1.0000e-14
Angular grids for H and He will be reduced by one unit
Partially contracted basis set               ... on
Rotationally invariant grid construction     ... off

Total number of grid points                  ...    18241
Total number of batches                      ...      321
Average number of points per batch           ...       56
Average number of grid points per atom       ...      309

Memory available               ... 840.1 MB
Memory needed per perturbation ...  20.1 MB
Perturbations treated per batch... 3
Number of batches              ... 1
     CP-SCF ITERATION   0:   4.5868e-02 (   2.6 sec   0/  3 done)
     CP-SCF ITERATION   1:   2.0781e-03 (   2.7 sec   0/  3 done)
     CP-SCF ITERATION   2:   1.4370e-04 (   2.8 sec   3/  3 done)
                    *** THE CP-SCF HAS CONVERGED ***

Forming final perturbed densities           ... done
Transforming perturbed density to AO basis  ... done

 Raw HFC matrix (all values in MHz): 
 -----------------------------------
                -1.0731               0.5747              -0.0019
                 0.5746              -1.4647              -0.0019
                -0.0019              -0.0019              -2.5430

 A(FC)          -1.6940              -1.6940              -1.6940
 A(SD)           1.0316              -0.1828              -0.8488
 A(ORB+DIA)      0.0006               0.0008              -0.0002    A(PC) =   0.0004
 A(ORB)          0.0005               0.0006               0.0000    A(PC) =   0.0004
 A(DIA)          0.0001               0.0001              -0.0002    A(PC) =   0.0000
             ----------           ----------           ----------
 A(Tot)         -0.6618              -1.8760              -2.5430    A(iso)=   -1.6936
 Orientation: 
  X           0.8131639            0.5820343           -0.0007473
  Y           0.5820330           -0.8131639           -0.0014018
  Z          -0.0014236            0.0007049           -0.9999987

Notes:  (1) The A matrix conforms to the "SAI" spin Hamiltonian convention.
        (2) Tensor is right-handed.

 -----------------------------------------------------------
 Nucleus  57H : A:ISTP=    1 I=  0.5 P=533.5514 MHz/au**3
                Q:ISTP=    2 I=  1.0 Q=  0.0029 barn     
 -----------------------------------------------------------
 Solving for nuclear perturbation:
Forming RHS of the CP-SCF equations         ... 
Calc. nucleus orbit integrals (SHARK)       ... done

------------------------------------------------------------------------------
                           ORCA CP-SCF CALCULATION
------------------------------------------------------------------------------

Input orbitals are from        ... cc-pVDZ_i.gbw
Input Perturbation             ... cc-pVDZ_i.pin.tmp
Wavefunction output            ... cc-pVDZ_i.pout.tmp
Perturbation mode              ... Imaginary perturbation
Solver                         ... POPLE
Max. number of iterations      ... 64
Convergence tolerance          ... 1.000e-03
Integral handling              ... Direct
DFT GridXC                     ... 1
COSX GridX                     ... 1
COSX IntAccX                   ... 3.067
COSX Algorithm                 ... Auto
Number of perturbations        ... 3
Number of operators            ... 2
Orbital ranges used for CP-SCF:
 Operator 0:  Orbitals   0...104  to 105...564
 Operator 1:  Orbitals   0...103  to 104...564
Variables per perturbation     ... 96244
DFT calculation                         ... on
XC functional terms                     ... off
Hybrid DFT                              ... on
   Exchange mixing (SCF)                ...  0.200
   Exchange mixing (CP-SCF)             ...  0.200
   GGA exch. scaling(SCF)               ...  0.720
   GGA exch. scaling (CP-SCF)           ...  0.720
   GGA corr. scaling (SCF)              ...  0.810
   GGA corr. scaling (CP-SCF)           ...  0.810

CP-SCF GRID
-----------

General Integration Accuracy     IntAcc      ... 3.467
Radial Grid Type                 RadialGrid  ... OptM3 with GC (2021)
Angular Grid (max. ang.)         AngularGrid ... 1 (Lebedev-50)
Angular grid pruning method      GridPruning ... 4 (adaptive)
Weight generation scheme         WeightScheme... Becke
Basis function cutoff            BFCut       ... 1.0000e-10
Integration weight cutoff        WCut        ... 1.0000e-14
Angular grids for H and He will be reduced by one unit
Partially contracted basis set               ... off
Rotationally invariant grid construction     ... off

Total number of grid points                  ...    38985
Total number of batches                      ...      633
Average number of points per batch           ...       61
Average number of grid points per atom       ...      661

CP-SCF GRIDX
------------

General Integration Accuracy     IntAcc      ... 3.067
Radial Grid Type                 RadialGrid  ... OptM3 with GC (2021)
Angular Grid (max. ang.)         AngularGrid ... 1 (Lebedev-50)
Angular grid pruning method      GridPruning ... 4 (adaptive)
Weight generation scheme         WeightScheme... Becke
Basis function cutoff            BFCut       ... 1.0000e-10
Integration weight cutoff        WCut        ... 1.0000e-14
Angular grids for H and He will be reduced by one unit
Partially contracted basis set               ... on
Rotationally invariant grid construction     ... off

Total number of grid points                  ...    18241
Total number of batches                      ...      321
Average number of points per batch           ...       56
Average number of grid points per atom       ...      309

Memory available               ... 839.5 MB
Memory needed per perturbation ...  20.1 MB
Perturbations treated per batch... 3
Number of batches              ... 1
     CP-SCF ITERATION   0:   4.5753e-02 (   2.6 sec   0/  3 done)
     CP-SCF ITERATION   1:   1.9712e-03 (   2.8 sec   0/  3 done)
     CP-SCF ITERATION   2:   1.3616e-04 (   2.7 sec   3/  3 done)
                    *** THE CP-SCF HAS CONVERGED ***

Forming final perturbed densities           ... done
Transforming perturbed density to AO basis  ... done

 Raw HFC matrix (all values in MHz): 
 -----------------------------------
                -1.8535              -0.2503               0.0001
                -0.2497              -0.9832              -0.0022
                 0.0001              -0.0022              -2.2364

 A(FC)          -1.6913              -1.6913              -1.6913
 A(SD)           0.7747              -0.2298              -0.5450
 A(ORB+DIA)      0.0002               0.0009              -0.0001    A(PC) =   0.0003
 A(ORB)          0.0000               0.0008               0.0000    A(PC) =   0.0003
 A(DIA)          0.0001               0.0001              -0.0001    A(PC) =   0.0001
             ----------           ----------           ----------
 A(Tot)         -0.9165              -1.9202              -2.2364    A(iso)=   -1.6910
 Orientation: 
  X          -0.2580015            0.9661439           -0.0011326
  Y           0.9661431            0.2579990           -0.0019887
  Z          -0.0016292           -0.0016073           -0.9999974

Notes:  (1) The A matrix conforms to the "SAI" spin Hamiltonian convention.
        (2) Tensor is right-handed.

 -----------------------------------------------------------
 Nucleus  58H : A:ISTP=    1 I=  0.5 P=533.5514 MHz/au**3
                Q:ISTP=    2 I=  1.0 Q=  0.0029 barn     
 -----------------------------------------------------------
 Solving for nuclear perturbation:
Forming RHS of the CP-SCF equations         ... 
Calc. nucleus orbit integrals (SHARK)       ... done

------------------------------------------------------------------------------
                           ORCA CP-SCF CALCULATION
------------------------------------------------------------------------------

Input orbitals are from        ... cc-pVDZ_i.gbw
Input Perturbation             ... cc-pVDZ_i.pin.tmp
Wavefunction output            ... cc-pVDZ_i.pout.tmp
Perturbation mode              ... Imaginary perturbation
Solver                         ... POPLE
Max. number of iterations      ... 64
Convergence tolerance          ... 1.000e-03
Integral handling              ... Direct
DFT GridXC                     ... 1
COSX GridX                     ... 1
COSX IntAccX                   ... 3.067
COSX Algorithm                 ... Auto
Number of perturbations        ... 3
Number of operators            ... 2
Orbital ranges used for CP-SCF:
 Operator 0:  Orbitals   0...104  to 105...564
 Operator 1:  Orbitals   0...103  to 104...564
Variables per perturbation     ... 96244
DFT calculation                         ... on
XC functional terms                     ... off
Hybrid DFT                              ... on
   Exchange mixing (SCF)                ...  0.200
   Exchange mixing (CP-SCF)             ...  0.200
   GGA exch. scaling(SCF)               ...  0.720
   GGA exch. scaling (CP-SCF)           ...  0.720
   GGA corr. scaling (SCF)              ...  0.810
   GGA corr. scaling (CP-SCF)           ...  0.810

CP-SCF GRID
-----------

General Integration Accuracy     IntAcc      ... 3.467
Radial Grid Type                 RadialGrid  ... OptM3 with GC (2021)
Angular Grid (max. ang.)         AngularGrid ... 1 (Lebedev-50)
Angular grid pruning method      GridPruning ... 4 (adaptive)
Weight generation scheme         WeightScheme... Becke
Basis function cutoff            BFCut       ... 1.0000e-10
Integration weight cutoff        WCut        ... 1.0000e-14
Angular grids for H and He will be reduced by one unit
Partially contracted basis set               ... off
Rotationally invariant grid construction     ... off

Total number of grid points                  ...    38985
Total number of batches                      ...      633
Average number of points per batch           ...       61
Average number of grid points per atom       ...      661

CP-SCF GRIDX
------------

General Integration Accuracy     IntAcc      ... 3.067
Radial Grid Type                 RadialGrid  ... OptM3 with GC (2021)
Angular Grid (max. ang.)         AngularGrid ... 1 (Lebedev-50)
Angular grid pruning method      GridPruning ... 4 (adaptive)
Weight generation scheme         WeightScheme... Becke
Basis function cutoff            BFCut       ... 1.0000e-10
Integration weight cutoff        WCut        ... 1.0000e-14
Angular grids for H and He will be reduced by one unit
Partially contracted basis set               ... on
Rotationally invariant grid construction     ... off

Total number of grid points                  ...    18241
Total number of batches                      ...      321
Average number of points per batch           ...       56
Average number of grid points per atom       ...      309

Memory available               ... 838.8 MB
Memory needed per perturbation ...  20.1 MB
Perturbations treated per batch... 3
Number of batches              ... 1
     CP-SCF ITERATION   0:   4.1661e-02 (   2.6 sec   0/  3 done)
     CP-SCF ITERATION   1:   1.7141e-03 (   2.7 sec   2/  3 done)
     CP-SCF ITERATION   2:   9.1196e-05 (   1.8 sec   3/  3 done)
                    *** THE CP-SCF HAS CONVERGED ***

Forming final perturbed densities           ... done
Transforming perturbed density to AO basis  ... done

 Raw HFC matrix (all values in MHz): 
 -----------------------------------
                 1.3463               0.2773              -0.0005
                 0.2773               0.5381              -0.0002
                -0.0005              -0.0002               0.3315

 A(FC)           0.7387               0.7387               0.7387
 A(SD)          -0.4072              -0.2867               0.6938
 A(ORB+DIA)     -0.0000               0.0001              -0.0002    A(PC) =  -0.0000
 A(ORB)         -0.0000               0.0001              -0.0002    A(PC) =  -0.0000
 A(DIA)          0.0000              -0.0000               0.0000    A(PC) =   0.0000
             ----------           ----------           ----------
 A(Tot)          0.3315               0.4521               1.4323    A(iso)=    0.7386
 Orientation: 
  X           0.0003240           -0.2962275           -0.9551173
  Y           0.0004777            0.9551173           -0.2962274
  Z           0.9999998           -0.0003603            0.0004509

Notes:  (1) The A matrix conforms to the "SAI" spin Hamiltonian convention.
        (2) Tensor is right-handed.


--------------------------------------------------------------------------------
----------------------------------------------------------------------------
                           ORCA EULER ANGLE PROGRAM
----------------------------------------------------------------------------

Only g-tensor available        -->  using g-tensor as reference tensor

Reference tensor               ...  g

g-tensor ordering              ...  |g_min> --> |gx>
                                    |g_mid> --> |gy>
                                    |g_max> --> |gz>

A- and EFG-tensor ordering     ...  the axes |Ax>, |Qx>, |Ay>, etc. are assigned
                                    such that the Euler rotation is minimal. You
                                    can find the respective eigenvalues as Ax,
                                    EFGx, Ay, etc. in the tables below.
                                    The relation of |Ax>, |Ay>,  etc. to Amin, Amid, etc.
                                    (as printed in the ORCA EPR/NMR CALCULATION Output)
                                    is obtained in the detailed printout.

Euler rotation around          ...  z - y - z
   First rotation              -->  by alpha around z
   Second rotation             -->  by beta around y'
   Third rotation              -->  by gamma around z''
   Positive / Negative angle   -->  clockwise / counterclockwise rotation

Plot EFG-tensors                    (-)
Plot HFC-tensors                    (-)
Detailed Printout                   (-)

-------------------------------------------------------------------------
          Euler rotation of hyperfine tensor to g-tensor
-------------------------------------------------------------------------

-------------------------------------------------------------------
 Atom  |   Alpha    Beta    Gamma   |   Ax       Ay       Az 
       |          [degrees]         |           [MHz]         
-------------------------------------------------------------------
  9H       91.5      2.3    -91.5     -16.11    -7.05   -19.67
 10H       89.8      5.3    -89.9       4.04     4.66     9.40
 12H       89.9     42.5    -90.0     -45.76   -70.55   -17.14
 14H       12.0     12.0      5.7      56.45    65.92    57.73
 15H      168.2     11.3    174.2      56.03    65.50    57.32
 17H      -30.5     29.5     59.6      -3.15    -2.98     3.14
 18H     -149.2     29.3    119.8      -3.14    -2.98     3.13
 20H      131.0     46.4   -153.5      -0.10     2.22     0.03
 21H       48.7     47.0    -26.0      -0.10     2.22     0.03
 23H      149.0     17.5    169.8      19.85    20.40    23.47
 24H       31.0     17.6     10.3      19.87    20.43    23.50
 26H       82.5     28.6    -95.4      -0.96     0.96    -0.83
 27H       97.8     28.5    -84.2      -0.96     0.96    -0.84
 29H      -69.7     31.1    106.9      -0.10    -0.15     0.79
 30H     -110.3     31.1     73.2      -0.10    -0.15     0.79
 32H       95.2     41.9    -87.0      -0.13     0.38    -0.10
 33H       84.7     41.9    -92.8      -0.13     0.37    -0.10
 35H      -91.7     40.0     89.8      -0.78    -0.80     0.75
 36H      -89.5     38.3     90.0      -0.13    -0.13     0.24
 43H       90.1     44.2    -90.0       0.66     1.12     0.39
 44H       90.7      2.1    -90.6      -0.28    -0.46    -0.12
 45H      -90.0     35.3     90.1       0.52     1.42     0.10
 46H       90.1     21.4    -90.1       0.57     0.11     1.35
 47H      -90.3     19.8     90.4      -0.30    -0.15    -0.41
 54H      -90.1     43.6     90.1      -1.98    -0.50    -3.07
 55H       90.1     36.8    -90.0       0.39     0.62     1.21
 56H      -90.4     13.7     90.4      -2.54    -0.66    -1.88
 57H      -90.1     34.3     90.1      -2.24    -1.92    -0.92
 58H      -90.2     32.0     90.2       0.33     1.43     0.45
-------------------------------------------------------------------


Maximum memory used throughout the entire EPRNMR-calculation: 284.0 MB

Timings for individual modules:

Sum of individual times         ...    10392.341 sec (= 173.206 min)
GTO integral calculation        ...        5.775 sec (=   0.096 min)   0.1 %
Spin-Orbit-Coupling Matrices    ...       12.963 sec (=   0.216 min)   0.1 %
SCF iterations                  ...      141.908 sec (=   2.365 min)   1.4 %
EPR/NMR calculation             ...    10231.695 sec (= 170.528 min)  98.5 %
                             ****ORCA TERMINATED NORMALLY****
TOTAL RUN TIME: 0 days 2 hours 53 minutes 16 seconds 485 msec
