
                                 *****************
                                 * O   R   C   A *
                                 *****************

                                            #,                                       
                                            ###                                      
                                            ####                                     
                                            #####                                    
                                            ######                                   
                                           ########,                                 
                                     ,,################,,,,,                         
                               ,,#################################,,                 
                          ,,##########################################,,             
                       ,#########################################, ''#####,          
                    ,#############################################,,   '####,        
                  ,##################################################,,,,####,       
                ,###########''''           ''''###############################       
              ,#####''   ,,,,##########,,,,          '''####'''          '####       
            ,##' ,,,,###########################,,,                        '##       
           ' ,,###''''                  '''############,,,                           
         ,,##''                                '''############,,,,        ,,,,,,###''
      ,#''                                            '''#######################'''  
     '                                                          ''''####''''         
             ,#######,   #######,   ,#######,      ##                                
            ,#'     '#,  ##    ##  ,#'     '#,    #''#        ######   ,####,        
            ##       ##  ##   ,#'  ##            #'  '#       #        #'  '#        
            ##       ##  #######   ##           ,######,      #####,   #    #        
            '#,     ,#'  ##    ##  '#,     ,#' ,#      #,         ##   #,  ,#        
             '#######'   ##     ##  '#######'  #'      '#     #####' # '####'        



                  #######################################################
                  #                        -***-                        #
                  #          Department of theory and spectroscopy      #
                  #    Directorship and core code : Frank Neese         #
                  #        Max Planck Institute fuer Kohlenforschung    #
                  #                Kaiser Wilhelm Platz 1               #
                  #                 D-45470 Muelheim/Ruhr               #
                  #                      Germany                        #
                  #                                                     #
                  #                  All rights reserved                #
                  #                        -***-                        #
                  #######################################################


                         Program Version 5.0.4 -  RELEASE  -


 With contributions from (in alphabetic order):
   Daniel Aravena         : Magnetic Suceptibility
   Michael Atanasov       : Ab Initio Ligand Field Theory (pilot matlab implementation)
   Alexander A. Auer      : GIAO ZORA, VPT2 properties, NMR spectrum
   Ute Becker             : Parallelization
   Giovanni Bistoni       : ED, misc. LED, open-shell LED, HFLD
   Martin Brehm           : Molecular dynamics
   Dmytro Bykov           : SCF Hessian
   Vijay G. Chilkuri      : MRCI spin determinant printing, contributions to CSF-ICE
   Dipayan Datta          : RHF DLPNO-CCSD density
   Achintya Kumar Dutta   : EOM-CC, STEOM-CC
   Dmitry Ganyushin       : Spin-Orbit,Spin-Spin,Magnetic field MRCI
   Miquel Garcia          : C-PCM and meta-GGA Hessian, CC/C-PCM, Gaussian charge scheme
   Yang Guo               : DLPNO-NEVPT2, F12-NEVPT2, CIM, IAO-localization
   Andreas Hansen         : Spin unrestricted coupled pair/coupled cluster methods
   Benjamin Helmich-Paris : MC-RPA, TRAH-SCF, COSX integrals
   Lee Huntington         : MR-EOM, pCC
   Robert Izsak           : Overlap fitted RIJCOSX, COSX-SCS-MP3, EOM
   Marcus Kettner         : VPT2
   Christian Kollmar      : KDIIS, OOCD, Brueckner-CCSD(T), CCSD density, CASPT2, CASPT2-K
   Simone Kossmann        : Meta GGA functionals, TD-DFT gradient, OOMP2, MP2 Hessian
   Martin Krupicka        : Initial AUTO-CI
   Lucas Lang             : DCDCAS
   Marvin Lechner         : AUTO-CI (C++ implementation), FIC-MRCC
   Dagmar Lenk            : GEPOL surface, SMD
   Dimitrios Liakos       : Extrapolation schemes; Compound Job, initial MDCI parallelization
   Dimitrios Manganas     : Further ROCIS development; embedding schemes
   Dimitrios Pantazis     : SARC Basis sets
   Anastasios Papadopoulos: AUTO-CI, single reference methods and gradients
   Taras Petrenko         : DFT Hessian,TD-DFT gradient, ASA, ECA, R-Raman, ABS, FL, XAS/XES, NRVS
   Peter Pinski           : DLPNO-MP2, DLPNO-MP2 Gradient
   Christoph Reimann      : Effective Core Potentials
   Marius Retegan         : Local ZFS, SOC
   Christoph Riplinger    : Optimizer, TS searches, QM/MM, DLPNO-CCSD(T), (RO)-DLPNO pert. Triples
   Tobias Risthaus        : Range-separated hybrids, TD-DFT gradient, RPA, STAB
   Michael Roemelt        : Original ROCIS implementation
   Masaaki Saitow         : Open-shell DLPNO-CCSD energy and density
   Barbara Sandhoefer     : DKH picture change effects
   Avijit Sen             : IP-ROCIS
   Kantharuban Sivalingam : CASSCF convergence, NEVPT2, FIC-MRCI
   Bernardo de Souza      : ESD, SOC TD-DFT
   Georgi Stoychev        : AutoAux, RI-MP2 NMR, DLPNO-MP2 response
   Willem Van den Heuvel  : Paramagnetic NMR
   Boris Wezisla          : Elementary symmetry handling
   Frank Wennmohs         : Technical directorship


 We gratefully acknowledge several colleagues who have allowed us to
 interface, adapt or use parts of their codes:
   Stefan Grimme, W. Hujo, H. Kruse, P. Pracht,  : VdW corrections, initial TS optimization,
                  C. Bannwarth, S. Ehlert          DFT functionals, gCP, sTDA/sTD-DF
   Ed Valeev, F. Pavosevic, A. Kumar             : LibInt (2-el integral package), F12 methods
   Garnet Chan, S. Sharma, J. Yang, R. Olivares  : DMRG
   Ulf Ekstrom                                   : XCFun DFT Library
   Mihaly Kallay                                 : mrcc  (arbitrary order and MRCC methods)
   Jiri Pittner, Ondrej Demel                    : Mk-CCSD
   Frank Weinhold                                : gennbo (NPA and NBO analysis)
   Christopher J. Cramer and Donald G. Truhlar   : smd solvation model
   Lars Goerigk                                  : TD-DFT with DH, B97 family of functionals
   V. Asgeirsson, H. Jonsson                     : NEB implementation
   FAccTs GmbH                                   : IRC, NEB, NEB-TS, DLPNO-Multilevel, CI-OPT
                                                   MM, QMMM, 2- and 3-layer-ONIOM, Crystal-QMMM,
                                                   LR-CPCM, SF, NACMEs, symmetry and pop. for TD-DFT,
                                                   nearIR, NL-DFT gradient (VV10), updates on ESD,
                                                   ML-optimized integration grids
   S Lehtola, MJT Oliveira, MAL Marques          : LibXC Library
   Liviu Ungur et al                             : ANISO software


 Your calculation uses the libint2 library for the computation of 2-el integrals
 For citations please refer to: http://libint.valeyev.net

 Your ORCA version has been built with support for libXC version: 5.1.0
 For citations please refer to: https://tddft.org/programs/libxc/

 This ORCA versions uses:
   CBLAS   interface :  Fast vector & matrix operations
   LAPACKE interface :  Fast linear algebra routines
   SCALAPACK package :  Parallel linear algebra routines
   Shared memory     :  Shared parallel matrices
   BLAS/LAPACK       :  OpenBLAS 0.3.15  USE64BITINT DYNAMIC_ARCH NO_AFFINITY SkylakeX SINGLE_THREADED
        Core in use  :  SkylakeX
   Copyright (c) 2011-2014, The OpenBLAS Project




***************************************
The coordinates will be read from file: opt.xyz
***************************************


================================================================================

----- Orbital basis set information -----
Your calculation utilizes the basis: EPR-II
   V. Barone, in Recent Advances in Density Functional Methods, Part 1 (ed. D. P. Chong), World Scientific, Singapore, 1995, p. 287.

----- AuxJ basis set information -----
Your calculation utilizes the AutoAux generation procedure.
  G. L. Stoychev, A. A. Auer, F. Neese, J. Chem. Theory Comput. 13, 554 (2017)

----- AuxC basis set information -----
Your calculation utilizes the AutoAux generation procedure.
  G. L. Stoychev, A. A. Auer, F. Neese, J. Chem. Theory Comput. 13, 554 (2017)

----- AuxJK basis set information -----
Your calculation utilizes the AutoAux generation procedure.
  G. L. Stoychev, A. A. Auer, F. Neese, J. Chem. Theory Comput. 13, 554 (2017)

================================================================================
                                        WARNINGS
                       Please study these warnings very carefully!
================================================================================

WARNING: Old DensityContainer found on disk!
         Will remove this file - 
         If you want to keep old densities, please start your calculation with a different basename. 


WARNING: your system is open-shell and RHF/RKS was chosen
  ===> : WILL SWITCH to UHF/UKS


INFO   : the flag for use of the SHARK integral package has been found!

================================================================================
                                       INPUT FILE
================================================================================
NAME = EPRII.inp
|  1> ! B3LYP EPR-II AUTOAUX
|  2> %pal nprocs 16 end
|  3> *XYZFile 0 2 opt.xyz
|  4> %EPRNMR
|  5>         GTENSOR   TRUE
|  6>         NUCLEI    = ALL H {SHIFT, AISO, ADIP, AORB}
|  7>         ORI       CenterOfElCharge
|  8> END
|  9> 
| 10>                          ****END OF INPUT****
================================================================================

                       ****************************
                       * Single Point Calculation *
                       ****************************

---------------------------------
CARTESIAN COORDINATES (ANGSTROEM)
---------------------------------
  C     -4.058780   -0.114027   -0.000729
  C     -2.837067   -0.037217    0.000458
  C      2.839456    0.025128    0.001303
  C     -1.417730    0.016651    0.000204
  C     -0.712128    1.278604   -0.003269
  C      0.709687    1.211983   -0.002475
  C      1.411298    0.003549    0.000975
  C      0.702255   -1.241266    0.003983
  C     -0.691408   -1.190779    0.003621
  H      1.285445    2.137757   -0.004762
  H     -1.264663   -2.117693    0.006030
  C     -1.396749    2.512534   -0.007530
  H     -2.489374    2.477379   -0.008222
  C     -0.740034    3.860790   -0.011243
  H     -0.071952    3.959921    0.869257
  H     -0.065383    3.951892   -0.887544
  C     -1.737595    5.026485   -0.020436
  H     -2.392913    4.932401   -0.905600
  H     -2.399942    4.940503    0.860321
  C     -1.059047    6.397666   -0.024026
  H     -0.415065    6.523869   -0.911556
  H     -0.422198    6.532067    0.867440
  C      1.476339   -2.542840    0.007434
  H      2.155053   -2.543120   -0.866126
  H      2.153685   -2.539371    0.882056
  C      0.658132   -3.836796    0.009521
  H     -0.005723   -3.860159    0.893279
  H     -0.004355   -3.863766   -0.875166
  C      1.539543   -5.091841    0.012796
  H      2.206455   -5.070185   -0.869111
  H      2.204866   -5.066716    0.895810
  C      0.733887   -6.393511    0.014637
  H      0.084970   -6.463882   -0.875410
  H      0.082960   -6.460115    0.903504
  C      4.061356    0.051700    0.002498
  H     -1.799216    7.213950   -0.030767
  H      1.392930   -7.276874    0.017252
  C      5.489033    0.088671    0.002622
  C      6.175837    1.322543    0.001416
  C      7.570008    1.354492    0.001416
  C      8.304589    0.163225    0.002633
  C      7.634082   -1.065321    0.003864
  C      6.240226   -1.107100    0.003878
  H      9.396716    0.192185    0.002617
  H      8.202215   -1.998703    0.004810
  H      5.600673    2.250353    0.000473
  H      5.715229   -2.064211    0.004815
  H      8.088008    2.316597    0.000461
  C     -5.481361   -0.217167   -0.000792
  C     -6.291506    0.940362   -0.001962
  C     -7.681432    0.829777   -0.001873
  C     -8.291180   -0.430157   -0.000632
  C     -7.498648   -1.583951    0.000528
  C     -6.108081   -1.483701    0.000446
  H     -9.380565   -0.512687   -0.000545
  H     -7.968746   -2.570377    0.001498
  H     -5.815246    1.922629   -0.002861
  H     -5.488129   -2.382218    0.001345
  H     -8.294683    1.734189   -0.002759

----------------------------
CARTESIAN COORDINATES (A.U.)
----------------------------
  NO LB      ZA    FRAG     MASS         X           Y           Z
   0 C     6.0000    0    12.011   -7.669983   -0.215479   -0.001378
   1 C     6.0000    0    12.011   -5.361279   -0.070330    0.000865
   2 C     6.0000    0    12.011    5.365794    0.047486    0.002462
   3 C     6.0000    0    12.011   -2.679121    0.031465    0.000385
   4 C     6.0000    0    12.011   -1.345726    2.416212   -0.006177
   5 C     6.0000    0    12.011    1.341114    2.290315   -0.004677
   6 C     6.0000    0    12.011    2.666966    0.006706    0.001843
   7 C     6.0000    0    12.011    1.327070   -2.345653    0.007526
   8 C     6.0000    0    12.011   -1.306572   -2.250246    0.006843
   9 H     1.0000    0     1.008    2.429140    4.039775   -0.008998
  10 H     1.0000    0     1.008   -2.389867   -4.001860    0.011394
  11 C     6.0000    0    12.011   -2.639472    4.748001   -0.014229
  12 H     1.0000    0     1.008   -4.704235    4.681567   -0.015538
  13 C     6.0000    0    12.011   -1.398462    7.295835   -0.021246
  14 H     1.0000    0     1.008   -0.135969    7.483167    1.642658
  15 H     1.0000    0     1.008   -0.123556    7.467993   -1.677215
  16 C     6.0000    0    12.011   -3.283580    9.498680   -0.038619
  17 H     1.0000    0     1.008   -4.521951    9.320886   -1.711336
  18 H     1.0000    0     1.008   -4.535233    9.336197    1.625771
  19 C     6.0000    0    12.011   -2.001308   12.089837   -0.045402
  20 H     1.0000    0     1.008   -0.784360   12.328325   -1.722592
  21 H     1.0000    0     1.008   -0.797838   12.343818    1.639225
  22 C     6.0000    0    12.011    2.789877   -4.805272    0.014049
  23 H     1.0000    0     1.008    4.072461   -4.805801   -1.636741
  24 H     1.0000    0     1.008    4.069875   -4.798716    1.666845
  25 C     6.0000    0    12.011    1.243690   -7.250493    0.017991
  26 H     1.0000    0     1.008   -0.010815   -7.294643    1.688052
  27 H     1.0000    0     1.008   -0.008229   -7.301460   -1.653824
  28 C     6.0000    0    12.011    2.909315   -9.622185    0.024181
  29 H     1.0000    0     1.008    4.169596   -9.581262   -1.642383
  30 H     1.0000    0     1.008    4.166594   -9.574705    1.692836
  31 C     6.0000    0    12.011    1.386845  -12.081985    0.027659
  32 H     1.0000    0     1.008    0.160570  -12.214966   -1.654286
  33 H     1.0000    0     1.008    0.156772  -12.207847    1.707374
  34 C     6.0000    0    12.011    7.674851    0.097700    0.004721
  35 H     1.0000    0     1.008   -3.400025   13.632390   -0.058142
  36 H     1.0000    0     1.008    2.632257  -13.751299    0.032602
  37 C     6.0000    0    12.011   10.372770    0.167563    0.004955
  38 C     6.0000    0    12.011   11.670641    2.499244    0.002676
  39 C     6.0000    0    12.011   14.305241    2.559620    0.002675
  40 C     6.0000    0    12.011   15.693399    0.308451    0.004975
  41 C     6.0000    0    12.011   14.426324   -2.013166    0.007303
  42 C     6.0000    0    12.011   11.792319   -2.092115    0.007328
  43 H     1.0000    0     1.008   17.757221    0.363176    0.004945
  44 H     1.0000    0     1.008   15.499941   -3.777002    0.009089
  45 H     1.0000    0     1.008   10.583739    4.252552    0.000893
  46 H     1.0000    0     1.008   10.800217   -3.900793    0.009099
  47 H     1.0000    0     1.008   15.284121    4.377734    0.000870
  48 C     6.0000    0    12.011  -10.358271   -0.410386   -0.001496
  49 C     6.0000    0    12.011  -11.889224    1.777027   -0.003708
  50 C     6.0000    0    12.011  -14.515803    1.568051   -0.003539
  51 C     6.0000    0    12.011  -15.668060   -0.812879   -0.001194
  52 C     6.0000    0    12.011  -14.170391   -2.993233    0.000997
  53 C     6.0000    0    12.011  -11.542601   -2.803788    0.000842
  54 H     1.0000    0     1.008  -17.726698   -0.968838   -0.001030
  55 H     1.0000    0     1.008  -15.058748   -4.857308    0.002830
  56 H     1.0000    0     1.008  -10.989222    3.633242   -0.005406
  57 H     1.0000    0     1.008  -10.371061   -4.501739    0.002541
  58 H     1.0000    0     1.008  -15.674678    3.277142   -0.005214

--------------------------------
INTERNAL COORDINATES (ANGSTROEM)
--------------------------------
 C      0   0   0     0.000000000000     0.00000000     0.00000000
 C      1   0   0     1.224126443433     0.00000000     0.00000000
 C      2   1   0     5.676864868464   177.03140915     0.00000000
 C      2   1   3     1.420358645532   178.57449228     1.73877668
 C      4   2   1     1.445826295041   121.38448468   177.19897879
 C      5   4   2     1.423375089311   116.52816424   179.96755751
 C      6   5   4     1.397348470617   122.82193934     0.00000000
 C      7   6   5     1.432590108934   120.19523973     0.00000000
 C      8   7   6     1.394577932782   117.59088971     0.00000000
 H      6   5   4     1.090210974542   119.19545768   180.01422906
 H      9   8   7     1.089860605267   119.66011565   180.01068752
 C      5   4   2     1.411136367371   121.76633426   359.95363882
 H     12   5   4     1.093191043477   117.17994550     0.00000000
 C     12   5   4     1.499693772310   125.00739805   179.99730656
 H     14  12   5     1.109703449874   109.99741929   302.41126797
 H     14  12   5     1.109665334815   109.99854623    57.19641117
 C     14  12   5     1.534294192207   113.47464441   179.79919469
 H     17  14  12     1.105354381134   109.00143726   302.33343419
 H     17  14  12     1.105363751985   109.00917860    57.64935036
 C     17  14  12     1.529895164183   113.11544112   179.99404752
 H     20  17  14     1.103788857462   111.29232654    59.86593035
 H     20  17  14     1.103789630808   111.29292028   300.11999163
 C      8   7   6     1.514368915849   119.59327999   179.98817634
 H     23   8   7     1.106237105759   108.18168280   303.76792127
 H     23   8   7     1.106242671424   108.18500334    56.31132860
 C     23   8   7     1.530943263048   116.95250926   180.04297036
 H     26  23   8     1.105567017383   109.86877713   301.73860173
 H     26  23   8     1.105571084326   109.86361863    58.24894927
 C     26  23   8     1.533634617521   112.61356005   179.99322952
 H     29  26  23     1.105893774928   109.19947972   302.34296274
 H     29  26  23     1.105893380011   109.20043303    57.67897657
 C     29  26  23     1.530826384355   113.16490503   180.01103911
 H     32  29  26     1.103734026067   111.26385321    59.86765382
 H     32  29  26     1.103732869483   111.26351558   300.16286423
 C      3   2   1     1.222189708357   179.38164601   183.49857717
 H     20  17  14     1.101914546728   111.47092752   179.99208124
 H     32  29  26     1.102123076063   111.51983900   180.01536577
 C     35   3   7     1.428155937338   179.75699023   341.42766537
 C     38  35   3     1.412141095159   120.58474753    12.07271998
 C     39  38  35     1.394536324157   120.41417232   180.00598973
 C     40  39  38     1.399545890040   120.34679423     0.00000000
 C     41  40  39     1.399610286834   119.71592610     0.00000000
 C     42  41  40     1.394481562585   120.34131874     0.00000000
 H     41  40  39     1.092511090393   120.14065751   179.99930227
 H     42  41  40     1.092692925615   120.04735498   179.99952415
 H     39  38  35     1.091625860164   119.10319965     0.00000000
 H     43  42  41     1.091643012532   120.46259005   179.99862574
 H     40  39  38     1.092689774159   119.61095409   179.99912119
 C      1   2   4     1.426314715428   179.44811046     8.16152607
 C     49   1   2     1.412873063984   120.84104545   174.53750930
 C     50  49   1     1.394318111783   120.43886245   180.00675065
 C     51  50  49     1.399724353652   120.37375199     0.00000000
 C     52  51  50     1.399767398913   119.69036683     0.00000000
 C     53  52  51     1.394175906037   120.36137841     0.00000000
 H     52  51  50     1.092505904272   120.15711823   179.99875534
 H     53  52  51     1.092716544239   120.03421118   180.00008802
 H     50  49   1     1.091637733331   119.14533143     0.00000000
 H     54  53  52     1.091638126460   120.48110760   180.00024613
 H     51  50  49     1.092720314622   119.59084068   179.99831588

---------------------------
INTERNAL COORDINATES (A.U.)
---------------------------
 C      0   0   0     0.000000000000     0.00000000     0.00000000
 C      1   0   0     2.313263731380     0.00000000     0.00000000
 C      2   1   0    10.727719900675   177.03140915     0.00000000
 C      2   1   3     2.684088852002   178.57449228     1.73877668
 C      4   2   1     2.732215734849   121.38448468   177.19897879
 C      5   4   2     2.689789104643   116.52816424   179.96755751
 C      6   5   4     2.640605923120   122.82193934     0.00000000
 C      7   6   5     2.707202968050   120.19523973     0.00000000
 C      8   7   6     2.635370365368   117.59088971     0.00000000
 H      6   5   4     2.060200170080   119.19545768   180.01422906
 H      9   8   7     2.059538068105   119.66011565   180.01068752
 C      5   4   2     2.666661271947   121.76633426   359.95363882
 H     12   5   4     2.065831684227   117.17994550     0.00000000
 C     12   5   4     2.834010514413   125.00739805   179.99730656
 H     14  12   5     2.097035610129   109.99741929   302.41126797
 H     14  12   5     2.096963583106   109.99854623    57.19641117
 C     14  12   5     2.899395832138   113.47464441   179.79919469
 H     17  14  12     2.088817061272   109.00143726   302.33343419
 H     17  14  12     2.088834769616   109.00917860    57.64935036
 C     17  14  12     2.891082873916   113.11544112   179.99404752
 H     20  17  14     2.085858650278   111.29232654    59.86593035
 H     20  17  14     2.085860111689   111.29292028   300.11999163
 C      8   7   6     2.861742516678   119.59327999   179.98817634
 H     23   8   7     2.090485169067   108.18168280   303.76792127
 H     23   8   7     2.090495686648   108.18500334    56.31132860
 C     23   8   7     2.893063493732   116.95250926   180.04297036
 H     26  23   8     2.089218885550   109.86877713   301.73860173
 H     26  23   8     2.089226570958   109.86361863    58.24894927
 C     26  23   8     2.898149416616   112.61356005   179.99322952
 H     29  26  23     2.089836367821   109.19947972   302.34296274
 H     29  26  23     2.089835621537   109.20043303    57.67897657
 C     29  26  23     2.892842625012   113.16490503   180.01103911
 H     32  29  26     2.085755033957   111.26385321    59.86765382
 H     32  29  26     2.085752848329   111.26351558   300.16286423
 C      3   2   1     2.309603832492   179.38164601   183.49857717
 H     20  17  14     2.082316716301   111.47092752   179.99208124
 H     32  29  26     2.082710779633   111.51983900   180.01536577
 C     35   3   7     2.698823598102   179.75699023   341.42766537
 C     38  35   3     2.668559932306   120.58474753    12.07271998
 C     39  38  35     2.635291736462   120.41417232   180.00598973
 C     40  39  38     2.644758444031   120.34679423     0.00000000
 C     41  40  39     2.644880136334   119.71592610     0.00000000
 C     42  41  40     2.635188252089   120.34131874     0.00000000
 H     41  40  39     2.064546759115   120.14065751   179.99930227
 H     42  41  40     2.064890377885   120.04735498   179.99952415
 H     39  38  35     2.062873916416   119.10319965     0.00000000
 H     43  42  41     2.062906329695   120.46259005   179.99862574
 H     40  39  38     2.064884422496   119.61095409   179.99912119
 C      1   2   4     2.695344192940   179.44811046     8.16152607
 C     49   1   2     2.669943152924   120.84104545   174.53750930
 C     50  49   1     2.634879374836   120.43886245   180.00675065
 C     51  50  49     2.645095691381   120.37375199     0.00000000
 C     52  51  50     2.645177035137   119.69036683     0.00000000
 C     53  52  51     2.634610644921   120.36137841     0.00000000
 H     52  51  50     2.064536958766   120.15711823   179.99875534
 H     53  52  51     2.064935010616   120.03421118   180.00008802
 H     50  49   1     2.062896353451   119.14533143     0.00000000
 H     54  53  52     2.062897096356   120.48110760   180.00024613
 H     51  50  49     2.064942135608   119.59084068   179.99831588

---------------------
BASIS SET INFORMATION
---------------------
There are 2 groups of distinct atoms

 Group   1 Type C   : 10s5p1d contracted to 6s2p1d pattern {511111/41/1}
 Group   2 Type H   : 6s1p contracted to 4s1p pattern {3111/1}

Atom   0C    basis set group =>   1
Atom   1C    basis set group =>   1
Atom   2C    basis set group =>   1
Atom   3C    basis set group =>   1
Atom   4C    basis set group =>   1
Atom   5C    basis set group =>   1
Atom   6C    basis set group =>   1
Atom   7C    basis set group =>   1
Atom   8C    basis set group =>   1
Atom   9H    basis set group =>   2
Atom  10H    basis set group =>   2
Atom  11C    basis set group =>   1
Atom  12H    basis set group =>   2
Atom  13C    basis set group =>   1
Atom  14H    basis set group =>   2
Atom  15H    basis set group =>   2
Atom  16C    basis set group =>   1
Atom  17H    basis set group =>   2
Atom  18H    basis set group =>   2
Atom  19C    basis set group =>   1
Atom  20H    basis set group =>   2
Atom  21H    basis set group =>   2
Atom  22C    basis set group =>   1
Atom  23H    basis set group =>   2
Atom  24H    basis set group =>   2
Atom  25C    basis set group =>   1
Atom  26H    basis set group =>   2
Atom  27H    basis set group =>   2
Atom  28C    basis set group =>   1
Atom  29H    basis set group =>   2
Atom  30H    basis set group =>   2
Atom  31C    basis set group =>   1
Atom  32H    basis set group =>   2
Atom  33H    basis set group =>   2
Atom  34C    basis set group =>   1
Atom  35H    basis set group =>   2
Atom  36H    basis set group =>   2
Atom  37C    basis set group =>   1
Atom  38C    basis set group =>   1
Atom  39C    basis set group =>   1
Atom  40C    basis set group =>   1
Atom  41C    basis set group =>   1
Atom  42C    basis set group =>   1
Atom  43H    basis set group =>   2
Atom  44H    basis set group =>   2
Atom  45H    basis set group =>   2
Atom  46H    basis set group =>   2
Atom  47H    basis set group =>   2
Atom  48C    basis set group =>   1
Atom  49C    basis set group =>   1
Atom  50C    basis set group =>   1
Atom  51C    basis set group =>   1
Atom  52C    basis set group =>   1
Atom  53C    basis set group =>   1
Atom  54H    basis set group =>   2
Atom  55H    basis set group =>   2
Atom  56H    basis set group =>   2
Atom  57H    basis set group =>   2
Atom  58H    basis set group =>   2
---------------------------------
AUXILIARY/J BASIS SET INFORMATION
---------------------------------
There are 2 groups of distinct atoms

 Group   1 Type C   : 17s13p12d2f contracted to 17s13p12d2f pattern {11111111111111111/1111111111111/111111111111/11}
 Group   2 Type H   : 15s6p1d contracted to 15s6p1d pattern {111111111111111/111111/1}

Atom   0C    basis set group =>   1
Atom   1C    basis set group =>   1
Atom   2C    basis set group =>   1
Atom   3C    basis set group =>   1
Atom   4C    basis set group =>   1
Atom   5C    basis set group =>   1
Atom   6C    basis set group =>   1
Atom   7C    basis set group =>   1
Atom   8C    basis set group =>   1
Atom   9H    basis set group =>   2
Atom  10H    basis set group =>   2
Atom  11C    basis set group =>   1
Atom  12H    basis set group =>   2
Atom  13C    basis set group =>   1
Atom  14H    basis set group =>   2
Atom  15H    basis set group =>   2
Atom  16C    basis set group =>   1
Atom  17H    basis set group =>   2
Atom  18H    basis set group =>   2
Atom  19C    basis set group =>   1
Atom  20H    basis set group =>   2
Atom  21H    basis set group =>   2
Atom  22C    basis set group =>   1
Atom  23H    basis set group =>   2
Atom  24H    basis set group =>   2
Atom  25C    basis set group =>   1
Atom  26H    basis set group =>   2
Atom  27H    basis set group =>   2
Atom  28C    basis set group =>   1
Atom  29H    basis set group =>   2
Atom  30H    basis set group =>   2
Atom  31C    basis set group =>   1
Atom  32H    basis set group =>   2
Atom  33H    basis set group =>   2
Atom  34C    basis set group =>   1
Atom  35H    basis set group =>   2
Atom  36H    basis set group =>   2
Atom  37C    basis set group =>   1
Atom  38C    basis set group =>   1
Atom  39C    basis set group =>   1
Atom  40C    basis set group =>   1
Atom  41C    basis set group =>   1
Atom  42C    basis set group =>   1
Atom  43H    basis set group =>   2
Atom  44H    basis set group =>   2
Atom  45H    basis set group =>   2
Atom  46H    basis set group =>   2
Atom  47H    basis set group =>   2
Atom  48C    basis set group =>   1
Atom  49C    basis set group =>   1
Atom  50C    basis set group =>   1
Atom  51C    basis set group =>   1
Atom  52C    basis set group =>   1
Atom  53C    basis set group =>   1
Atom  54H    basis set group =>   2
Atom  55H    basis set group =>   2
Atom  56H    basis set group =>   2
Atom  57H    basis set group =>   2
Atom  58H    basis set group =>   2
---------------------------------
AUXILIARY/C BASIS SET INFORMATION
---------------------------------
There are 2 groups of distinct atoms

 Group   1 Type C   : 17s13p12d2f contracted to 17s13p12d2f pattern {11111111111111111/1111111111111/111111111111/11}
 Group   2 Type H   : 15s6p1d contracted to 15s6p1d pattern {111111111111111/111111/1}

Atom   0C    basis set group =>   1
Atom   1C    basis set group =>   1
Atom   2C    basis set group =>   1
Atom   3C    basis set group =>   1
Atom   4C    basis set group =>   1
Atom   5C    basis set group =>   1
Atom   6C    basis set group =>   1
Atom   7C    basis set group =>   1
Atom   8C    basis set group =>   1
Atom   9H    basis set group =>   2
Atom  10H    basis set group =>   2
Atom  11C    basis set group =>   1
Atom  12H    basis set group =>   2
Atom  13C    basis set group =>   1
Atom  14H    basis set group =>   2
Atom  15H    basis set group =>   2
Atom  16C    basis set group =>   1
Atom  17H    basis set group =>   2
Atom  18H    basis set group =>   2
Atom  19C    basis set group =>   1
Atom  20H    basis set group =>   2
Atom  21H    basis set group =>   2
Atom  22C    basis set group =>   1
Atom  23H    basis set group =>   2
Atom  24H    basis set group =>   2
Atom  25C    basis set group =>   1
Atom  26H    basis set group =>   2
Atom  27H    basis set group =>   2
Atom  28C    basis set group =>   1
Atom  29H    basis set group =>   2
Atom  30H    basis set group =>   2
Atom  31C    basis set group =>   1
Atom  32H    basis set group =>   2
Atom  33H    basis set group =>   2
Atom  34C    basis set group =>   1
Atom  35H    basis set group =>   2
Atom  36H    basis set group =>   2
Atom  37C    basis set group =>   1
Atom  38C    basis set group =>   1
Atom  39C    basis set group =>   1
Atom  40C    basis set group =>   1
Atom  41C    basis set group =>   1
Atom  42C    basis set group =>   1
Atom  43H    basis set group =>   2
Atom  44H    basis set group =>   2
Atom  45H    basis set group =>   2
Atom  46H    basis set group =>   2
Atom  47H    basis set group =>   2
Atom  48C    basis set group =>   1
Atom  49C    basis set group =>   1
Atom  50C    basis set group =>   1
Atom  51C    basis set group =>   1
Atom  52C    basis set group =>   1
Atom  53C    basis set group =>   1
Atom  54H    basis set group =>   2
Atom  55H    basis set group =>   2
Atom  56H    basis set group =>   2
Atom  57H    basis set group =>   2
Atom  58H    basis set group =>   2
----------------------------------
AUXILIARY/JK BASIS SET INFORMATION
----------------------------------
There are 2 groups of distinct atoms

 Group   1 Type C   : 17s13p12d2f contracted to 17s13p12d2f pattern {11111111111111111/1111111111111/111111111111/11}
 Group   2 Type H   : 15s6p1d contracted to 15s6p1d pattern {111111111111111/111111/1}

Atom   0C    basis set group =>   1
Atom   1C    basis set group =>   1
Atom   2C    basis set group =>   1
Atom   3C    basis set group =>   1
Atom   4C    basis set group =>   1
Atom   5C    basis set group =>   1
Atom   6C    basis set group =>   1
Atom   7C    basis set group =>   1
Atom   8C    basis set group =>   1
Atom   9H    basis set group =>   2
Atom  10H    basis set group =>   2
Atom  11C    basis set group =>   1
Atom  12H    basis set group =>   2
Atom  13C    basis set group =>   1
Atom  14H    basis set group =>   2
Atom  15H    basis set group =>   2
Atom  16C    basis set group =>   1
Atom  17H    basis set group =>   2
Atom  18H    basis set group =>   2
Atom  19C    basis set group =>   1
Atom  20H    basis set group =>   2
Atom  21H    basis set group =>   2
Atom  22C    basis set group =>   1
Atom  23H    basis set group =>   2
Atom  24H    basis set group =>   2
Atom  25C    basis set group =>   1
Atom  26H    basis set group =>   2
Atom  27H    basis set group =>   2
Atom  28C    basis set group =>   1
Atom  29H    basis set group =>   2
Atom  30H    basis set group =>   2
Atom  31C    basis set group =>   1
Atom  32H    basis set group =>   2
Atom  33H    basis set group =>   2
Atom  34C    basis set group =>   1
Atom  35H    basis set group =>   2
Atom  36H    basis set group =>   2
Atom  37C    basis set group =>   1
Atom  38C    basis set group =>   1
Atom  39C    basis set group =>   1
Atom  40C    basis set group =>   1
Atom  41C    basis set group =>   1
Atom  42C    basis set group =>   1
Atom  43H    basis set group =>   2
Atom  44H    basis set group =>   2
Atom  45H    basis set group =>   2
Atom  46H    basis set group =>   2
Atom  47H    basis set group =>   2
Atom  48C    basis set group =>   1
Atom  49C    basis set group =>   1
Atom  50C    basis set group =>   1
Atom  51C    basis set group =>   1
Atom  52C    basis set group =>   1
Atom  53C    basis set group =>   1
Atom  54H    basis set group =>   2
Atom  55H    basis set group =>   2
Atom  56H    basis set group =>   2
Atom  57H    basis set group =>   2
Atom  58H    basis set group =>   2

Checking for AutoStart:
The File: EPRII.gbw exists
Trying to determine its content:
     ... Fine, the file contains calculation information
     ... Fine, the calculation information was read
     ... Fine, the file contains a basis set
     ... Fine, the basis set was read
     ... Fine, the file contains a geometry
     ... Fine, the geometry was read
     ... Fine, the file contains a set of orbitals
     ... Fine, the orbitals can be read
     => possible old guess file was deleted
     => GBW file was renamed to GES file
     => GES file is set as startup file
     => Guess is set to MORead
     ... now leaving AutoStart



           ************************************************************
           *        Program running with 16 parallel MPI-processes    *
           *              working on a common directory               *
           ************************************************************
------------------------------------------------------------------------------
                           ORCA GTO INTEGRAL CALCULATION
                           -- RI-GTO INTEGRALS CHOSEN --
------------------------------------------------------------------------------
------------------------------------------------------------------------------
                   ___                                                        
                  /   \      - P O W E R E D   B Y -                         
                 /     \                                                     
                 |  |  |   _    _      __       _____    __    __             
                 |  |  |  | |  | |    /  \     |  _  \  |  |  /  |          
                  \  \/   | |  | |   /    \    | | | |  |  | /  /          
                 / \  \   | |__| |  /  /\  \   | |_| |  |  |/  /          
                |  |  |   |  __  | /  /__\  \  |    /   |      \           
                |  |  |   | |  | | |   __   |  |    \   |  |\   \          
                \     /   | |  | | |  |  |  |  | |\  \  |  | \   \       
                 \___/    |_|  |_| |__|  |__|  |_| \__\ |__|  \__/        
                                                                              
                      - O R C A' S   B I G   F R I E N D -                    
                                      &                                       
                       - I N T E G R A L  F E E D E R -                       
                                                                              
 v1 FN, 2020, v2 2021                                                         
------------------------------------------------------------------------------


Reading SHARK input file EPRII.SHARKINP.tmp ... ok
----------------------
SHARK INTEGRAL PACKAGE
----------------------

Number of atoms                             ...     59
Number of basis functions                   ...    713
Number of shells                            ...    415
Maximum angular momentum                    ...      2
Integral batch strategy                     ... SHARK/LIBINT Hybrid
RI-J (if used) integral strategy            ... SPLIT-RIJ (Revised 2003 algorithm where possible)
Printlevel                                  ...      1
Contraction scheme used                     ... SEGMENTED contraction
Coulomb Range Separation                    ... NOT USED
Exchange Range Separation                   ... NOT USED
Finite Nucleus Model                        ... NOT USED
Auxiliary Coulomb fitting basis             ... AVAILABLE
   # of basis functions in Aux-J            ...   5002
   # of shells in Aux-J                     ...   1958
   Maximum angular momentum in Aux-J        ...      3
Auxiliary J/K fitting basis                 ... AVAILABLE
   # of basis functions in Aux-JK           ...   5002
   # of shells in Aux-JK                    ...   1958
   Maximum angular momentum in Aux-JK       ...      3
Auxiliary Correlation fitting basis         ... AVAILABLE
   # of basis functions in Aux-C            ...   5002
   # of shells in Aux-C                     ...   1958
   Maximum angular momentum in Aux-C        ...      3
Auxiliary 'external' fitting basis          ... NOT available
Integral threshold                          ...     1.000000e-10
Primitive cut-off                           ...     1.000000e-11
Primitive pair pre-selection threshold      ...     1.000000e-11

Calculating pre-screening integrals         ... done (  0.0 sec) Dimension = 415
Organizing shell pair data                  ... done (  0.3 sec)
Shell pair information
Total number of shell pairs                 ...     86320
Shell pairs after pre-screening             ...     38308
Total number of primitive shell pairs       ...    234153
Primitive shell pairs kept                  ...     71439
          la=0 lb=0:  17569 shell pairs
          la=1 lb=0:  13142 shell pairs
          la=1 lb=1:   2394 shell pairs
          la=2 lb=0:   3616 shell pairs
          la=2 lb=1:   1382 shell pairs
          la=2 lb=2:    205 shell pairs

Calculating one electron integrals          ... done (  0.1 sec)
Calculating RI/J V-Matrix + Cholesky decomp.... done (  2.0 sec)
Calculating RI/JK V-Matrix + Cholesky decomp... done (  1.7 sec)
Calculating RI/C V-Matrix + Cholesky decomp.... done (  1.5 sec)
Calculating Nuclear repulsion               ... done (  0.0 sec) ENN=   2363.850750878803 Eh

SHARK setup successfully completed in   6.3 seconds

Maximum memory used throughout the entire GTOINT-calculation: 82.4 MB


           ************************************************************
           *        Program running with 16 parallel MPI-processes    *
           *              working on a common directory               *
           ************************************************************
-------------------------------------------------------------------------------
                                 ORCA SCF
-------------------------------------------------------------------------------

------------
SCF SETTINGS
------------
Hamiltonian:
 Density Functional     Method          .... DFT(GTOs)
 Exchange Functional    Exchange        .... B88
   X-Alpha parameter    XAlpha          ....  0.666667
   Becke's b parameter  XBeta           ....  0.004200
 Correlation Functional Correlation     .... LYP
 LDA part of GGA corr.  LDAOpt          .... VWN-5
 Gradients option       PostSCFGGA      .... off
 Hybrid DFT is turned on
   Fraction HF Exchange ScalHFX         ....  0.200000
   Scaling of DF-GGA-X  ScalDFX         ....  0.720000
   Scaling of DF-GGA-C  ScalDFC         ....  0.810000
   Scaling of DF-LDA-C  ScalLDAC        ....  1.000000
   Perturbative correction              ....  0.000000
   Density functional embedding theory  .... OFF
   NL short-range parameter             ....  4.800000
 RI-approximation to the Coulomb term is turned on
   Number of AuxJ basis functions       .... 5002
   RIJ-COSX (HFX calculated with COS-X)).... on


General Settings:
 Integral files         IntName         .... EPRII
 Hartree-Fock type      HFTyp           .... UHF
 Total Charge           Charge          ....    0
 Multiplicity           Mult            ....    2
 Number of Electrons    NEL             ....  209
 Basis Dimension        Dim             ....  713
 Nuclear Repulsion      ENuc            ....   2363.8507508788 Eh

Convergence Acceleration:
 DIIS                   CNVDIIS         .... on
   Start iteration      DIISMaxIt       ....    12
   Startup error        DIISStart       ....  0.200000
   # of expansion vecs  DIISMaxEq       ....     5
   Bias factor          DIISBfac        ....   1.050
   Max. coefficient     DIISMaxC        ....  10.000
 Trust-Rad. Augm. Hess. CNVTRAH         .... auto
   Auto Start mean grad. ratio tolernc. ....  1.125000
   Auto Start start iteration           ....     1
   Auto Start num. interpolation iter.  ....    10
   Max. Number of Micro iterations      ....    16
   Max. Number of Macro iterations      .... Maxiter - #DIIS iter
   Number of Davidson start vectors     ....     2
   Converg. threshold I  (grad. norm)   ....   5.000e-05
   Converg. threshold II (energy diff.) ....   1.000e-06
   Grad. Scal. Fac. for Micro threshold ....   0.100
   Minimum threshold for Micro iter.    ....   0.010
   NR start threshold (gradient norm)   ....   0.001
   Initial trust radius                 ....   0.400
   Minimum AH scaling param. (alpha)    ....   1.000
   Maximum AH scaling param. (alpha)    .... 1000.000
   Orbital update algorithm             .... Taylor
   White noise on init. David. guess    .... on
   Maximum white noise                  ....   0.010
   Quad. conv. algorithm                .... NR
 SOSCF                  CNVSOSCF        .... off
 Level Shifting         CNVShift        .... on
   Level shift para.    LevelShift      ....    0.2500
   Turn off err/grad.   ShiftErr        ....    0.0010
 Zerner damping         CNVZerner       .... off
 Static damping         CNVDamp         .... on
   Fraction old density DampFac         ....    0.7000
   Max. Damping (<1)    DampMax         ....    0.9800
   Min. Damping (>=0)   DampMin         ....    0.0000
   Turn off err/grad.   DampErr         ....    0.1000
 Fernandez-Rico         CNVRico         .... off

SCF Procedure:
 Maximum # iterations   MaxIter         ....   125
 SCF integral mode      SCFMode         .... Direct
   Integral package                     .... SHARK and LIBINT hybrid scheme
 Reset frequency        DirectResetFreq ....    20
 Integral Threshold     Thresh          ....  1.000e-10 Eh
 Primitive CutOff       TCut            ....  1.000e-11 Eh

Convergence Tolerance:
 Convergence Check Mode ConvCheckMode   .... Total+1el-Energy
 Convergence forced     ConvForced      .... 0
 Energy Change          TolE            ....  1.000e-06 Eh
 1-El. energy change                    ....  1.000e-03 Eh
 DIIS Error             TolErr          ....  1.000e-06


Diagonalization of the overlap matrix:
Smallest eigenvalue                        ... 4.840e-05
Time for diagonalization                   ...    0.108 sec
Threshold for overlap eigenvalues          ... 1.000e-08
Number of eigenvalues below threshold      ... 0
Time for construction of square roots      ...    0.069 sec
Total time needed                          ...    0.179 sec

---------------------
INITIAL GUESS: MOREAD
---------------------
Guess MOs are being read from file: EPRII.ges
Input Geometry matches current geometry (good)
Input basis set matches current basis set (good)
MOs were renormalized
MOs were reorthogonalized (Cholesky)
                      ------------------
                      INITIAL GUESS DONE (   0.5 sec)
                      ------------------
-------------------
DFT GRID GENERATION
-------------------

General Integration Accuracy     IntAcc      ... 4.388
Radial Grid Type                 RadialGrid  ... OptM3 with GC (2021)
Angular Grid (max. ang.)         AngularGrid ... 4 (Lebedev-302)
Angular grid pruning method      GridPruning ... 4 (adaptive)
Weight generation scheme         WeightScheme... Becke
Basis function cutoff            BFCut       ... 1.0000e-10
Integration weight cutoff        WCut        ... 1.0000e-14
Angular grids for H and He will be reduced by one unit
Partially contracted basis set               ... off
Rotationally invariant grid construction     ... off

Total number of grid points                  ...   271672
Total number of batches                      ...     4271
Average number of points per batch           ...       63
Average number of grid points per atom       ...     4605
Time for grid setup =    1.744 sec

--------------------
COSX GRID GENERATION
--------------------

GRIDX 1
-------
General Integration Accuracy     IntAcc      ... 3.816
Radial Grid Type                 RadialGrid  ... OptM3 with GC (2021)
Angular Grid (max. ang.)         AngularGrid ... 1 (Lebedev-50)
Angular grid pruning method      GridPruning ... 4 (adaptive)
Weight generation scheme         WeightScheme... Becke
Basis function cutoff            BFCut       ... 1.0000e-10
Integration weight cutoff        WCut        ... 1.0000e-14
Angular grids for H and He will be reduced by one unit
Partially contracted basis set               ... on
Rotationally invariant grid construction     ... off

Total number of grid points                  ...    34621
Total number of batches                      ...      570
Average number of points per batch           ...       60
Average number of grid points per atom       ...      587
UseSFitting                                  ... on

GRIDX 2
-------
General Integration Accuracy     IntAcc      ... 4.020
Radial Grid Type                 RadialGrid  ... OptM3 with GC (2021)
Angular Grid (max. ang.)         AngularGrid ... 2 (Lebedev-110)
Angular grid pruning method      GridPruning ... 4 (adaptive)
Weight generation scheme         WeightScheme... Becke
Basis function cutoff            BFCut       ... 1.0000e-10
Integration weight cutoff        WCut        ... 1.0000e-14
Angular grids for H and He will be reduced by one unit
Partially contracted basis set               ... on
Rotationally invariant grid construction     ... off

Total number of grid points                  ...    73987
Total number of batches                      ...     1188
Average number of points per batch           ...       62
Average number of grid points per atom       ...     1254
UseSFitting                                  ... on

GRIDX 3
-------
General Integration Accuracy     IntAcc      ... 4.338
Radial Grid Type                 RadialGrid  ... OptM3 with GC (2021)
Angular Grid (max. ang.)         AngularGrid ... 3 (Lebedev-194)
Angular grid pruning method      GridPruning ... 4 (adaptive)
Weight generation scheme         WeightScheme... Becke
Basis function cutoff            BFCut       ... 1.0000e-10
Integration weight cutoff        WCut        ... 1.0000e-14
Angular grids for H and He will be reduced by one unit
Partially contracted basis set               ... on
Rotationally invariant grid construction     ... off

Total number of grid points                  ...   161745
Total number of batches                      ...     2559
Average number of points per batch           ...       63
Average number of grid points per atom       ...     2741
UseSFitting                                  ... on

Time for X-Grid setup             =    3.280 sec

--------------
SCF ITERATIONS
--------------
ITER       Energy         Delta-E        Max-DP      RMS-DP      [F,P]     Damp
               ***  Starting incremental Fock matrix formation  ***
  0  -1159.9156572057   0.000000000000 0.00031686  0.00000210  0.0008161 0.7000
  1  -1159.9156609935  -0.000003787751 0.00020087  0.00000122  0.0003155 0.7000
                               ***Turning on DIIS***
                 **** Energy Check signals convergence ****

               *****************************************************
               *                     SUCCESS                       *
               *           SCF CONVERGED AFTER   2 CYCLES          *
               *****************************************************

Old exchange energy                            =    -33.105138855 Eh
New exchange energy                            =    -33.105185430 Eh
Exchange energy change after final integration =     -0.000046575 Eh
Total energy after final integration           =  -1159.915708174 Eh
Final COS-X integration done in                =    15.435 sec

----------------
TOTAL SCF ENERGY
----------------

Total Energy       :        -1159.91570817 Eh          -31562.91105 eV

Components:
Nuclear Repulsion  :         2363.85075088 Eh           64323.64908 eV
Electronic Energy  :        -3523.76645905 Eh          -95886.56013 eV
One Electron Energy:        -6262.43378477 Eh         -170409.48673 eV
Two Electron Energy:         2738.66732572 Eh           74522.92661 eV
Max COSX asymmetry :            0.00000342 Eh               0.00009 eV

Virial components:
Potential Energy   :        -2310.57613134 Eh          -62873.97298 eV
Kinetic Energy     :         1150.66042316 Eh           31311.06194 eV
Virial Ratio       :            2.00804345


DFT components:
N(Alpha)           :      105.000181431186 electrons
N(Beta)            :      104.000170911685 electrons
N(Total)           :      209.000352342871 electrons
E(X)               :     -131.350431168980 Eh       
E(C)               :       -8.162744826017 Eh       
E(XC)              :     -139.513175994997 Eh       
DFET-embed. en.    :        0.000000000000 Eh       

---------------
SCF CONVERGENCE
---------------

  Last Energy change         ...   -6.0585e-07  Tolerance :   1.0000e-06
  Last MAX-Density change    ...    0.0000e+00  Tolerance :   1.0000e-05
  Last RMS-Density change    ...    0.0000e+00  Tolerance :   1.0000e-06
  Last DIIS Error            ...    1.4380e-04  Tolerance :   1.0000e-06

             **** THE GBW FILE WAS UPDATED (EPRII.gbw) ****
             **** DENSITY EPRII.scfp WAS UPDATED ****
             **** ENERGY FILE WAS UPDATED (EPRII.en.tmp) ****
----------------------
UHF SPIN CONTAMINATION
----------------------

Warning: in a DFT calculation there is little theoretical justification to 
         calculate <S**2> as in Hartree-Fock theory. We will do it anyways
         but you should keep in mind that the values have only limited relevance

Expectation value of <S**2>     :     0.787329
Ideal value S*(S+1) for S=0.5   :     0.750000
Deviation                       :     0.037329

             **** THE GBW FILE WAS UPDATED (EPRII.gbw) ****
             **** DENSITY EPRII.scfp WAS UPDATED ****
----------------
ORBITAL ENERGIES
----------------
                 SPIN UP ORBITALS
  NO   OCC          E(Eh)            E(eV) 
   0   1.0000     -10.226534      -278.2781 
   1   1.0000     -10.225703      -278.2555 
   2   1.0000     -10.221506      -278.1413 
   3   1.0000     -10.220074      -278.1023 
   4   1.0000     -10.209583      -277.8169 
   5   1.0000     -10.206190      -277.7245 
   6   1.0000     -10.204749      -277.6853 
   7   1.0000     -10.204560      -277.6802 
   8   1.0000     -10.204403      -277.6759 
   9   1.0000     -10.203822      -277.6601 
  10   1.0000     -10.203811      -277.6598 
  11   1.0000     -10.203637      -277.6551 
  12   1.0000     -10.203557      -277.6529 
  13   1.0000     -10.203361      -277.6476 
  14   1.0000     -10.202463      -277.6231 
  15   1.0000     -10.202284      -277.6183 
  16   1.0000     -10.201127      -277.5868 
  17   1.0000     -10.200581      -277.5719 
  18   1.0000     -10.199545      -277.5437 
  19   1.0000     -10.198861      -277.5251 
  20   1.0000     -10.197516      -277.4885 
  21   1.0000     -10.196571      -277.4628 
  22   1.0000     -10.194687      -277.4115 
  23   1.0000     -10.189121      -277.2601 
  24   1.0000     -10.187121      -277.2057 
  25   1.0000     -10.184839      -277.1436 
  26   1.0000     -10.182300      -277.0745 
  27   1.0000     -10.181855      -277.0623 
  28   1.0000     -10.174937      -276.8741 
  29   1.0000     -10.173057      -276.8230 
  30   1.0000      -0.871649       -23.7188 
  31   1.0000      -0.862704       -23.4754 
  32   1.0000      -0.861681       -23.4475 
  33   1.0000      -0.818014       -22.2593 
  34   1.0000      -0.798181       -21.7196 
  35   1.0000      -0.794370       -21.6159 
  36   1.0000      -0.782177       -21.2841 
  37   1.0000      -0.772504       -21.0209 
  38   1.0000      -0.764754       -20.8100 
  39   1.0000      -0.750781       -20.4298 
  40   1.0000      -0.749818       -20.4036 
  41   1.0000      -0.737384       -20.0652 
  42   1.0000      -0.725611       -19.7449 
  43   1.0000      -0.709702       -19.3120 
  44   1.0000      -0.695530       -18.9263 
  45   1.0000      -0.654938       -17.8218 
  46   1.0000      -0.646128       -17.5820 
  47   1.0000      -0.623305       -16.9610 
  48   1.0000      -0.612627       -16.6704 
  49   1.0000      -0.609249       -16.5785 
  50   1.0000      -0.608870       -16.5682 
  51   1.0000      -0.607983       -16.5441 
  52   1.0000      -0.589777       -16.0486 
  53   1.0000      -0.578821       -15.7505 
  54   1.0000      -0.560249       -15.2452 
  55   1.0000      -0.541344       -14.7307 
  56   1.0000      -0.535710       -14.5774 
  57   1.0000      -0.506502       -13.7826 
  58   1.0000      -0.503926       -13.7125 
  59   1.0000      -0.480795       -13.0831 
  60   1.0000      -0.478873       -13.0308 
  61   1.0000      -0.474776       -12.9193 
  62   1.0000      -0.469893       -12.7864 
  63   1.0000      -0.461911       -12.5692 
  64   1.0000      -0.456658       -12.4263 
  65   1.0000      -0.455489       -12.3945 
  66   1.0000      -0.437356       -11.9011 
  67   1.0000      -0.435885       -11.8610 
  68   1.0000      -0.430185       -11.7059 
  69   1.0000      -0.427949       -11.6451 
  70   1.0000      -0.425108       -11.5678 
  71   1.0000      -0.424821       -11.5600 
  72   1.0000      -0.423842       -11.5333 
  73   1.0000      -0.421170       -11.4606 
  74   1.0000      -0.410669       -11.1749 
  75   1.0000      -0.397823       -10.8253 
  76   1.0000      -0.396778       -10.7969 
  77   1.0000      -0.383694       -10.4408 
  78   1.0000      -0.380876       -10.3642 
  79   1.0000      -0.377265       -10.2659 
  80   1.0000      -0.374245       -10.1837 
  81   1.0000      -0.363957        -9.9038 
  82   1.0000      -0.362285        -9.8583 
  83   1.0000      -0.360735        -9.8161 
  84   1.0000      -0.355271        -9.6674 
  85   1.0000      -0.353086        -9.6080 
  86   1.0000      -0.351330        -9.5602 
  87   1.0000      -0.350224        -9.5301 
  88   1.0000      -0.338833        -9.2201 
  89   1.0000      -0.331979        -9.0336 
  90   1.0000      -0.331771        -9.0279 
  91   1.0000      -0.330550        -8.9947 
  92   1.0000      -0.326593        -8.8871 
  93   1.0000      -0.322267        -8.7693 
  94   1.0000      -0.321036        -8.7358 
  95   1.0000      -0.305852        -8.3227 
  96   1.0000      -0.278290        -7.5727 
  97   1.0000      -0.271805        -7.3962 
  98   1.0000      -0.268448        -7.3048 
  99   1.0000      -0.267025        -7.2661 
 100   1.0000      -0.258603        -7.0370 
 101   1.0000      -0.258129        -7.0241 
 102   1.0000      -0.236509        -6.4357 
 103   1.0000      -0.208707        -5.6792 
 104   1.0000      -0.169674        -4.6171 
 105   0.0000      -0.065378        -1.7790 
 106   0.0000      -0.029612        -0.8058 
 107   0.0000      -0.013828        -0.3763 
 108   0.0000      -0.013111        -0.3568 
 109   0.0000       0.002219         0.0604 
 110   0.0000       0.014475         0.3939 
 111   0.0000       0.016042         0.4365 
 112   0.0000       0.017378         0.4729 
 113   0.0000       0.021494         0.5849 
 114   0.0000       0.025380         0.6906 
 115   0.0000       0.031707         0.8628 
 116   0.0000       0.036077         0.9817 
 117   0.0000       0.038395         1.0448 
 118   0.0000       0.042785         1.1642 
 119   0.0000       0.044288         1.2051 
 120   0.0000       0.048594         1.3223 
 121   0.0000       0.055250         1.5034 
 122   0.0000       0.056380         1.5342 
 123   0.0000       0.059719         1.6250 
 124   0.0000       0.064736         1.7616 
 125   0.0000       0.067321         1.8319 
 126   0.0000       0.072607         1.9757 
 127   0.0000       0.076724         2.0878 
 128   0.0000       0.079417         2.1611 
 129   0.0000       0.079666         2.1678 
 130   0.0000       0.090454         2.4614 
 131   0.0000       0.091850         2.4994 
 132   0.0000       0.092297         2.5115 
 133   0.0000       0.100110         2.7241 
 134   0.0000       0.112358         3.0574 
 135   0.0000       0.115941         3.1549 
 136   0.0000       0.122361         3.3296 
 137   0.0000       0.124586         3.3902 
 138   0.0000       0.131429         3.5764 
 139   0.0000       0.137803         3.7498 
 140   0.0000       0.144686         3.9371 
 141   0.0000       0.156078         4.2471 
 142   0.0000       0.160713         4.3732 
 143   0.0000       0.162105         4.4111 
 144   0.0000       0.171715         4.6726 
 145   0.0000       0.174727         4.7546 
 146   0.0000       0.176994         4.8163 
 147   0.0000       0.183415         4.9910 
 148   0.0000       0.184197         5.0122 
 149   0.0000       0.192505         5.2383 
 150   0.0000       0.196243         5.3401 
 151   0.0000       0.198391         5.3985 
 152   0.0000       0.200537         5.4569 
 153   0.0000       0.202924         5.5218 
 154   0.0000       0.203023         5.5245 
 155   0.0000       0.206405         5.6166 
 156   0.0000       0.216106         5.8805 
 157   0.0000       0.216276         5.8852 
 158   0.0000       0.218562         5.9474 
 159   0.0000       0.220389         5.9971 
 160   0.0000       0.224183         6.1003 
 161   0.0000       0.226849         6.1729 
 162   0.0000       0.227261         6.1841 
 163   0.0000       0.236907         6.4466 
 164   0.0000       0.239845         6.5265 
 165   0.0000       0.244206         6.6452 
 166   0.0000       0.245492         6.6802 
 167   0.0000       0.248969         6.7748 
 168   0.0000       0.252454         6.8696 
 169   0.0000       0.252693         6.8761 
 170   0.0000       0.254778         6.9329 
 171   0.0000       0.258209         7.0262 
 172   0.0000       0.263785         7.1779 
 173   0.0000       0.267603         7.2818 
 174   0.0000       0.268008         7.2929 
 175   0.0000       0.276504         7.5240 
 176   0.0000       0.276763         7.5311 
 177   0.0000       0.277711         7.5569 
 178   0.0000       0.280516         7.6332 
 179   0.0000       0.282035         7.6746 
 180   0.0000       0.284654         7.7458 
 181   0.0000       0.287338         7.8189 
 182   0.0000       0.292373         7.9559 
 183   0.0000       0.293071         7.9749 
 184   0.0000       0.294861         8.0236 
 185   0.0000       0.296514         8.0686 
 186   0.0000       0.299887         8.1603 
 187   0.0000       0.304620         8.2891 
 188   0.0000       0.306404         8.3377 
 189   0.0000       0.309327         8.4172 
 190   0.0000       0.310552         8.4506 
 191   0.0000       0.312277         8.4975 
 192   0.0000       0.314198         8.5498 
 193   0.0000       0.315398         8.5824 
 194   0.0000       0.317654         8.6438 
 195   0.0000       0.319292         8.6884 
 196   0.0000       0.320585         8.7235 
 197   0.0000       0.323796         8.8109 
 198   0.0000       0.325996         8.8708 
 199   0.0000       0.329268         8.9598 
 200   0.0000       0.333888         9.0855 
 201   0.0000       0.335695         9.1347 
 202   0.0000       0.338268         9.2047 
 203   0.0000       0.343810         9.3555 
 204   0.0000       0.345382         9.3983 
 205   0.0000       0.346861         9.4386 
 206   0.0000       0.348853         9.4928 
 207   0.0000       0.352166         9.5829 
 208   0.0000       0.356994         9.7143 
 209   0.0000       0.363666         9.8959 
 210   0.0000       0.369919        10.0660 
 211   0.0000       0.372946        10.1484 
 212   0.0000       0.374207        10.1827 
 213   0.0000       0.378883        10.3099 
 214   0.0000       0.380009        10.3406 
 215   0.0000       0.389926        10.6104 
 216   0.0000       0.398751        10.8506 
 217   0.0000       0.399218        10.8633 
 218   0.0000       0.405009        11.0208 
 219   0.0000       0.408876        11.1261 
 220   0.0000       0.412576        11.2268 
 221   0.0000       0.415429        11.3044 
 222   0.0000       0.417764        11.3679 
 223   0.0000       0.422820        11.5055 
 224   0.0000       0.423286        11.5182 
 225   0.0000       0.426323        11.6008 
 226   0.0000       0.430595        11.7171 
 227   0.0000       0.431225        11.7342 
 228   0.0000       0.431247        11.7348 
 229   0.0000       0.436087        11.8665 
 230   0.0000       0.442615        12.0442 
 231   0.0000       0.447782        12.1848 
 232   0.0000       0.451906        12.2970 
 233   0.0000       0.452272        12.3070 
 234   0.0000       0.455167        12.3857 
 235   0.0000       0.458852        12.4860 
 236   0.0000       0.460832        12.5399 
 237   0.0000       0.464544        12.6409 
 238   0.0000       0.470737        12.8094 
 239   0.0000       0.472026        12.8445 
 240   0.0000       0.474366        12.9082 
 241   0.0000       0.475646        12.9430 
 242   0.0000       0.483832        13.1657 
 243   0.0000       0.484615        13.1871 
 244   0.0000       0.484966        13.1966 
 245   0.0000       0.491921        13.3858 
 246   0.0000       0.492810        13.4100 
 247   0.0000       0.503939        13.7129 
 248   0.0000       0.505612        13.7584 
 249   0.0000       0.508250        13.8302 
 250   0.0000       0.511755        13.9256 
 251   0.0000       0.516438        14.0530 
 252   0.0000       0.523220        14.2375 
 253   0.0000       0.531058        14.4508 
 254   0.0000       0.531476        14.4622 
 255   0.0000       0.534468        14.5436 
 256   0.0000       0.537433        14.6243 
 257   0.0000       0.539172        14.6716 
 258   0.0000       0.549721        14.9587 
 259   0.0000       0.554088        15.0775 
 260   0.0000       0.561278        15.2731 
 261   0.0000       0.562665        15.3109 
 262   0.0000       0.563892        15.3443 
 263   0.0000       0.577858        15.7243 
 264   0.0000       0.579670        15.7736 
 265   0.0000       0.587951        15.9990 
 266   0.0000       0.590354        16.0643 
 267   0.0000       0.597563        16.2605 
 268   0.0000       0.599415        16.3109 
 269   0.0000       0.607732        16.5372 
 270   0.0000       0.621196        16.9036 
 271   0.0000       0.625160        17.0115 
 272   0.0000       0.635127        17.2827 
 273   0.0000       0.642851        17.4929 
 274   0.0000       0.643041        17.4980 
 275   0.0000       0.653122        17.7724 
 276   0.0000       0.658973        17.9316 
 277   0.0000       0.661188        17.9918 
 278   0.0000       0.668745        18.1975 
 279   0.0000       0.670818        18.2539 
 280   0.0000       0.672778        18.3072 
 281   0.0000       0.675822        18.3901 
 282   0.0000       0.679484        18.4897 
 283   0.0000       0.686274        18.6745 
 284   0.0000       0.700316        19.0566 
 285   0.0000       0.707403        19.2494 
 286   0.0000       0.725066        19.7300 
 287   0.0000       0.728515        19.8239 
 288   0.0000       0.736939        20.0531 
 289   0.0000       0.761902        20.7324 
 290   0.0000       0.766012        20.8443 
 291   0.0000       0.770139        20.9566 
 292   0.0000       0.774066        21.0634 
 293   0.0000       0.791458        21.5367 
 294   0.0000       0.796325        21.6691 
 295   0.0000       0.808973        22.0133 
 296   0.0000       0.819983        22.3129 
 297   0.0000       0.834493        22.7077 
 298   0.0000       0.837228        22.7821 
 299   0.0000       0.839251        22.8372 
 300   0.0000       0.843116        22.9424 
 301   0.0000       0.849626        23.1195 
 302   0.0000       0.853475        23.2242 
 303   0.0000       0.856062        23.2946 
 304   0.0000       0.861704        23.4482 
 305   0.0000       0.865059        23.5395 
 306   0.0000       0.866175        23.5698 
 307   0.0000       0.870405        23.6849 
 308   0.0000       0.871305        23.7094 
 309   0.0000       0.884651        24.0726 
 310   0.0000       0.892038        24.2736 
 311   0.0000       0.896590        24.3975 
 312   0.0000       0.899721        24.4827 
 313   0.0000       0.903110        24.5749 
 314   0.0000       0.904159        24.6034 
 315   0.0000       0.912241        24.8233 
 316   0.0000       0.912340        24.8260 
 317   0.0000       0.915275        24.9059 
 318   0.0000       0.918590        24.9961 
 319   0.0000       0.926704        25.2169 
 320   0.0000       0.928625        25.2692 
 321   0.0000       0.931682        25.3524 
 322   0.0000       0.938136        25.5280 
 323   0.0000       0.939414        25.5628 
 324   0.0000       0.945612        25.7314 
 325   0.0000       0.949486        25.8368 
 326   0.0000       0.950589        25.8668 
 327   0.0000       0.961100        26.1529 
 328   0.0000       0.962190        26.1825 
 329   0.0000       0.966253        26.2931 
 330   0.0000       0.974485        26.5171 
 331   0.0000       0.977626        26.6026 
 332   0.0000       0.978600        26.6291 
 333   0.0000       0.981204        26.6999 
 334   0.0000       0.986097        26.8331 
 335   0.0000       0.991592        26.9826 
 336   0.0000       0.994989        27.0750 
 337   0.0000       0.997708        27.1490 
 338   0.0000       0.997845        27.1527 
 339   0.0000       0.999330        27.1932 
 340   0.0000       1.002048        27.2671 
 341   0.0000       1.003683        27.3116 
 342   0.0000       1.006086        27.3770 
 343   0.0000       1.008782        27.4504 
 344   0.0000       1.018191        27.7064 
 345   0.0000       1.024941        27.8901 
 346   0.0000       1.025426        27.9033 
 347   0.0000       1.026141        27.9227 
 348   0.0000       1.029036        28.0015 
 349   0.0000       1.030209        28.0334 
 350   0.0000       1.034249        28.1433 
 351   0.0000       1.042762        28.3750 
 352   0.0000       1.050453        28.5843 
 353   0.0000       1.059460        28.8294 
 354   0.0000       1.060433        28.8558 
 355   0.0000       1.060759        28.8647 
 356   0.0000       1.067762        29.0553 
 357   0.0000       1.071250        29.1502 
 358   0.0000       1.092274        29.7223 
 359   0.0000       1.094141        29.7731 
 360   0.0000       1.104866        30.0649 
 361   0.0000       1.106465        30.1085 
 362   0.0000       1.116081        30.3701 
 363   0.0000       1.117539        30.4098 
 364   0.0000       1.118629        30.4394 
 365   0.0000       1.130663        30.7669 
 366   0.0000       1.138421        30.9780 
 367   0.0000       1.141522        31.0624 
 368   0.0000       1.152116        31.3507 
 369   0.0000       1.153296        31.3828 
 370   0.0000       1.171091        31.8670 
 371   0.0000       1.173690        31.9377 
 372   0.0000       1.175557        31.9885 
 373   0.0000       1.180453        32.1218 
 374   0.0000       1.190328        32.3905 
 375   0.0000       1.191755        32.4293 
 376   0.0000       1.205163        32.7941 
 377   0.0000       1.207936        32.8696 
 378   0.0000       1.219585        33.1866 
 379   0.0000       1.227640        33.4058 
 380   0.0000       1.237823        33.6829 
 381   0.0000       1.241877        33.7932 
 382   0.0000       1.253407        34.1069 
 383   0.0000       1.272547        34.6278 
 384   0.0000       1.276370        34.7318 
 385   0.0000       1.276534        34.7363 
 386   0.0000       1.299969        35.3740 
 387   0.0000       1.304965        35.5099 
 388   0.0000       1.306662        35.5561 
 389   0.0000       1.313582        35.7444 
 390   0.0000       1.316092        35.8127 
 391   0.0000       1.319330        35.9008 
 392   0.0000       1.321850        35.9694 
 393   0.0000       1.327817        36.1317 
 394   0.0000       1.346498        36.6401 
 395   0.0000       1.352261        36.7969 
 396   0.0000       1.355824        36.8938 
 397   0.0000       1.358587        36.9690 
 398   0.0000       1.366960        37.1969 
 399   0.0000       1.376711        37.4622 
 400   0.0000       1.386645        37.7325 
 401   0.0000       1.391045        37.8523 
 402   0.0000       1.401699        38.1422 
 403   0.0000       1.408435        38.3255 
 404   0.0000       1.422481        38.7077 
 405   0.0000       1.426697        38.8224 
 406   0.0000       1.427186        38.8357 
 407   0.0000       1.431859        38.9629 
 408   0.0000       1.432035        38.9676 
 409   0.0000       1.441843        39.2345 
 410   0.0000       1.442996        39.2659 
 411   0.0000       1.445622        39.3374 
 412   0.0000       1.450661        39.4745 
 413   0.0000       1.452955        39.5369 
 414   0.0000       1.454818        39.5876 
 415   0.0000       1.455466        39.6052 
 416   0.0000       1.472583        40.0710 
 417   0.0000       1.476436        40.1759 
 418   0.0000       1.485947        40.4347 
 419   0.0000       1.493222        40.6326 
 420   0.0000       1.498397        40.7735 
 421   0.0000       1.501707        40.8635 
 422   0.0000       1.507190        41.0127 
 423   0.0000       1.509450        41.0742 
 424   0.0000       1.512472        41.1564 
 425   0.0000       1.515668        41.2434 
 426   0.0000       1.520759        41.3819 
 427   0.0000       1.537608        41.8404 
 428   0.0000       1.547436        42.1079 
 429   0.0000       1.561954        42.5029 
 430   0.0000       1.562442        42.5162 
 431   0.0000       1.562643        42.5217 
 432   0.0000       1.563300        42.5396 
 433   0.0000       1.565359        42.5956 
 434   0.0000       1.572893        42.8006 
 435   0.0000       1.584869        43.1265 
 436   0.0000       1.585689        43.1488 
 437   0.0000       1.589783        43.2602 
 438   0.0000       1.591133        43.2969 
 439   0.0000       1.597364        43.4665 
 440   0.0000       1.600167        43.5428 
 441   0.0000       1.604285        43.6548 
 442   0.0000       1.608994        43.7829 
 443   0.0000       1.620263        44.0896 
 444   0.0000       1.623695        44.1830 
 445   0.0000       1.635553        44.5057 
 446   0.0000       1.636114        44.5209 
 447   0.0000       1.640063        44.6284 
 448   0.0000       1.640479        44.6397 
 449   0.0000       1.641669        44.6721 
 450   0.0000       1.644719        44.7551 
 451   0.0000       1.656881        45.0860 
 452   0.0000       1.660744        45.1911 
 453   0.0000       1.663123        45.2559 
 454   0.0000       1.668143        45.3925 
 455   0.0000       1.682463        45.7822 
 456   0.0000       1.683094        45.7993 
 457   0.0000       1.684794        45.8456 
 458   0.0000       1.685601        45.8675 
 459   0.0000       1.687390        45.9162 
 460   0.0000       1.696150        46.1546 
 461   0.0000       1.696782        46.1718 
 462   0.0000       1.703142        46.3449 
 463   0.0000       1.705802        46.4172 
 464   0.0000       1.715650        46.6852 
 465   0.0000       1.720118        46.8068 
 466   0.0000       1.722012        46.8583 
 467   0.0000       1.722536        46.8726 
 468   0.0000       1.732922        47.1552 
 469   0.0000       1.738610        47.3100 
 470   0.0000       1.743045        47.4307 
 471   0.0000       1.764288        48.0087 
 472   0.0000       1.767078        48.0846 
 473   0.0000       1.772888        48.2427 
 474   0.0000       1.774113        48.2761 
 475   0.0000       1.776611        48.3440 
 476   0.0000       1.778128        48.3853 
 477   0.0000       1.787885        48.6508 
 478   0.0000       1.792194        48.7681 
 479   0.0000       1.793422        48.8015 
 480   0.0000       1.796474        48.8845 
 481   0.0000       1.806517        49.1578 
 482   0.0000       1.811417        49.2912 
 483   0.0000       1.817067        49.4449 
 484   0.0000       1.828694        49.7613 
 485   0.0000       1.834524        49.9199 
 486   0.0000       1.836922        49.9852 
 487   0.0000       1.838441        50.0265 
 488   0.0000       1.843160        50.1549 
 489   0.0000       1.855214        50.4829 
 490   0.0000       1.856024        50.5050 
 491   0.0000       1.860876        50.6370 
 492   0.0000       1.864711        50.7414 
 493   0.0000       1.874942        51.0198 
 494   0.0000       1.884026        51.2670 
 495   0.0000       1.918257        52.1984 
 496   0.0000       1.927556        52.4515 
 497   0.0000       1.935739        52.6741 
 498   0.0000       1.938034        52.7366 
 499   0.0000       1.945640        52.9436 
 500   0.0000       1.953415        53.1551 
 501   0.0000       1.972939        53.6864 
 502   0.0000       1.975265        53.7497 
 503   0.0000       1.975391        53.7531 
 504   0.0000       1.976051        53.7711 
 505   0.0000       2.013833        54.7992 
 506   0.0000       2.018568        54.9280 
 507   0.0000       2.025129        55.1066 
 508   0.0000       2.037105        55.4324 
 509   0.0000       2.040158        55.5155 
 510   0.0000       2.042627        55.5827 
 511   0.0000       2.045325        55.6561 
 512   0.0000       2.057612        55.9905 
 513   0.0000       2.078906        56.5699 
 514   0.0000       2.089277        56.8521 
 515   0.0000       2.100066        57.1457 
 516   0.0000       2.111550        57.4582 
 517   0.0000       2.112518        57.4845 
 518   0.0000       2.120920        57.7132 
 519   0.0000       2.135937        58.1218 
 520   0.0000       2.141524        58.2738 
 521   0.0000       2.155491        58.6539 
 522   0.0000       2.186335        59.4932 
 523   0.0000       2.191919        59.6451 
 524   0.0000       2.199851        59.8610 
 525   0.0000       2.201825        59.9147 
 526   0.0000       2.203409        59.9578 
 527   0.0000       2.203635        59.9639 
 528   0.0000       2.227743        60.6200 
 529   0.0000       2.228570        60.6425 
 530   0.0000       2.245903        61.1141 
 531   0.0000       2.252346        61.2895 
 532   0.0000       2.259836        61.4933 
 533   0.0000       2.265295        61.6418 
 534   0.0000       2.281865        62.0927 
 535   0.0000       2.308850        62.8270 
 536   0.0000       2.314008        62.9674 
 537   0.0000       2.319710        63.1225 
 538   0.0000       2.324570        63.2548 
 539   0.0000       2.325092        63.2690 
 540   0.0000       2.354375        64.0658 
 541   0.0000       2.375628        64.6441 
 542   0.0000       2.386869        64.9500 
 543   0.0000       2.392036        65.0906 
 544   0.0000       2.399712        65.2995 
 545   0.0000       2.402327        65.3707 
 546   0.0000       2.409250        65.5590 
 547   0.0000       2.413370        65.6711 
 548   0.0000       2.415589        65.7315 
 549   0.0000       2.417244        65.7766 
 550   0.0000       2.429625        66.1135 
 551   0.0000       2.443595        66.4936 
 552   0.0000       2.456185        66.8362 
 553   0.0000       2.459707        66.9320 
 554   0.0000       2.462883        67.0184 
 555   0.0000       2.468551        67.1727 
 556   0.0000       2.475108        67.3511 
 557   0.0000       2.481936        67.5369 
 558   0.0000       2.499559        68.0165 
 559   0.0000       2.509568        68.2888 
 560   0.0000       2.513387        68.3927 
 561   0.0000       2.513425        68.3938 
 562   0.0000       2.515156        68.4409 
 563   0.0000       2.523751        68.6748 
 564   0.0000       2.535331        68.9899 
 565   0.0000       2.544613        69.2424 
 566   0.0000       2.545568        69.2684 
 567   0.0000       2.559580        69.6497 
 568   0.0000       2.563110        69.7458 
 569   0.0000       2.568561        69.8941 
 570   0.0000       2.570860        69.9567 
 571   0.0000       2.579659        70.1961 
 572   0.0000       2.583646        70.3046 
 573   0.0000       2.585179        70.3463 
 574   0.0000       2.588774        70.4441 
 575   0.0000       2.615842        71.1807 
 576   0.0000       2.621454        71.3334 
 577   0.0000       2.629271        71.5461 
 578   0.0000       2.632896        71.6448 
 579   0.0000       2.685769        73.0835 
 580   0.0000       2.705356        73.6165 
 581   0.0000       2.738392        74.5154 
 582   0.0000       2.761845        75.1536 
 583   0.0000       2.776665        75.5569 
 584   0.0000       2.796179        76.0879 
 585   0.0000       2.796827        76.1055 
 586   0.0000       2.810667        76.4821 
 587   0.0000       2.887593        78.5754 
 588   0.0000       2.937405        79.9309 
 589   0.0000       2.972161        80.8766 
 590   0.0000       3.035559        82.6018 
 591   0.0000       3.109967        84.6265 
 592   0.0000       3.301396        89.8356 
 593   0.0000       3.431875        93.3861 
 594   0.0000       3.432780        93.4107 
[...]

 -----------------------------------------------------------
 Nucleus  56H : A:ISTP=    1 I=  0.5 P=533.5514 MHz/au**3
                Q:ISTP=    2 I=  1.0 Q=  0.0029 barn     
 -----------------------------------------------------------
 Solving for nuclear perturbation:
Forming RHS of the CP-SCF equations         ... 
Calc. nucleus orbit integrals (SHARK)       ... done

------------------------------------------------------------------------------
                           ORCA CP-SCF CALCULATION
------------------------------------------------------------------------------

Input orbitals are from        ... EPRII.gbw
Input Perturbation             ... EPRII.pin.tmp
Wavefunction output            ... EPRII.pout.tmp
Perturbation mode              ... Imaginary perturbation
Solver                         ... POPLE
Max. number of iterations      ... 64
Convergence tolerance          ... 1.000e-03
Integral handling              ... Direct
DFT GridXC                     ... 1
COSX GridX                     ... 1
COSX IntAccX                   ... 3.067
COSX Algorithm                 ... Auto
Number of perturbations        ... 3
Number of operators            ... 2
Orbital ranges used for CP-SCF:
 Operator 0:  Orbitals   0...104  to 105...712
 Operator 1:  Orbitals   0...103  to 104...712
Variables per perturbation     ... 127176
DFT calculation                         ... on
XC functional terms                     ... off
Hybrid DFT                              ... on
   Exchange mixing (SCF)                ...  0.200
   Exchange mixing (CP-SCF)             ...  0.200
   GGA exch. scaling(SCF)               ...  0.720
   GGA exch. scaling (CP-SCF)           ...  0.720
   GGA corr. scaling (SCF)              ...  0.810
   GGA corr. scaling (CP-SCF)           ...  0.810

CP-SCF GRID
-----------

General Integration Accuracy     IntAcc      ... 3.467
Radial Grid Type                 RadialGrid  ... OptM3 with GC (2021)
Angular Grid (max. ang.)         AngularGrid ... 1 (Lebedev-50)
Angular grid pruning method      GridPruning ... 4 (adaptive)
Weight generation scheme         WeightScheme... Becke
Basis function cutoff            BFCut       ... 1.0000e-10
Integration weight cutoff        WCut        ... 1.0000e-14
Angular grids for H and He will be reduced by one unit
Partially contracted basis set               ... off
Rotationally invariant grid construction     ... off

Total number of grid points                  ...    38985
Total number of batches                      ...      633
Average number of points per batch           ...       61
Average number of grid points per atom       ...      661

CP-SCF GRIDX
------------

General Integration Accuracy     IntAcc      ... 3.067
Radial Grid Type                 RadialGrid  ... OptM3 with GC (2021)
Angular Grid (max. ang.)         AngularGrid ... 1 (Lebedev-50)
Angular grid pruning method      GridPruning ... 4 (adaptive)
Weight generation scheme         WeightScheme... Becke
Basis function cutoff            BFCut       ... 1.0000e-10
Integration weight cutoff        WCut        ... 1.0000e-14
Angular grids for H and He will be reduced by one unit
Partially contracted basis set               ... on
Rotationally invariant grid construction     ... off

Total number of grid points                  ...    18241
Total number of batches                      ...      321
Average number of points per batch           ...       56
Average number of grid points per atom       ...      309

Memory available               ... 799.8 MB
Memory needed per perturbation ...  29.8 MB
Perturbations treated per batch... 3
Number of batches              ... 1
     CP-SCF ITERATION   0:   4.6106e-02 (   3.4 sec   0/  3 done)
     CP-SCF ITERATION   1:   2.0977e-03 (   3.4 sec   0/  3 done)
     CP-SCF ITERATION   2:   1.4358e-04 (   3.4 sec   3/  3 done)
                    *** THE CP-SCF HAS CONVERGED ***

Forming final perturbed densities           ... done
Transforming perturbed density to AO basis  ... done

 Raw HFC matrix (all values in MHz): 
 -----------------------------------
                -1.1220               0.5623              -0.0019
                 0.5621              -1.5606              -0.0018
                -0.0019              -0.0018              -2.6250

 A(FC)          -1.7697              -1.7697              -1.7697
 A(SD)           1.0311              -0.1759              -0.8552
 A(ORB+DIA)      0.0007               0.0008              -0.0002    A(PC) =   0.0005
 A(ORB)          0.0006               0.0007               0.0000    A(PC) =   0.0004
 A(DIA)          0.0001               0.0001              -0.0002    A(PC) =   0.0000
             ----------           ----------           ----------
 A(Tot)         -0.7378              -1.9447              -2.6250    A(iso)=   -1.7692
 Orientation: 
  X           0.8256313            0.5642095           -0.0007470
  Y           0.5642083           -0.8256314           -0.0013131
  Z          -0.0013576            0.0006626           -0.9999989

Notes:  (1) The A matrix conforms to the "SAI" spin Hamiltonian convention.
        (2) Tensor is right-handed.

 -----------------------------------------------------------
 Nucleus  57H : A:ISTP=    1 I=  0.5 P=533.5514 MHz/au**3
                Q:ISTP=    2 I=  1.0 Q=  0.0029 barn     
 -----------------------------------------------------------
 Solving for nuclear perturbation:
Forming RHS of the CP-SCF equations         ... 
Calc. nucleus orbit integrals (SHARK)       ... done

------------------------------------------------------------------------------
                           ORCA CP-SCF CALCULATION
------------------------------------------------------------------------------

Input orbitals are from        ... EPRII.gbw
Input Perturbation             ... EPRII.pin.tmp
Wavefunction output            ... EPRII.pout.tmp
Perturbation mode              ... Imaginary perturbation
Solver                         ... POPLE
Max. number of iterations      ... 64
Convergence tolerance          ... 1.000e-03
Integral handling              ... Direct
DFT GridXC                     ... 1
COSX GridX                     ... 1
COSX IntAccX                   ... 3.067
COSX Algorithm                 ... Auto
Number of perturbations        ... 3
Number of operators            ... 2
Orbital ranges used for CP-SCF:
 Operator 0:  Orbitals   0...104  to 105...712
 Operator 1:  Orbitals   0...103  to 104...712
Variables per perturbation     ... 127176
DFT calculation                         ... on
XC functional terms                     ... off
Hybrid DFT                              ... on
   Exchange mixing (SCF)                ...  0.200
   Exchange mixing (CP-SCF)             ...  0.200
   GGA exch. scaling(SCF)               ...  0.720
   GGA exch. scaling (CP-SCF)           ...  0.720
   GGA corr. scaling (SCF)              ...  0.810
   GGA corr. scaling (CP-SCF)           ...  0.810

CP-SCF GRID
-----------

General Integration Accuracy     IntAcc      ... 3.467
Radial Grid Type                 RadialGrid  ... OptM3 with GC (2021)
Angular Grid (max. ang.)         AngularGrid ... 1 (Lebedev-50)
Angular grid pruning method      GridPruning ... 4 (adaptive)
Weight generation scheme         WeightScheme... Becke
Basis function cutoff            BFCut       ... 1.0000e-10
Integration weight cutoff        WCut        ... 1.0000e-14
Angular grids for H and He will be reduced by one unit
Partially contracted basis set               ... off
Rotationally invariant grid construction     ... off

Total number of grid points                  ...    38985
Total number of batches                      ...      633
Average number of points per batch           ...       61
Average number of grid points per atom       ...      661

CP-SCF GRIDX
------------

General Integration Accuracy     IntAcc      ... 3.067
Radial Grid Type                 RadialGrid  ... OptM3 with GC (2021)
Angular Grid (max. ang.)         AngularGrid ... 1 (Lebedev-50)
Angular grid pruning method      GridPruning ... 4 (adaptive)
Weight generation scheme         WeightScheme... Becke
Basis function cutoff            BFCut       ... 1.0000e-10
Integration weight cutoff        WCut        ... 1.0000e-14
Angular grids for H and He will be reduced by one unit
Partially contracted basis set               ... on
Rotationally invariant grid construction     ... off

Total number of grid points                  ...    18241
Total number of batches                      ...      321
Average number of points per batch           ...       56
Average number of grid points per atom       ...      309

Memory available               ... 798.9 MB
Memory needed per perturbation ...  29.8 MB
Perturbations treated per batch... 3
Number of batches              ... 1
     CP-SCF ITERATION   0:   4.6009e-02 (   3.9 sec   0/  3 done)
     CP-SCF ITERATION   1:   1.9886e-03 (   3.4 sec   0/  3 done)
     CP-SCF ITERATION   2:   1.3642e-04 (   3.2 sec   3/  3 done)
                    *** THE CP-SCF HAS CONVERGED ***

Forming final perturbed densities           ... done
Transforming perturbed density to AO basis  ... done

 Raw HFC matrix (all values in MHz): 
 -----------------------------------
                -1.9230              -0.2315               0.0001
                -0.2310              -1.0843              -0.0022
                 0.0001              -0.0022              -2.3239

 A(FC)          -1.7774              -1.7774              -1.7774
 A(SD)           0.7525              -0.2061              -0.5464
 A(ORB+DIA)      0.0002               0.0009              -0.0001    A(PC) =   0.0003
 A(ORB)          0.0000               0.0008               0.0000    A(PC) =   0.0003
 A(DIA)          0.0001               0.0001              -0.0001    A(PC) =   0.0001
             ----------           ----------           ----------
 A(Tot)         -1.0248              -1.9826              -2.3239    A(iso)=   -1.7771
 Orientation: 
  X          -0.2495332            0.9683657           -0.0009829
  Y           0.9683649            0.2495310           -0.0019432
  Z          -0.0016365           -0.0014367           -0.9999976

Notes:  (1) The A matrix conforms to the "SAI" spin Hamiltonian convention.
        (2) Tensor is right-handed.

 -----------------------------------------------------------
 Nucleus  58H : A:ISTP=    1 I=  0.5 P=533.5514 MHz/au**3
                Q:ISTP=    2 I=  1.0 Q=  0.0029 barn     
 -----------------------------------------------------------
 Solving for nuclear perturbation:
Forming RHS of the CP-SCF equations         ... 
Calc. nucleus orbit integrals (SHARK)       ... done

------------------------------------------------------------------------------
                           ORCA CP-SCF CALCULATION
------------------------------------------------------------------------------

Input orbitals are from        ... EPRII.gbw
Input Perturbation             ... EPRII.pin.tmp
Wavefunction output            ... EPRII.pout.tmp
Perturbation mode              ... Imaginary perturbation
Solver                         ... POPLE
Max. number of iterations      ... 64
Convergence tolerance          ... 1.000e-03
Integral handling              ... Direct
DFT GridXC                     ... 1
COSX GridX                     ... 1
COSX IntAccX                   ... 3.067
COSX Algorithm                 ... Auto
Number of perturbations        ... 3
Number of operators            ... 2
Orbital ranges used for CP-SCF:
 Operator 0:  Orbitals   0...104  to 105...712
 Operator 1:  Orbitals   0...103  to 104...712
Variables per perturbation     ... 127176
DFT calculation                         ... on
XC functional terms                     ... off
Hybrid DFT                              ... on
   Exchange mixing (SCF)                ...  0.200
   Exchange mixing (CP-SCF)             ...  0.200
   GGA exch. scaling(SCF)               ...  0.720
   GGA exch. scaling (CP-SCF)           ...  0.720
   GGA corr. scaling (SCF)              ...  0.810
   GGA corr. scaling (CP-SCF)           ...  0.810

CP-SCF GRID
-----------

General Integration Accuracy     IntAcc      ... 3.467
Radial Grid Type                 RadialGrid  ... OptM3 with GC (2021)
Angular Grid (max. ang.)         AngularGrid ... 1 (Lebedev-50)
Angular grid pruning method      GridPruning ... 4 (adaptive)
Weight generation scheme         WeightScheme... Becke
Basis function cutoff            BFCut       ... 1.0000e-10
Integration weight cutoff        WCut        ... 1.0000e-14
Angular grids for H and He will be reduced by one unit
Partially contracted basis set               ... off
Rotationally invariant grid construction     ... off

Total number of grid points                  ...    38985
Total number of batches                      ...      633
Average number of points per batch           ...       61
Average number of grid points per atom       ...      661

CP-SCF GRIDX
------------

General Integration Accuracy     IntAcc      ... 3.067
Radial Grid Type                 RadialGrid  ... OptM3 with GC (2021)
Angular Grid (max. ang.)         AngularGrid ... 1 (Lebedev-50)
Angular grid pruning method      GridPruning ... 4 (adaptive)
Weight generation scheme         WeightScheme... Becke
Basis function cutoff            BFCut       ... 1.0000e-10
Integration weight cutoff        WCut        ... 1.0000e-14
Angular grids for H and He will be reduced by one unit
Partially contracted basis set               ... on
Rotationally invariant grid construction     ... off

Total number of grid points                  ...    18241
Total number of batches                      ...      321
Average number of points per batch           ...       56
Average number of grid points per atom       ...      309

Memory available               ... 797.9 MB
Memory needed per perturbation ...  29.8 MB
Perturbations treated per batch... 3
Number of batches              ... 1
     CP-SCF ITERATION   0:   4.1902e-02 (   3.3 sec   0/  3 done)
     CP-SCF ITERATION   1:   1.7277e-03 (   3.2 sec   1/  3 done)
     CP-SCF ITERATION   2:   9.3626e-05 (   2.8 sec   3/  3 done)
                    *** THE CP-SCF HAS CONVERGED ***

Forming final perturbed densities           ... done
Transforming perturbed density to AO basis  ... done

 Raw HFC matrix (all values in MHz): 
 -----------------------------------
                 1.3488               0.2581              -0.0004
                 0.2581               0.5530              -0.0002
                -0.0004              -0.0002               0.3486

 A(FC)           0.7501               0.7501               0.7501
 A(SD)          -0.4015              -0.2736               0.6751
 A(ORB+DIA)     -0.0000               0.0001              -0.0001    A(PC) =  -0.0000
 A(ORB)         -0.0000               0.0001              -0.0002    A(PC) =  -0.0000
 A(DIA)         -0.0000              -0.0000               0.0000    A(PC) =   0.0000
             ----------           ----------           ----------
 A(Tot)          0.3486               0.4766               1.4252    A(iso)=    0.7501
 Orientation: 
  X           0.0003058           -0.2837603           -0.9588952
  Y           0.0005523            0.9588951           -0.2837601
  Z           0.9999998           -0.0004428            0.0004500

Notes:  (1) The A matrix conforms to the "SAI" spin Hamiltonian convention.
        (2) Tensor is right-handed.


--------------------------------------------------------------------------------
----------------------------------------------------------------------------
                           ORCA EULER ANGLE PROGRAM
----------------------------------------------------------------------------

Only g-tensor available        -->  using g-tensor as reference tensor

Reference tensor               ...  g

g-tensor ordering              ...  |g_min> --> |gx>
                                    |g_mid> --> |gy>
                                    |g_max> --> |gz>

A- and EFG-tensor ordering     ...  the axes |Ax>, |Qx>, |Ay>, etc. are assigned
                                    such that the Euler rotation is minimal. You
                                    can find the respective eigenvalues as Ax,
                                    EFGx, Ay, etc. in the tables below.
                                    The relation of |Ax>, |Ay>,  etc. to Amin, Amid, etc.
                                    (as printed in the ORCA EPR/NMR CALCULATION Output)
                                    is obtained in the detailed printout.

Euler rotation around          ...  z - y - z
   First rotation              -->  by alpha around z
   Second rotation             -->  by beta around y'
   Third rotation              -->  by gamma around z''
   Positive / Negative angle   -->  clockwise / counterclockwise rotation

Plot EFG-tensors                    (-)
Plot HFC-tensors                    (-)
Detailed Printout                   (-)

-------------------------------------------------------------------------
          Euler rotation of hyperfine tensor to g-tensor
-------------------------------------------------------------------------

-------------------------------------------------------------------
 Atom  |   Alpha    Beta    Gamma   |   Ax       Ay       Az 
       |          [degrees]         |           [MHz]         
-------------------------------------------------------------------
  9H       90.3     15.5    -90.3     -16.94    -7.84   -20.39
 10H       90.0     18.5    -90.0       4.39     5.06     9.73
 12H      -90.0     34.3     90.0     -48.52   -20.05   -73.41
 14H       58.9     17.0    -39.5      68.18    77.71    69.66
 15H      119.9     16.6   -139.1      67.68    77.21    69.18
 17H       -7.7     19.2     41.3      -3.32    -3.15     2.95
 18H     -172.2     19.0    138.3      -3.31    -3.15     2.94
 20H      116.8     53.6   -144.9      -0.01     2.31     0.10
 21H       62.8     54.0    -34.4      -0.01     2.31     0.10
 23H      109.8     20.2   -150.0      24.00    24.60    27.67
 24H       70.3     20.2    -29.9      24.03    24.64    27.71
 26H       79.2     42.1    -92.0      -1.03     0.91    -0.90
 27H      100.7     42.0    -87.7      -1.03     0.91    -0.90
 29H      -84.6     19.0    117.7      -0.10    -0.14     0.82
 30H      -95.7     19.0     62.5      -0.10    -0.14     0.82
 32H      -98.6     35.4    102.9      -0.12    -0.10     0.38
 33H      -81.4     35.4     77.3      -0.12    -0.10     0.38
 35H      -92.3     27.0     89.8      -0.83    -0.84     0.71
 36H      -89.8     25.2     90.1      -0.13    -0.13     0.24
 43H      -90.2     32.3     90.2       0.60     0.38     1.00
 44H       90.2     19.3    -90.1      -0.23    -0.37    -0.08
 45H      -90.2     22.8     90.3       0.47     1.33     0.08
 46H       90.1     35.0    -90.0       0.51     0.10     1.26
 47H      -90.6     13.0     90.7      -0.25    -0.10    -0.34
 54H      -90.2     30.4     90.3      -2.07    -0.62    -3.12
 55H      -90.1     38.6     90.2       0.41     1.20     0.64
 56H      -93.8      1.7     93.8      -2.63    -0.74    -1.94
 57H      -90.2     21.6     90.2      -2.32    -1.98    -1.02
 58H      -90.4     19.6     90.5       0.35     1.43     0.48
-------------------------------------------------------------------


Maximum memory used throughout the entire EPRNMR-calculation: 329.3 MB

Timings for individual modules:

Sum of individual times         ...    11299.925 sec (= 188.332 min)
GTO integral calculation        ...        8.751 sec (=   0.146 min)   0.1 %
Spin-Orbit-Coupling Matrices    ...       21.716 sec (=   0.362 min)   0.2 %
SCF iterations                  ...       63.649 sec (=   1.061 min)   0.6 %
EPR/NMR calculation             ...    11205.809 sec (= 186.763 min)  99.2 %
                             ****ORCA TERMINATED NORMALLY****
TOTAL RUN TIME: 0 days 3 hours 8 minutes 24 seconds 919 msec
