
                                 *****************
                                 * O   R   C   A *
                                 *****************

                                            #,                                       
                                            ###                                      
                                            ####                                     
                                            #####                                    
                                            ######                                   
                                           ########,                                 
                                     ,,################,,,,,                         
                               ,,#################################,,                 
                          ,,##########################################,,             
                       ,#########################################, ''#####,          
                    ,#############################################,,   '####,        
                  ,##################################################,,,,####,       
                ,###########''''           ''''###############################       
              ,#####''   ,,,,##########,,,,          '''####'''          '####       
            ,##' ,,,,###########################,,,                        '##       
           ' ,,###''''                  '''############,,,                           
         ,,##''                                '''############,,,,        ,,,,,,###''
      ,#''                                            '''#######################'''  
     '                                                          ''''####''''         
             ,#######,   #######,   ,#######,      ##                                
            ,#'     '#,  ##    ##  ,#'     '#,    #''#        ######   ,####,        
            ##       ##  ##   ,#'  ##            #'  '#       #        #'  '#        
            ##       ##  #######   ##           ,######,      #####,   #    #        
            '#,     ,#'  ##    ##  '#,     ,#' ,#      #,         ##   #,  ,#        
             '#######'   ##     ##  '#######'  #'      '#     #####' # '####'        



                  #######################################################
                  #                        -***-                        #
                  #          Department of theory and spectroscopy      #
                  #    Directorship and core code : Frank Neese         #
                  #        Max Planck Institute fuer Kohlenforschung    #
                  #                Kaiser Wilhelm Platz 1               #
                  #                 D-45470 Muelheim/Ruhr               #
                  #                      Germany                        #
                  #                                                     #
                  #                  All rights reserved                #
                  #                        -***-                        #
                  #######################################################


                         Program Version 5.0.4 -  RELEASE  -


 With contributions from (in alphabetic order):
   Daniel Aravena         : Magnetic Suceptibility
   Michael Atanasov       : Ab Initio Ligand Field Theory (pilot matlab implementation)
   Alexander A. Auer      : GIAO ZORA, VPT2 properties, NMR spectrum
   Ute Becker             : Parallelization
   Giovanni Bistoni       : ED, misc. LED, open-shell LED, HFLD
   Martin Brehm           : Molecular dynamics
   Dmytro Bykov           : SCF Hessian
   Vijay G. Chilkuri      : MRCI spin determinant printing, contributions to CSF-ICE
   Dipayan Datta          : RHF DLPNO-CCSD density
   Achintya Kumar Dutta   : EOM-CC, STEOM-CC
   Dmitry Ganyushin       : Spin-Orbit,Spin-Spin,Magnetic field MRCI
   Miquel Garcia          : C-PCM and meta-GGA Hessian, CC/C-PCM, Gaussian charge scheme
   Yang Guo               : DLPNO-NEVPT2, F12-NEVPT2, CIM, IAO-localization
   Andreas Hansen         : Spin unrestricted coupled pair/coupled cluster methods
   Benjamin Helmich-Paris : MC-RPA, TRAH-SCF, COSX integrals
   Lee Huntington         : MR-EOM, pCC
   Robert Izsak           : Overlap fitted RIJCOSX, COSX-SCS-MP3, EOM
   Marcus Kettner         : VPT2
   Christian Kollmar      : KDIIS, OOCD, Brueckner-CCSD(T), CCSD density, CASPT2, CASPT2-K
   Simone Kossmann        : Meta GGA functionals, TD-DFT gradient, OOMP2, MP2 Hessian
   Martin Krupicka        : Initial AUTO-CI
   Lucas Lang             : DCDCAS
   Marvin Lechner         : AUTO-CI (C++ implementation), FIC-MRCC
   Dagmar Lenk            : GEPOL surface, SMD
   Dimitrios Liakos       : Extrapolation schemes; Compound Job, initial MDCI parallelization
   Dimitrios Manganas     : Further ROCIS development; embedding schemes
   Dimitrios Pantazis     : SARC Basis sets
   Anastasios Papadopoulos: AUTO-CI, single reference methods and gradients
   Taras Petrenko         : DFT Hessian,TD-DFT gradient, ASA, ECA, R-Raman, ABS, FL, XAS/XES, NRVS
   Peter Pinski           : DLPNO-MP2, DLPNO-MP2 Gradient
   Christoph Reimann      : Effective Core Potentials
   Marius Retegan         : Local ZFS, SOC
   Christoph Riplinger    : Optimizer, TS searches, QM/MM, DLPNO-CCSD(T), (RO)-DLPNO pert. Triples
   Tobias Risthaus        : Range-separated hybrids, TD-DFT gradient, RPA, STAB
   Michael Roemelt        : Original ROCIS implementation
   Masaaki Saitow         : Open-shell DLPNO-CCSD energy and density
   Barbara Sandhoefer     : DKH picture change effects
   Avijit Sen             : IP-ROCIS
   Kantharuban Sivalingam : CASSCF convergence, NEVPT2, FIC-MRCI
   Bernardo de Souza      : ESD, SOC TD-DFT
   Georgi Stoychev        : AutoAux, RI-MP2 NMR, DLPNO-MP2 response
   Willem Van den Heuvel  : Paramagnetic NMR
   Boris Wezisla          : Elementary symmetry handling
   Frank Wennmohs         : Technical directorship


 We gratefully acknowledge several colleagues who have allowed us to
 interface, adapt or use parts of their codes:
   Stefan Grimme, W. Hujo, H. Kruse, P. Pracht,  : VdW corrections, initial TS optimization,
                  C. Bannwarth, S. Ehlert          DFT functionals, gCP, sTDA/sTD-DF
   Ed Valeev, F. Pavosevic, A. Kumar             : LibInt (2-el integral package), F12 methods
   Garnet Chan, S. Sharma, J. Yang, R. Olivares  : DMRG
   Ulf Ekstrom                                   : XCFun DFT Library
   Mihaly Kallay                                 : mrcc  (arbitrary order and MRCC methods)
   Jiri Pittner, Ondrej Demel                    : Mk-CCSD
   Frank Weinhold                                : gennbo (NPA and NBO analysis)
   Christopher J. Cramer and Donald G. Truhlar   : smd solvation model
   Lars Goerigk                                  : TD-DFT with DH, B97 family of functionals
   V. Asgeirsson, H. Jonsson                     : NEB implementation
   FAccTs GmbH                                   : IRC, NEB, NEB-TS, DLPNO-Multilevel, CI-OPT
                                                   MM, QMMM, 2- and 3-layer-ONIOM, Crystal-QMMM,
                                                   LR-CPCM, SF, NACMEs, symmetry and pop. for TD-DFT,
                                                   nearIR, NL-DFT gradient (VV10), updates on ESD,
                                                   ML-optimized integration grids
   S Lehtola, MJT Oliveira, MAL Marques          : LibXC Library
   Liviu Ungur et al                             : ANISO software


 Your calculation uses the libint2 library for the computation of 2-el integrals
 For citations please refer to: http://libint.valeyev.net

 Your ORCA version has been built with support for libXC version: 5.1.0
 For citations please refer to: https://tddft.org/programs/libxc/

 This ORCA versions uses:
   CBLAS   interface :  Fast vector & matrix operations
   LAPACKE interface :  Fast linear algebra routines
   SCALAPACK package :  Parallel linear algebra routines
   Shared memory     :  Shared parallel matrices
   BLAS/LAPACK       :  OpenBLAS 0.3.15  USE64BITINT DYNAMIC_ARCH NO_AFFINITY SkylakeX SINGLE_THREADED
        Core in use  :  SkylakeX
   Copyright (c) 2011-2014, The OpenBLAS Project




***************************************
The coordinates will be read from file: opt_EPRII.xyz
***************************************


================================================================================

----- Orbital basis set information -----
Your calculation utilizes the basis: EPR-II
   V. Barone, in Recent Advances in Density Functional Methods, Part 1 (ed. D. P. Chong), World Scientific, Singapore, 1995, p. 287.

----- AuxJ basis set information -----
Your calculation utilizes the AutoAux generation procedure.
  G. L. Stoychev, A. A. Auer, F. Neese, J. Chem. Theory Comput. 13, 554 (2017)

----- AuxC basis set information -----
Your calculation utilizes the AutoAux generation procedure.
  G. L. Stoychev, A. A. Auer, F. Neese, J. Chem. Theory Comput. 13, 554 (2017)

----- AuxJK basis set information -----
Your calculation utilizes the AutoAux generation procedure.
  G. L. Stoychev, A. A. Auer, F. Neese, J. Chem. Theory Comput. 13, 554 (2017)

================================================================================
                                        WARNINGS
                       Please study these warnings very carefully!
================================================================================

WARNING: Old DensityContainer found on disk!
         Will remove this file - 
         If you want to keep old densities, please start your calculation with a different basename. 


WARNING: your system is open-shell and RHF/RKS was chosen
  ===> : WILL SWITCH to UHF/UKS


INFO   : the flag for use of the SHARK integral package has been found!

================================================================================
                                       INPUT FILE
================================================================================
NAME = EPRII.inp
|  1> ! B3LYP EPR-II AUTOAUX
|  2> %pal nprocs 16 end
|  3> *XYZFile 0 2 opt_EPRII.xyz
|  4> %EPRNMR
|  5>         GTENSOR   TRUE
|  6>         NUCLEI    = ALL H {SHIFT, AISO, ADIP, AORB}
|  7>         ORI       CenterOfElCharge
|  8> END
|  9> 
| 10>                          ****END OF INPUT****
================================================================================

                       ****************************
                       * Single Point Calculation *
                       ****************************

---------------------------------
CARTESIAN COORDINATES (ANGSTROEM)
---------------------------------
  C     -4.063411   -0.116031    0.000381
  C     -2.838031   -0.045851    0.001359
  C      2.847796    0.031502    0.002314
  C     -1.415755    0.009274    0.001097
  C     -0.713197    1.275735   -0.002065
  C      0.712165    1.217650   -0.001116
  C      1.416713    0.007055    0.001976
  C      0.711436   -1.243044    0.004484
  C     -0.686037   -1.199693    0.004134
  H      1.279389    2.141817   -0.003061
  H     -1.251249   -2.124614    0.006214
  C     -1.407695    2.509167   -0.006355
  H     -2.493810    2.470704   -0.007173
  C     -0.753515    3.865509   -0.009553
  H     -0.099756    3.970330    0.871050
  H     -0.085896    3.959684   -0.880810
  C     -1.764099    5.027728   -0.024790
  H     -2.407067    4.932102   -0.909065
  H     -2.421827    4.942656    0.849684
  C     -1.086359    6.408106   -0.027337
  H     -0.444946    6.530732   -0.907455
  H     -0.459509    6.541123    0.861725
  C      1.493589   -2.545562    0.007443
  H      2.163440   -2.545935   -0.863660
  H      2.161560   -2.543208    0.879998
  C      0.669127   -3.842482    0.008517
  H      0.012619   -3.867388    0.888486
  H      0.014369   -3.869833   -0.872689
  C      1.555057   -5.101488    0.011166
  H      2.214102   -5.082052   -0.867050
  H      2.212055   -5.079807    0.890861
  C      0.741313   -6.407351    0.011889
  H      0.098485   -6.470913   -0.873353
  H      0.095991   -6.468371    0.895491
  C      4.073016    0.052379    0.003430
  H     -1.826669    7.214571   -0.038164
  H      1.395680   -7.285258    0.014067
  C      5.504808    0.085475    0.003548
  C      6.195098    1.322267    0.002863
  C      7.594370    1.350944    0.002826
  C      8.329483    0.153179    0.003482
  C      7.652617   -1.078498    0.004192
  C      6.253539   -1.116733    0.004239
  H      9.415843    0.179317    0.003437
  H      8.215781   -2.008107    0.004693
  H      5.624765    2.246411    0.002350
  H      5.728701   -2.067423    0.004764
  H      8.112575    2.306356    0.002279
  C     -5.490595   -0.212094    0.000500
  C     -6.294857    0.954567   -0.000327
  C     -7.690441    0.851753   -0.000037
  C     -8.310216   -0.409774    0.001060
  C     -7.520554   -1.572552    0.001857
  C     -6.124408   -1.479767    0.001574
  H     -9.394221   -0.485887    0.001299
  H     -7.994313   -2.550796    0.002709
  H     -5.815023    1.928756   -0.001133
  H     -5.512229   -2.376732    0.002199
  H     -8.295757    1.754502   -0.000643

----------------------------
CARTESIAN COORDINATES (A.U.)
----------------------------
  NO LB      ZA    FRAG     MASS         X           Y           Z
   0 C     6.0000    0    12.011   -7.678733   -0.219267    0.000721
   1 C     6.0000    0    12.011   -5.363101   -0.086647    0.002568
   2 C     6.0000    0    12.011    5.381555    0.059530    0.004373
   3 C     6.0000    0    12.011   -2.675390    0.017525    0.002072
   4 C     6.0000    0    12.011   -1.347748    2.410790   -0.003902
   5 C     6.0000    0    12.011    1.345796    2.301024   -0.002110
   6 C     6.0000    0    12.011    2.677199    0.013332    0.003735
   7 C     6.0000    0    12.011    1.344419   -2.349013    0.008474
   8 C     6.0000    0    12.011   -1.296423   -2.267090    0.007812
   9 H     1.0000    0     1.008    2.417696    4.047447   -0.005785
  10 H     1.0000    0     1.008   -2.364518   -4.014938    0.011742
  11 C     6.0000    0    12.011   -2.660158    4.741639   -0.012009
  12 H     1.0000    0     1.008   -4.712617    4.668954   -0.013554
  13 C     6.0000    0    12.011   -1.423937    7.304753   -0.018053
  14 H     1.0000    0     1.008   -0.188511    7.502837    1.646046
  15 H     1.0000    0     1.008   -0.162319    7.482718   -1.664490
  16 C     6.0000    0    12.011   -3.333664    9.501029   -0.046847
  17 H     1.0000    0     1.008   -4.548697    9.320322   -1.717884
  18 H     1.0000    0     1.008   -4.576590    9.340266    1.605671
  19 C     6.0000    0    12.011   -2.052921   12.109565   -0.051660
  20 H     1.0000    0     1.008   -0.840826   12.341296   -1.714842
  21 H     1.0000    0     1.008   -0.868346   12.360930    1.628423
  22 C     6.0000    0    12.011    2.822474   -4.810416    0.014065
  23 H     1.0000    0     1.008    4.088310   -4.811120   -1.632081
  24 H     1.0000    0     1.008    4.084756   -4.805967    1.662956
  25 C     6.0000    0    12.011    1.264468   -7.261238    0.016094
  26 H     1.0000    0     1.008    0.023846   -7.308305    1.678996
  27 H     1.0000    0     1.008    0.027154   -7.312925   -1.649144
  28 C     6.0000    0    12.011    2.938631   -9.640415    0.021101
  29 H     1.0000    0     1.008    4.184046   -9.603687   -1.638487
  30 H     1.0000    0     1.008    4.180178   -9.599445    1.683484
  31 C     6.0000    0    12.011    1.400879  -12.108139    0.022466
  32 H     1.0000    0     1.008    0.186110  -12.228254   -1.650397
  33 H     1.0000    0     1.008    0.181396  -12.223450    1.692233
  34 C     6.0000    0    12.011    7.696886    0.098982    0.006482
  35 H     1.0000    0     1.008   -3.451905   13.633562   -0.072120
  36 H     1.0000    0     1.008    2.637454  -13.767143    0.026583
  37 C     6.0000    0    12.011   10.402580    0.161524    0.006705
  38 C     6.0000    0    12.011   11.707038    2.498723    0.005410
  39 C     6.0000    0    12.011   14.351280    2.552914    0.005341
  40 C     6.0000    0    12.011   15.740441    0.289466    0.006580
  41 C     6.0000    0    12.011   14.461349   -2.038067    0.007921
  42 C     6.0000    0    12.011   11.817477   -2.110319    0.008011
  43 H     1.0000    0     1.008   17.793365    0.338859    0.006494
  44 H     1.0000    0     1.008   15.525577   -3.794773    0.008869
  45 H     1.0000    0     1.008   10.629266    4.245102    0.004442
  46 H     1.0000    0     1.008   10.825676   -3.906862    0.009002
  47 H     1.0000    0     1.008   15.330544    4.358382    0.004307
  48 C     6.0000    0    12.011  -10.375721   -0.400799    0.000945
  49 C     6.0000    0    12.011  -11.895557    1.803870   -0.000618
  50 C     6.0000    0    12.011  -14.532827    1.609580   -0.000069
  51 C     6.0000    0    12.011  -15.704033   -0.774361    0.002003
  52 C     6.0000    0    12.011  -14.211788   -2.971692    0.003509
  53 C     6.0000    0    12.011  -11.573455   -2.796354    0.002975
  54 H     1.0000    0     1.008  -17.752506   -0.918193    0.002454
  55 H     1.0000    0     1.008  -15.107062   -4.820306    0.005120
  56 H     1.0000    0     1.008  -10.988801    3.644820   -0.002141
  57 H     1.0000    0     1.008  -10.416603   -4.491373    0.004155
  58 H     1.0000    0     1.008  -15.676709    3.315529   -0.001215

--------------------------------
INTERNAL COORDINATES (ANGSTROEM)
--------------------------------
 C      0   0   0     0.000000000000     0.00000000     0.00000000
 C      1   0   0     1.227388284957     0.00000000     0.00000000
 C      2   1   0     5.686353004064   177.50133458     0.00000000
 C      2   1   3     1.423343259370   178.94024969     2.21424837
 C      4   2   1     1.448282644934   121.23845428   176.82051350
 C      5   4   2     1.426545469511   116.68515857   179.95801292
 C      6   5   4     1.400691324819   122.53237700     0.03337371
 C      7   6   5     1.435329352691   120.37068062     0.00000000
 C      8   7   6     1.398145759050   117.65375855     0.00000000
 H      6   5   4     1.084357939381   119.20655953   180.02009116
 H      9   8   7     1.083950184532   119.65181808   180.01411328
 C      5   4   2     1.415521025040   121.59909698   359.93657805
 H     12   5   4     1.086795805911   117.35398702     0.00000000
 C     12   5   4     1.505863254951   124.86942454   179.98728955
 H     14  12   5     1.101748723979   109.98507545   301.77711324
 H     14  12   5     1.101668449541   109.99503724    57.35261128
 C     14  12   5     1.540215827160   113.24355819   179.56222245
 H     17  14  12     1.097494463465   109.06366459   301.99742664
 H     17  14  12     1.097519923226   109.07697713    57.94806109
 C     17  14  12     1.537784529634   112.84171376   179.97523542
 H     20  17  14     1.095926877554   111.08256193    59.89792404
 H     20  17  14     1.095931230331   111.08124593   300.10854712
 C      8   7   6     1.519317271391   119.58493866   179.98349439
 H     23   8   7     1.098872752126   108.21372681   303.41732080
 H     23   8   7     1.098883156508   108.21846872    56.69927383
 C     23   8   7     1.536794453739   116.57109262   180.06282807
 H     26  23   8     1.098167132053   109.90249414   301.47039039
 H     26  23   8     1.098171407246   109.89651523    58.50309458
 C     26  23   8     1.539472162707   112.42257141   179.98544436
 H     29  26  23     1.098171922505   109.23900808   302.04962032
 H     29  26  23     1.098171115476   109.23968891    57.98032960
 C     29  26  23     1.538654637024   112.93804192   180.01514349
 H     32  29  26     1.095864985005   111.04354838    59.86767384
 H     32  29  26     1.095863992130   111.04310559   300.16507115
 C      3   2   1     1.225398795617   179.79868462   191.37666383
 H     20  17  14     1.094788494228   111.29870845   180.00390398
 H     32  29  26     1.094952920377   111.37126514   180.01617677
 C     35   3   7     1.432174246807   179.64885013   258.58811705
 C     38  35   3     1.416388272028   120.49127297     7.73034494
 C     39  38  35     1.399566368110   120.34119198   180.00732895
 C     40  39  38     1.405358333159   120.36492043     0.00000000
 C     41  40  39     1.405409843462   119.67010007     0.00000000
 C     42  41  40     1.399599636647   120.35633595     0.00000000
 H     41  40  39     1.086674881658   120.16068610   179.99910201
 H     42  41  40     1.086889094018   120.00125129   179.99956414
 H     39  38  35     1.085966014511   119.15219584     0.00000000
 H     43  42  41     1.085940398685   120.46675883   179.99856741
 H     40  39  38     1.086898861645   119.64892214   179.99889394
 C      1   2   4     1.430413895239   179.42490667     8.06663768
 C     49   1   2     1.417016150408   120.73052979   175.01418817
 C     50  49   1     1.399365725797   120.36784891   180.00794729
 C     51  50  49     1.405551228534   120.37780828     0.00000000
 C     52  51  50     1.405566919607   119.65451469     0.00000000
 C     53  52  51     1.399225803629   120.37889839     0.00000000
 H     52  51  50     1.086673850920   120.18079504   179.99899483
 H     53  52  51     1.086926849762   119.97825398   179.99979394
 H     50  49   1     1.085949217457   119.19630954     0.00000000
 H     54  53  52     1.085961125778   120.51135039   179.99937481
 H     51  50  49     1.086905682080   119.62942359   179.99779460

---------------------------
INTERNAL COORDINATES (A.U.)
---------------------------
 C      0   0   0     0.000000000000     0.00000000     0.00000000
 C      1   0   0     2.319427718552     0.00000000     0.00000000
 C      2   1   0    10.745649878482   177.50133458     0.00000000
 C      2   1   3     2.689728954771   178.94024969     2.21424837
 C      4   2   1     2.736857563437   121.23845428   176.82051350
 C      5   4   2     2.695780254962   116.68515857   179.95801292
 C      6   5   4     2.646923002066   122.53237700     0.03337371
 C      7   6   5     2.712379388565   120.37068062     0.00000000
 C      8   7   6     2.642112579908   117.65375855     0.00000000
 H      6   5   4     2.049139536574   119.20655953   180.02009116
 H      9   8   7     2.048368991578   119.65181808   180.01411328
 C      5   4   2     2.674947074133   121.59909698   359.93657805
 H     12   5   4     2.053746436666   117.35398702     0.00000000
 C     12   5   4     2.845669146993   124.86942454   179.98728955
 H     14  12   5     2.082003356718   109.98507545   301.77711324
 H     14  12   5     2.081851660013   109.99503724    57.35261128
 C     14  12   5     2.910586100463   113.24355819   179.56222245
 H     17  14  12     2.073963969443   109.06366459   301.99742664
 H     17  14  12     2.074012081420   109.07697713    57.94806109
 C     17  14  12     2.905991613988   112.84171376   179.97523542
 H     20  17  14     2.071001661381   111.08256193    59.89792404
 H     20  17  14     2.071009886936   111.08124593   300.10854712
 C      8   7   6     2.871093553466   119.58493866   179.98349439
 H     23   8   7     2.076568557547   108.21372681   303.41732080
 H     23   8   7     2.076588218980   108.21846872    56.69927383
 C     23   8   7     2.904120641695   116.57109262   180.06282807
 H     26  23   8     2.075235128853   109.90249414   301.47039039
 H     26  23   8     2.075243207798   109.89651523    58.50309458
 C     26  23   8     2.909180778311   112.42257141   179.98544436
 H     29  26  23     2.075244181496   109.23900808   302.04962032
 H     29  26  23     2.075242656433   109.23968891    57.98032960
 C     29  26  23     2.907635878664   112.93804192   180.01514349
 H     32  29  26     2.070884701414   111.04354838    59.86767384
 H     32  29  26     2.070882825152   111.04310559   300.16507115
 C      3   2   1     2.315668128554   179.79868462   191.37666383
 H     20  17  14     2.068850428658   111.29870845   180.00390398
 H     32  29  26     2.069161149051   111.37126514   180.01617677
 C     35   3   7     2.706417102520   179.64885013   258.58811705
 C     38  35   3     2.676585933431   120.49127297     7.73034494
 C     39  38  35     2.644797141974   120.34119198   180.00732895
 C     40  39  38     2.655742369695   120.36492043     0.00000000
 C     41  40  39     2.655839710061   119.67010007     0.00000000
 C     42  41  40     2.644860010399   120.35633595     0.00000000
 H     41  40  39     2.053517922944   120.16068610   179.99910201
 H     42  41  40     2.053922725641   120.00125129   179.99956414
 H     39  38  35     2.052178358171   119.15219584     0.00000000
 H     43  42  41     2.052129951276   120.46675883   179.99856741
 H     40  39  38     2.053941183780   119.64892214   179.99889394
 C      1   2   4     2.703090520158   179.42490667     8.06663768
 C     49   1   2     2.677772451614   120.73052979   175.01418817
 C     50  49   1     2.644417982953   120.36784891   180.00794729
 C     51  50  49     2.656106889127   120.37780828     0.00000000
 C     52  51  50     2.656136540957   119.65451469     0.00000000
 C     53  52  51     2.644153568375   120.37889839     0.00000000
 H     52  51  50     2.053515975133   120.18079504   179.99899483
 H     53  52  51     2.053994073657   119.97825398   179.99979394
 H     50  49   1     2.052146616339   119.19630954     0.00000000
 H     54  53  52     2.052169119805   120.51135039   179.99937481
 H     51  50  49     2.053954072534   119.62942359   179.99779460

---------------------
BASIS SET INFORMATION
---------------------
There are 2 groups of distinct atoms

 Group   1 Type C   : 10s5p1d contracted to 6s2p1d pattern {511111/41/1}
 Group   2 Type H   : 6s1p contracted to 4s1p pattern {3111/1}

Atom   0C    basis set group =>   1
Atom   1C    basis set group =>   1
Atom   2C    basis set group =>   1
Atom   3C    basis set group =>   1
Atom   4C    basis set group =>   1
Atom   5C    basis set group =>   1
Atom   6C    basis set group =>   1
Atom   7C    basis set group =>   1
Atom   8C    basis set group =>   1
Atom   9H    basis set group =>   2
Atom  10H    basis set group =>   2
Atom  11C    basis set group =>   1
Atom  12H    basis set group =>   2
Atom  13C    basis set group =>   1
Atom  14H    basis set group =>   2
Atom  15H    basis set group =>   2
Atom  16C    basis set group =>   1
Atom  17H    basis set group =>   2
Atom  18H    basis set group =>   2
Atom  19C    basis set group =>   1
Atom  20H    basis set group =>   2
Atom  21H    basis set group =>   2
Atom  22C    basis set group =>   1
Atom  23H    basis set group =>   2
Atom  24H    basis set group =>   2
Atom  25C    basis set group =>   1
Atom  26H    basis set group =>   2
Atom  27H    basis set group =>   2
Atom  28C    basis set group =>   1
Atom  29H    basis set group =>   2
Atom  30H    basis set group =>   2
Atom  31C    basis set group =>   1
Atom  32H    basis set group =>   2
Atom  33H    basis set group =>   2
Atom  34C    basis set group =>   1
Atom  35H    basis set group =>   2
Atom  36H    basis set group =>   2
Atom  37C    basis set group =>   1
Atom  38C    basis set group =>   1
Atom  39C    basis set group =>   1
Atom  40C    basis set group =>   1
Atom  41C    basis set group =>   1
Atom  42C    basis set group =>   1
Atom  43H    basis set group =>   2
Atom  44H    basis set group =>   2
Atom  45H    basis set group =>   2
Atom  46H    basis set group =>   2
Atom  47H    basis set group =>   2
Atom  48C    basis set group =>   1
Atom  49C    basis set group =>   1
Atom  50C    basis set group =>   1
Atom  51C    basis set group =>   1
Atom  52C    basis set group =>   1
Atom  53C    basis set group =>   1
Atom  54H    basis set group =>   2
Atom  55H    basis set group =>   2
Atom  56H    basis set group =>   2
Atom  57H    basis set group =>   2
Atom  58H    basis set group =>   2
---------------------------------
AUXILIARY/J BASIS SET INFORMATION
---------------------------------
There are 2 groups of distinct atoms

 Group   1 Type C   : 17s13p12d2f contracted to 17s13p12d2f pattern {11111111111111111/1111111111111/111111111111/11}
 Group   2 Type H   : 15s6p1d contracted to 15s6p1d pattern {111111111111111/111111/1}

Atom   0C    basis set group =>   1
Atom   1C    basis set group =>   1
Atom   2C    basis set group =>   1
Atom   3C    basis set group =>   1
Atom   4C    basis set group =>   1
Atom   5C    basis set group =>   1
Atom   6C    basis set group =>   1
Atom   7C    basis set group =>   1
Atom   8C    basis set group =>   1
Atom   9H    basis set group =>   2
Atom  10H    basis set group =>   2
Atom  11C    basis set group =>   1
Atom  12H    basis set group =>   2
Atom  13C    basis set group =>   1
Atom  14H    basis set group =>   2
Atom  15H    basis set group =>   2
Atom  16C    basis set group =>   1
Atom  17H    basis set group =>   2
Atom  18H    basis set group =>   2
Atom  19C    basis set group =>   1
Atom  20H    basis set group =>   2
Atom  21H    basis set group =>   2
Atom  22C    basis set group =>   1
Atom  23H    basis set group =>   2
Atom  24H    basis set group =>   2
Atom  25C    basis set group =>   1
Atom  26H    basis set group =>   2
Atom  27H    basis set group =>   2
Atom  28C    basis set group =>   1
Atom  29H    basis set group =>   2
Atom  30H    basis set group =>   2
Atom  31C    basis set group =>   1
Atom  32H    basis set group =>   2
Atom  33H    basis set group =>   2
Atom  34C    basis set group =>   1
Atom  35H    basis set group =>   2
Atom  36H    basis set group =>   2
Atom  37C    basis set group =>   1
Atom  38C    basis set group =>   1
Atom  39C    basis set group =>   1
Atom  40C    basis set group =>   1
Atom  41C    basis set group =>   1
Atom  42C    basis set group =>   1
Atom  43H    basis set group =>   2
Atom  44H    basis set group =>   2
Atom  45H    basis set group =>   2
Atom  46H    basis set group =>   2
Atom  47H    basis set group =>   2
Atom  48C    basis set group =>   1
Atom  49C    basis set group =>   1
Atom  50C    basis set group =>   1
Atom  51C    basis set group =>   1
Atom  52C    basis set group =>   1
Atom  53C    basis set group =>   1
Atom  54H    basis set group =>   2
Atom  55H    basis set group =>   2
Atom  56H    basis set group =>   2
Atom  57H    basis set group =>   2
Atom  58H    basis set group =>   2
---------------------------------
AUXILIARY/C BASIS SET INFORMATION
---------------------------------
There are 2 groups of distinct atoms

 Group   1 Type C   : 17s13p12d2f contracted to 17s13p12d2f pattern {11111111111111111/1111111111111/111111111111/11}
 Group   2 Type H   : 15s6p1d contracted to 15s6p1d pattern {111111111111111/111111/1}

Atom   0C    basis set group =>   1
Atom   1C    basis set group =>   1
Atom   2C    basis set group =>   1
Atom   3C    basis set group =>   1
Atom   4C    basis set group =>   1
Atom   5C    basis set group =>   1
Atom   6C    basis set group =>   1
Atom   7C    basis set group =>   1
Atom   8C    basis set group =>   1
Atom   9H    basis set group =>   2
Atom  10H    basis set group =>   2
Atom  11C    basis set group =>   1
Atom  12H    basis set group =>   2
Atom  13C    basis set group =>   1
Atom  14H    basis set group =>   2
Atom  15H    basis set group =>   2
Atom  16C    basis set group =>   1
Atom  17H    basis set group =>   2
Atom  18H    basis set group =>   2
Atom  19C    basis set group =>   1
Atom  20H    basis set group =>   2
Atom  21H    basis set group =>   2
Atom  22C    basis set group =>   1
Atom  23H    basis set group =>   2
Atom  24H    basis set group =>   2
Atom  25C    basis set group =>   1
Atom  26H    basis set group =>   2
Atom  27H    basis set group =>   2
Atom  28C    basis set group =>   1
Atom  29H    basis set group =>   2
Atom  30H    basis set group =>   2
Atom  31C    basis set group =>   1
Atom  32H    basis set group =>   2
Atom  33H    basis set group =>   2
Atom  34C    basis set group =>   1
Atom  35H    basis set group =>   2
Atom  36H    basis set group =>   2
Atom  37C    basis set group =>   1
Atom  38C    basis set group =>   1
Atom  39C    basis set group =>   1
Atom  40C    basis set group =>   1
Atom  41C    basis set group =>   1
Atom  42C    basis set group =>   1
Atom  43H    basis set group =>   2
Atom  44H    basis set group =>   2
Atom  45H    basis set group =>   2
Atom  46H    basis set group =>   2
Atom  47H    basis set group =>   2
Atom  48C    basis set group =>   1
Atom  49C    basis set group =>   1
Atom  50C    basis set group =>   1
Atom  51C    basis set group =>   1
Atom  52C    basis set group =>   1
Atom  53C    basis set group =>   1
Atom  54H    basis set group =>   2
Atom  55H    basis set group =>   2
Atom  56H    basis set group =>   2
Atom  57H    basis set group =>   2
Atom  58H    basis set group =>   2
----------------------------------
AUXILIARY/JK BASIS SET INFORMATION
----------------------------------
There are 2 groups of distinct atoms

 Group   1 Type C   : 17s13p12d2f contracted to 17s13p12d2f pattern {11111111111111111/1111111111111/111111111111/11}
 Group   2 Type H   : 15s6p1d contracted to 15s6p1d pattern {111111111111111/111111/1}

Atom   0C    basis set group =>   1
Atom   1C    basis set group =>   1
Atom   2C    basis set group =>   1
Atom   3C    basis set group =>   1
Atom   4C    basis set group =>   1
Atom   5C    basis set group =>   1
Atom   6C    basis set group =>   1
Atom   7C    basis set group =>   1
Atom   8C    basis set group =>   1
Atom   9H    basis set group =>   2
Atom  10H    basis set group =>   2
Atom  11C    basis set group =>   1
Atom  12H    basis set group =>   2
Atom  13C    basis set group =>   1
Atom  14H    basis set group =>   2
Atom  15H    basis set group =>   2
Atom  16C    basis set group =>   1
Atom  17H    basis set group =>   2
Atom  18H    basis set group =>   2
Atom  19C    basis set group =>   1
Atom  20H    basis set group =>   2
Atom  21H    basis set group =>   2
Atom  22C    basis set group =>   1
Atom  23H    basis set group =>   2
Atom  24H    basis set group =>   2
Atom  25C    basis set group =>   1
Atom  26H    basis set group =>   2
Atom  27H    basis set group =>   2
Atom  28C    basis set group =>   1
Atom  29H    basis set group =>   2
Atom  30H    basis set group =>   2
Atom  31C    basis set group =>   1
Atom  32H    basis set group =>   2
Atom  33H    basis set group =>   2
Atom  34C    basis set group =>   1
Atom  35H    basis set group =>   2
Atom  36H    basis set group =>   2
Atom  37C    basis set group =>   1
Atom  38C    basis set group =>   1
Atom  39C    basis set group =>   1
Atom  40C    basis set group =>   1
Atom  41C    basis set group =>   1
Atom  42C    basis set group =>   1
Atom  43H    basis set group =>   2
Atom  44H    basis set group =>   2
Atom  45H    basis set group =>   2
Atom  46H    basis set group =>   2
Atom  47H    basis set group =>   2
Atom  48C    basis set group =>   1
Atom  49C    basis set group =>   1
Atom  50C    basis set group =>   1
Atom  51C    basis set group =>   1
Atom  52C    basis set group =>   1
Atom  53C    basis set group =>   1
Atom  54H    basis set group =>   2
Atom  55H    basis set group =>   2
Atom  56H    basis set group =>   2
Atom  57H    basis set group =>   2
Atom  58H    basis set group =>   2

Checking for AutoStart:
The File: EPRII.gbw exists
Trying to determine its content:
     ... Fine, the file contains calculation information
     ... Fine, the calculation information was read
     ... Fine, the file contains a basis set
     ... Fine, the basis set was read
     ... Fine, the file contains a geometry
     ... Fine, the geometry was read
     ... Fine, the file contains a set of orbitals
     ... Fine, the orbitals can be read
     => possible old guess file was deleted
     => GBW file was renamed to GES file
     => GES file is set as startup file
     => Guess is set to MORead
     ... now leaving AutoStart



           ************************************************************
           *        Program running with 16 parallel MPI-processes    *
           *              working on a common directory               *
           ************************************************************
------------------------------------------------------------------------------
                           ORCA GTO INTEGRAL CALCULATION
                           -- RI-GTO INTEGRALS CHOSEN --
------------------------------------------------------------------------------
------------------------------------------------------------------------------
                   ___                                                        
                  /   \      - P O W E R E D   B Y -                         
                 /     \                                                     
                 |  |  |   _    _      __       _____    __    __             
                 |  |  |  | |  | |    /  \     |  _  \  |  |  /  |          
                  \  \/   | |  | |   /    \    | | | |  |  | /  /          
                 / \  \   | |__| |  /  /\  \   | |_| |  |  |/  /          
                |  |  |   |  __  | /  /__\  \  |    /   |      \           
                |  |  |   | |  | | |   __   |  |    \   |  |\   \          
                \     /   | |  | | |  |  |  |  | |\  \  |  | \   \       
                 \___/    |_|  |_| |__|  |__|  |_| \__\ |__|  \__/        
                                                                              
                      - O R C A' S   B I G   F R I E N D -                    
                                      &                                       
                       - I N T E G R A L  F E E D E R -                       
                                                                              
 v1 FN, 2020, v2 2021                                                         
------------------------------------------------------------------------------


Reading SHARK input file EPRII.SHARKINP.tmp ... ok
----------------------
SHARK INTEGRAL PACKAGE
----------------------

Number of atoms                             ...     59
Number of basis functions                   ...    713
Number of shells                            ...    415
Maximum angular momentum                    ...      2
Integral batch strategy                     ... SHARK/LIBINT Hybrid
RI-J (if used) integral strategy            ... SPLIT-RIJ (Revised 2003 algorithm where possible)
Printlevel                                  ...      1
Contraction scheme used                     ... SEGMENTED contraction
Coulomb Range Separation                    ... NOT USED
Exchange Range Separation                   ... NOT USED
Finite Nucleus Model                        ... NOT USED
Auxiliary Coulomb fitting basis             ... AVAILABLE
   # of basis functions in Aux-J            ...   5002
   # of shells in Aux-J                     ...   1958
   Maximum angular momentum in Aux-J        ...      3
Auxiliary J/K fitting basis                 ... AVAILABLE
   # of basis functions in Aux-JK           ...   5002
   # of shells in Aux-JK                    ...   1958
   Maximum angular momentum in Aux-JK       ...      3
Auxiliary Correlation fitting basis         ... AVAILABLE
   # of basis functions in Aux-C            ...   5002
   # of shells in Aux-C                     ...   1958
   Maximum angular momentum in Aux-C        ...      3
Auxiliary 'external' fitting basis          ... NOT available
Integral threshold                          ...     1.000000e-10
Primitive cut-off                           ...     1.000000e-11
Primitive pair pre-selection threshold      ...     1.000000e-11

Calculating pre-screening integrals         ... done (  0.1 sec) Dimension = 415
Organizing shell pair data                  ... done (  0.3 sec)
Shell pair information
Total number of shell pairs                 ...     86320
Shell pairs after pre-screening             ...     38245
Total number of primitive shell pairs       ...    234153
Primitive shell pairs kept                  ...     71293
          la=0 lb=0:  17536 shell pairs
          la=1 lb=0:  13116 shell pairs
          la=1 lb=1:   2391 shell pairs
          la=2 lb=0:   3615 shell pairs
          la=2 lb=1:   1382 shell pairs
          la=2 lb=2:    205 shell pairs

Calculating one electron integrals          ... done (  0.1 sec)
Calculating RI/J V-Matrix + Cholesky decomp.... done (  1.4 sec)
Calculating RI/JK V-Matrix + Cholesky decomp... done (  1.4 sec)
Calculating RI/C V-Matrix + Cholesky decomp.... done (  1.4 sec)
Calculating Nuclear repulsion               ... done (  0.0 sec) ENN=   2359.396700152283 Eh

SHARK setup successfully completed in   5.1 seconds

Maximum memory used throughout the entire GTOINT-calculation: 82.4 MB


           ************************************************************
           *        Program running with 16 parallel MPI-processes    *
           *              working on a common directory               *
           ************************************************************
-------------------------------------------------------------------------------
                                 ORCA SCF
-------------------------------------------------------------------------------

------------
SCF SETTINGS
------------
Hamiltonian:
 Density Functional     Method          .... DFT(GTOs)
 Exchange Functional    Exchange        .... B88
   X-Alpha parameter    XAlpha          ....  0.666667
   Becke's b parameter  XBeta           ....  0.004200
 Correlation Functional Correlation     .... LYP
 LDA part of GGA corr.  LDAOpt          .... VWN-5
 Gradients option       PostSCFGGA      .... off
 Hybrid DFT is turned on
   Fraction HF Exchange ScalHFX         ....  0.200000
   Scaling of DF-GGA-X  ScalDFX         ....  0.720000
   Scaling of DF-GGA-C  ScalDFC         ....  0.810000
   Scaling of DF-LDA-C  ScalLDAC        ....  1.000000
   Perturbative correction              ....  0.000000
   Density functional embedding theory  .... OFF
   NL short-range parameter             ....  4.800000
 RI-approximation to the Coulomb term is turned on
   Number of AuxJ basis functions       .... 5002
   RIJ-COSX (HFX calculated with COS-X)).... on


General Settings:
 Integral files         IntName         .... EPRII
 Hartree-Fock type      HFTyp           .... UHF
 Total Charge           Charge          ....    0
 Multiplicity           Mult            ....    2
 Number of Electrons    NEL             ....  209
 Basis Dimension        Dim             ....  713
 Nuclear Repulsion      ENuc            ....   2359.3967001523 Eh

Convergence Acceleration:
 DIIS                   CNVDIIS         .... on
   Start iteration      DIISMaxIt       ....    12
   Startup error        DIISStart       ....  0.200000
   # of expansion vecs  DIISMaxEq       ....     5
   Bias factor          DIISBfac        ....   1.050
   Max. coefficient     DIISMaxC        ....  10.000
 Trust-Rad. Augm. Hess. CNVTRAH         .... auto
   Auto Start mean grad. ratio tolernc. ....  1.125000
   Auto Start start iteration           ....     1
   Auto Start num. interpolation iter.  ....    10
   Max. Number of Micro iterations      ....    16
   Max. Number of Macro iterations      .... Maxiter - #DIIS iter
   Number of Davidson start vectors     ....     2
   Converg. threshold I  (grad. norm)   ....   5.000e-05
   Converg. threshold II (energy diff.) ....   1.000e-06
   Grad. Scal. Fac. for Micro threshold ....   0.100
   Minimum threshold for Micro iter.    ....   0.010
   NR start threshold (gradient norm)   ....   0.001
   Initial trust radius                 ....   0.400
   Minimum AH scaling param. (alpha)    ....   1.000
   Maximum AH scaling param. (alpha)    .... 1000.000
   Orbital update algorithm             .... Taylor
   White noise on init. David. guess    .... on
   Maximum white noise                  ....   0.010
   Quad. conv. algorithm                .... NR
 SOSCF                  CNVSOSCF        .... off
 Level Shifting         CNVShift        .... on
   Level shift para.    LevelShift      ....    0.2500
   Turn off err/grad.   ShiftErr        ....    0.0010
 Zerner damping         CNVZerner       .... off
 Static damping         CNVDamp         .... on
   Fraction old density DampFac         ....    0.7000
   Max. Damping (<1)    DampMax         ....    0.9800
   Min. Damping (>=0)   DampMin         ....    0.0000
   Turn off err/grad.   DampErr         ....    0.1000
 Fernandez-Rico         CNVRico         .... off

SCF Procedure:
 Maximum # iterations   MaxIter         ....   125
 SCF integral mode      SCFMode         .... Direct
   Integral package                     .... SHARK and LIBINT hybrid scheme
 Reset frequency        DirectResetFreq ....    20
 Integral Threshold     Thresh          ....  1.000e-10 Eh
 Primitive CutOff       TCut            ....  1.000e-11 Eh

Convergence Tolerance:
 Convergence Check Mode ConvCheckMode   .... Total+1el-Energy
 Convergence forced     ConvForced      .... 0
 Energy Change          TolE            ....  1.000e-06 Eh
 1-El. energy change                    ....  1.000e-03 Eh
 DIIS Error             TolErr          ....  1.000e-06


Diagonalization of the overlap matrix:
Smallest eigenvalue                        ... 5.060e-05
Time for diagonalization                   ...    0.094 sec
Threshold for overlap eigenvalues          ... 1.000e-08
Number of eigenvalues below threshold      ... 0
Time for construction of square roots      ...    0.093 sec
Total time needed                          ...    0.188 sec

---------------------
INITIAL GUESS: MOREAD
---------------------
Guess MOs are being read from file: EPRII.ges
Input geometry compatible with but different from current geometry
Input basis set matches current basis set (good)
MOs were renormalized
MOs were reorthogonalized (Cholesky)
                      ------------------
                      INITIAL GUESS DONE (   0.5 sec)
                      ------------------
-------------------
DFT GRID GENERATION
-------------------

General Integration Accuracy     IntAcc      ... 4.388
Radial Grid Type                 RadialGrid  ... OptM3 with GC (2021)
Angular Grid (max. ang.)         AngularGrid ... 4 (Lebedev-302)
Angular grid pruning method      GridPruning ... 4 (adaptive)
Weight generation scheme         WeightScheme... Becke
Basis function cutoff            BFCut       ... 1.0000e-10
Integration weight cutoff        WCut        ... 1.0000e-14
Angular grids for H and He will be reduced by one unit
Partially contracted basis set               ... off
Rotationally invariant grid construction     ... off

Total number of grid points                  ...   271717
Total number of batches                      ...     4275
Average number of points per batch           ...       63
Average number of grid points per atom       ...     4605
Time for grid setup =    1.759 sec

--------------------
COSX GRID GENERATION
--------------------

GRIDX 1
-------
General Integration Accuracy     IntAcc      ... 3.816
Radial Grid Type                 RadialGrid  ... OptM3 with GC (2021)
Angular Grid (max. ang.)         AngularGrid ... 1 (Lebedev-50)
Angular grid pruning method      GridPruning ... 4 (adaptive)
Weight generation scheme         WeightScheme... Becke
Basis function cutoff            BFCut       ... 1.0000e-10
Integration weight cutoff        WCut        ... 1.0000e-14
Angular grids for H and He will be reduced by one unit
Partially contracted basis set               ... on
Rotationally invariant grid construction     ... off

Total number of grid points                  ...    34632
Total number of batches                      ...      570
Average number of points per batch           ...       60
Average number of grid points per atom       ...      587
UseSFitting                                  ... on

GRIDX 2
-------
General Integration Accuracy     IntAcc      ... 4.020
Radial Grid Type                 RadialGrid  ... OptM3 with GC (2021)
Angular Grid (max. ang.)         AngularGrid ... 2 (Lebedev-110)
Angular grid pruning method      GridPruning ... 4 (adaptive)
Weight generation scheme         WeightScheme... Becke
Basis function cutoff            BFCut       ... 1.0000e-10
Integration weight cutoff        WCut        ... 1.0000e-14
Angular grids for H and He will be reduced by one unit
Partially contracted basis set               ... on
Rotationally invariant grid construction     ... off

Total number of grid points                  ...    74003
Total number of batches                      ...     1190
Average number of points per batch           ...       62
Average number of grid points per atom       ...     1254
UseSFitting                                  ... on

GRIDX 3
-------
General Integration Accuracy     IntAcc      ... 4.338
Radial Grid Type                 RadialGrid  ... OptM3 with GC (2021)
Angular Grid (max. ang.)         AngularGrid ... 3 (Lebedev-194)
Angular grid pruning method      GridPruning ... 4 (adaptive)
Weight generation scheme         WeightScheme... Becke
Basis function cutoff            BFCut       ... 1.0000e-10
Integration weight cutoff        WCut        ... 1.0000e-14
Angular grids for H and He will be reduced by one unit
Partially contracted basis set               ... on
Rotationally invariant grid construction     ... off

Total number of grid points                  ...   161766
Total number of batches                      ...     2558
Average number of points per batch           ...       63
Average number of grid points per atom       ...     2742
UseSFitting                                  ... on

Time for X-Grid setup             =    3.066 sec

--------------
SCF ITERATIONS
--------------
ITER       Energy         Delta-E        Max-DP      RMS-DP      [F,P]     Damp
               ***  Starting incremental Fock matrix formation  ***
  0  -1159.9163136670   0.000000000000 0.00804110  0.00005323  0.0022036 0.7000
  1  -1159.9165217481  -0.000208081028 0.00761323  0.00004735  0.0015916 0.7000
                               ***Turning on DIIS***
  2  -1159.9166692736  -0.000147525493 0.01994140  0.00011917  0.0011300 0.0000
  3  -1159.9170149028  -0.000345629253 0.00068164  0.00000940  0.0003365 0.0000
               *** Restarting incremental Fock matrix formation ***
                                   *** Resetting DIIS ***
  4  -1159.9170091663   0.000005736524 0.00120665  0.00001165  0.0004807 0.0000
  5  -1159.9169923138   0.000016852492 0.00065692  0.00000475  0.0012600 0.0000
  6  -1159.9170161838  -0.000023869987 0.00060263  0.00000443  0.0002330 0.0000
  7  -1159.9170186440  -0.000002460239 0.00033596  0.00000173  0.0000431 0.0000
                 **** Energy Check signals convergence ****

               *****************************************************
               *                     SUCCESS                       *
               *           SCF CONVERGED AFTER   8 CYCLES          *
               *****************************************************

Old exchange energy                            =    -33.104117184 Eh
New exchange energy                            =    -33.104150719 Eh
Exchange energy change after final integration =     -0.000033535 Eh
Total energy after final integration           =  -1159.917052381 Eh
Final COS-X integration done in                =    14.821 sec

----------------
TOTAL SCF ENERGY
----------------

Total Energy       :        -1159.91705238 Eh          -31562.94762 eV

Components:
Nuclear Repulsion  :         2359.39670015 Eh           64202.44820 eV
Electronic Energy  :        -3519.31375253 Eh          -95765.39583 eV
One Electron Energy:        -6253.54287645 Eh         -170167.55282 eV
Two Electron Energy:         2734.22912391 Eh           74402.15699 eV
Max COSX asymmetry :            0.00000331 Eh               0.00009 eV

Virial components:
Potential Energy   :        -2310.53004010 Eh          -62872.71878 eV
Kinetic Energy     :         1150.61298772 Eh           31309.77115 eV
Virial Ratio       :            2.00808618


DFT components:
N(Alpha)           :      105.000173895768 electrons
N(Beta)            :      104.000164686217 electrons
N(Total)           :      209.000338581985 electrons
E(X)               :     -131.348230821514 Eh       
E(C)               :       -8.161299840259 Eh       
E(XC)              :     -139.509530661773 Eh       
DFET-embed. en.    :        0.000000000000 Eh       

---------------
SCF CONVERGENCE
---------------

  Last Energy change         ...   -2.0184e-07  Tolerance :   1.0000e-06
  Last MAX-Density change    ...    0.0000e+00  Tolerance :   1.0000e-05
  Last RMS-Density change    ...    0.0000e+00  Tolerance :   1.0000e-06
  Last DIIS Error            ...    7.0904e-05  Tolerance :   1.0000e-06

             **** THE GBW FILE WAS UPDATED (EPRII.gbw) ****
             **** DENSITY EPRII.scfp WAS UPDATED ****
             **** ENERGY FILE WAS UPDATED (EPRII.en.tmp) ****
----------------------
UHF SPIN CONTAMINATION
----------------------

Warning: in a DFT calculation there is little theoretical justification to 
         calculate <S**2> as in Hartree-Fock theory. We will do it anyways
         but you should keep in mind that the values have only limited relevance

Expectation value of <S**2>     :     0.789193
Ideal value S*(S+1) for S=0.5   :     0.750000
Deviation                       :     0.039193

             **** THE GBW FILE WAS UPDATED (EPRII.gbw) ****
             **** DENSITY EPRII.scfp WAS UPDATED ****
----------------
ORBITAL ENERGIES
----------------
                 SPIN UP ORBITALS
  NO   OCC          E(Eh)            E(eV) 
   0   1.0000     -10.228138      -278.3218 
   1   1.0000     -10.226739      -278.2837 
   2   1.0000     -10.222698      -278.1738 
   3   1.0000     -10.220826      -278.1228 
   4   1.0000     -10.210203      -277.8337 
   5   1.0000     -10.207345      -277.7560 
   6   1.0000     -10.205258      -277.6992 
   7   1.0000     -10.205119      -277.6954 
   8   1.0000     -10.204932      -277.6903 
   9   1.0000     -10.204304      -277.6732 
  10   1.0000     -10.204224      -277.6711 
  11   1.0000     -10.204102      -277.6677 
  12   1.0000     -10.203932      -277.6631 
  13   1.0000     -10.203795      -277.6594 
  14   1.0000     -10.202978      -277.6372 
  15   1.0000     -10.202770      -277.6315 
  16   1.0000     -10.201888      -277.6075 
  17   1.0000     -10.201231      -277.5896 
  18   1.0000     -10.199903      -277.5535 
  19   1.0000     -10.199808      -277.5509 
  20   1.0000     -10.198652      -277.5194 
  21   1.0000     -10.196830      -277.4698 
  22   1.0000     -10.194976      -277.4194 
  23   1.0000     -10.188026      -277.2303 
  24   1.0000     -10.186085      -277.1775 
  25   1.0000     -10.183538      -277.1082 
  26   1.0000     -10.180955      -277.0379 
  27   1.0000     -10.180582      -277.0277 
  28   1.0000     -10.172754      -276.8147 
  29   1.0000     -10.170853      -276.7630 
  30   1.0000      -0.870079       -23.6760 
  31   1.0000      -0.860390       -23.4124 
  32   1.0000      -0.859241       -23.3811 
  33   1.0000      -0.816682       -22.2230 
  34   1.0000      -0.797040       -21.6886 
  35   1.0000      -0.793236       -21.5851 
  36   1.0000      -0.780788       -21.2463 
  37   1.0000      -0.771219       -20.9859 
  38   1.0000      -0.763923       -20.7874 
  39   1.0000      -0.750049       -20.4099 
  40   1.0000      -0.749024       -20.3820 
  41   1.0000      -0.736517       -20.0416 
  42   1.0000      -0.724976       -19.7276 
  43   1.0000      -0.709079       -19.2950 
  44   1.0000      -0.695416       -18.9232 
  45   1.0000      -0.655209       -17.8292 
  46   1.0000      -0.645509       -17.5652 
  47   1.0000      -0.623321       -16.9614 
  48   1.0000      -0.613203       -16.6861 
  49   1.0000      -0.609495       -16.5852 
  50   1.0000      -0.608839       -16.5673 
  51   1.0000      -0.608164       -16.5490 
  52   1.0000      -0.590673       -16.0730 
  53   1.0000      -0.580397       -15.7934 
  54   1.0000      -0.561439       -15.2775 
  55   1.0000      -0.540960       -14.7203 
  56   1.0000      -0.535290       -14.5660 
  57   1.0000      -0.506285       -13.7767 
  58   1.0000      -0.503889       -13.7115 
  59   1.0000      -0.482371       -13.1260 
  60   1.0000      -0.479433       -13.0460 
  61   1.0000      -0.474794       -12.9198 
  62   1.0000      -0.470690       -12.8081 
  63   1.0000      -0.462965       -12.5979 
  64   1.0000      -0.455179       -12.3860 
  65   1.0000      -0.453911       -12.3515 
  66   1.0000      -0.437882       -11.9154 
  67   1.0000      -0.436385       -11.8746 
  68   1.0000      -0.430137       -11.7046 
  69   1.0000      -0.427464       -11.6319 
  70   1.0000      -0.425587       -11.5808 
  71   1.0000      -0.424707       -11.5569 
  72   1.0000      -0.424325       -11.5465 
  73   1.0000      -0.422073       -11.4852 
  74   1.0000      -0.411024       -11.1845 
  75   1.0000      -0.398661       -10.8481 
  76   1.0000      -0.396148       -10.7797 
  77   1.0000      -0.383438       -10.4339 
  78   1.0000      -0.379276       -10.3206 
  79   1.0000      -0.377360       -10.2685 
  80   1.0000      -0.373507       -10.1636 
  81   1.0000      -0.363951        -9.9036 
  82   1.0000      -0.362766        -9.8714 
  83   1.0000      -0.361259        -9.8304 
  84   1.0000      -0.355107        -9.6629 
  85   1.0000      -0.354604        -9.6493 
  86   1.0000      -0.352224        -9.5845 
  87   1.0000      -0.351046        -9.5524 
  88   1.0000      -0.337592        -9.1864 
  89   1.0000      -0.332989        -9.0611 
  90   1.0000      -0.331715        -9.0264 
  91   1.0000      -0.331681        -9.0255 
  92   1.0000      -0.326535        -8.8855 
  93   1.0000      -0.322961        -8.7882 
  94   1.0000      -0.321172        -8.7395 
  95   1.0000      -0.304933        -8.2977 
  96   1.0000      -0.277721        -7.5572 
  97   1.0000      -0.271709        -7.3936 
  98   1.0000      -0.268036        -7.2936 
  99   1.0000      -0.266633        -7.2554 
 100   1.0000      -0.257940        -7.0189 
 101   1.0000      -0.257421        -7.0048 
 102   1.0000      -0.236022        -6.4225 
 103   1.0000      -0.208544        -5.6748 
 104   1.0000      -0.170061        -4.6276 
 105   0.0000      -0.065797        -1.7904 
 106   0.0000      -0.030398        -0.8272 
 107   0.0000      -0.014923        -0.4061 
 108   0.0000      -0.014153        -0.3851 
 109   0.0000       0.001173         0.0319 
 110   0.0000       0.014975         0.4075 
 111   0.0000       0.016283         0.4431 
 112   0.0000       0.016558         0.4506 
 113   0.0000       0.021726         0.5912 
 114   0.0000       0.025755         0.7008 
 115   0.0000       0.032186         0.8758 
 116   0.0000       0.036358         0.9894 
 117   0.0000       0.038652         1.0518 
 118   0.0000       0.043019         1.1706 
 119   0.0000       0.043651         1.1878 
 120   0.0000       0.048007         1.3063 
 121   0.0000       0.055358         1.5064 
 122   0.0000       0.056342         1.5331 
 123   0.0000       0.059808         1.6274 
 124   0.0000       0.064930         1.7668 
 125   0.0000       0.067341         1.8324 
 126   0.0000       0.072887         1.9833 
 127   0.0000       0.076894         2.0924 
 128   0.0000       0.078017         2.1230 
 129   0.0000       0.079860         2.1731 
 130   0.0000       0.090981         2.4757 
 131   0.0000       0.092504         2.5172 
 132   0.0000       0.092977         2.5300 
 133   0.0000       0.100092         2.7236 
 134   0.0000       0.112401         3.0586 
 135   0.0000       0.114158         3.1064 
 136   0.0000       0.122685         3.3384 
 137   0.0000       0.124825         3.3967 
 138   0.0000       0.131806         3.5866 
 139   0.0000       0.138303         3.7634 
 140   0.0000       0.142988         3.8909 
 141   0.0000       0.156122         4.2483 
 142   0.0000       0.160513         4.3678 
 143   0.0000       0.161711         4.4004 
 144   0.0000       0.171102         4.6559 
 145   0.0000       0.177136         4.8201 
 146   0.0000       0.178058         4.8452 
 147   0.0000       0.183712         4.9991 
 148   0.0000       0.187761         5.1092 
 149   0.0000       0.191821         5.2197 
 150   0.0000       0.196194         5.3387 
 151   0.0000       0.200090         5.4447 
 152   0.0000       0.202301         5.5049 
 153   0.0000       0.202788         5.5181 
 154   0.0000       0.203842         5.5468 
 155   0.0000       0.205903         5.6029 
 156   0.0000       0.216095         5.8802 
 157   0.0000       0.218161         5.9365 
 158   0.0000       0.219590         5.9753 
 159   0.0000       0.220407         5.9976 
 160   0.0000       0.224084         6.0976 
 161   0.0000       0.227255         6.1839 
 162   0.0000       0.228075         6.2062 
 163   0.0000       0.237722         6.4687 
 164   0.0000       0.239954         6.5295 
 165   0.0000       0.243496         6.6259 
 166   0.0000       0.248448         6.7606 
 167   0.0000       0.248913         6.7733 
 168   0.0000       0.252145         6.8612 
 169   0.0000       0.254552         6.9267 
 170   0.0000       0.254639         6.9291 
 171   0.0000       0.257841         7.0162 
 172   0.0000       0.263408         7.1677 
 173   0.0000       0.266925         7.2634 
 174   0.0000       0.267321         7.2742 
 175   0.0000       0.276508         7.5242 
 176   0.0000       0.276586         7.5263 
 177   0.0000       0.277306         7.5459 
 178   0.0000       0.279794         7.6136 
 179   0.0000       0.281213         7.6522 
 180   0.0000       0.284000         7.7280 
 181   0.0000       0.288057         7.8384 
 182   0.0000       0.291973         7.9450 
 183   0.0000       0.293280         7.9806 
 184   0.0000       0.294914         8.0250 
 185   0.0000       0.296124         8.0579 
 186   0.0000       0.299505         8.1499 
 187   0.0000       0.304703         8.2914 
 188   0.0000       0.305383         8.3099 
 189   0.0000       0.308504         8.3948 
 190   0.0000       0.309860         8.4317 
 191   0.0000       0.311856         8.4860 
 192   0.0000       0.314343         8.5537 
 193   0.0000       0.316055         8.6003 
 194   0.0000       0.316295         8.6068 
 195   0.0000       0.319233         8.6868 
 196   0.0000       0.320639         8.7250 
 197   0.0000       0.323777         8.8104 
 198   0.0000       0.325371         8.8538 
 199   0.0000       0.328283         8.9330 
 200   0.0000       0.334375         9.0988 
 201   0.0000       0.335237         9.1223 
 202   0.0000       0.337348         9.1797 
 203   0.0000       0.343239         9.3400 
 204   0.0000       0.345818         9.4102 
 205   0.0000       0.347618         9.4592 
 206   0.0000       0.348742         9.4898 
 207   0.0000       0.351618         9.5680 
 208   0.0000       0.355708         9.6793 
 209   0.0000       0.362684         9.8691 
 210   0.0000       0.369403        10.0520 
 211   0.0000       0.372891        10.1469 
 212   0.0000       0.374242        10.1836 
 213   0.0000       0.377974        10.2852 
 214   0.0000       0.380368        10.3503 
 215   0.0000       0.389287        10.5930 
 216   0.0000       0.398287        10.8380 
 217   0.0000       0.398832        10.8528 
 218   0.0000       0.403588        10.9822 
 219   0.0000       0.407956        11.1010 
 220   0.0000       0.411544        11.1987 
 221   0.0000       0.415373        11.3029 
 222   0.0000       0.417310        11.3556 
 223   0.0000       0.422579        11.4989 
 224   0.0000       0.422920        11.5082 
 225   0.0000       0.425453        11.5772 
 226   0.0000       0.429599        11.6900 
 227   0.0000       0.430535        11.7154 
 228   0.0000       0.430641        11.7183 
 229   0.0000       0.435789        11.8584 
 230   0.0000       0.442543        12.0422 
 231   0.0000       0.446933        12.1617 
 232   0.0000       0.451048        12.2736 
 233   0.0000       0.451656        12.2902 
 234   0.0000       0.454922        12.3791 
 235   0.0000       0.457800        12.4574 
 236   0.0000       0.459697        12.5090 
 237   0.0000       0.463216        12.6048 
 238   0.0000       0.469015        12.7625 
 239   0.0000       0.471057        12.8181 
 240   0.0000       0.473296        12.8790 
 241   0.0000       0.474201        12.9037 
 242   0.0000       0.482449        13.1281 
 243   0.0000       0.482656        13.1337 
 244   0.0000       0.483978        13.1697 
 245   0.0000       0.491392        13.3714 
 246   0.0000       0.492265        13.3952 
 247   0.0000       0.503666        13.7054 
 248   0.0000       0.505465        13.7544 
 249   0.0000       0.507251        13.8030 
 250   0.0000       0.510688        13.8965 
 251   0.0000       0.515039        14.0149 
 252   0.0000       0.522127        14.2078 
 253   0.0000       0.530226        14.4282 
 254   0.0000       0.530467        14.4347 
 255   0.0000       0.533101        14.5064 
 256   0.0000       0.535632        14.5753 
 257   0.0000       0.538125        14.6431 
 258   0.0000       0.547445        14.8967 
 259   0.0000       0.553011        15.0482 
 260   0.0000       0.561426        15.2772 
 261   0.0000       0.561692        15.2844 
 262   0.0000       0.562706        15.3120 
 263   0.0000       0.576839        15.6966 
 264   0.0000       0.578663        15.7462 
 265   0.0000       0.585942        15.9443 
 266   0.0000       0.588413        16.0115 
 267   0.0000       0.596228        16.2242 
 268   0.0000       0.599095        16.3022 
 269   0.0000       0.605623        16.4798 
 270   0.0000       0.619752        16.8643 
 271   0.0000       0.623241        16.9592 
 272   0.0000       0.633665        17.2429 
 273   0.0000       0.641325        17.4513 
 274   0.0000       0.642158        17.4740 
 275   0.0000       0.651691        17.7334 
 276   0.0000       0.658086        17.9074 
 277   0.0000       0.658832        17.9277 
 278   0.0000       0.664385        18.0788 
 279   0.0000       0.668341        18.1865 
 280   0.0000       0.670647        18.2492 
 281   0.0000       0.671595        18.2750 
 282   0.0000       0.677554        18.4372 
 283   0.0000       0.683694        18.6043 
 284   0.0000       0.698403        19.0045 
 285   0.0000       0.705690        19.2028 
 286   0.0000       0.721443        19.6315 
 287   0.0000       0.724568        19.7165 
 288   0.0000       0.735582        20.0162 
 289   0.0000       0.760904        20.7052 
 290   0.0000       0.763985        20.7891 
 291   0.0000       0.773139        21.0382 
 292   0.0000       0.774894        21.0859 
 293   0.0000       0.795715        21.6525 
 294   0.0000       0.796080        21.6624 
 295   0.0000       0.808656        22.0046 
 296   0.0000       0.821045        22.3418 
 297   0.0000       0.836948        22.7745 
 298   0.0000       0.839976        22.8569 
 299   0.0000       0.840160        22.8619 
 300   0.0000       0.845110        22.9966 
 301   0.0000       0.850421        23.1411 
 302   0.0000       0.855129        23.2692 
 303   0.0000       0.858396        23.3581 
 304   0.0000       0.864472        23.5235 
 305   0.0000       0.867242        23.5989 
 306   0.0000       0.867600        23.6086 
 307   0.0000       0.870505        23.6876 
 308   0.0000       0.872650        23.7460 
 309   0.0000       0.886386        24.1198 
 310   0.0000       0.895325        24.3630 
 311   0.0000       0.896212        24.3872 
 312   0.0000       0.899574        24.4786 
 313   0.0000       0.902459        24.5572 
 314   0.0000       0.903627        24.5889 
 315   0.0000       0.913999        24.8712 
 316   0.0000       0.914765        24.8920 
 317   0.0000       0.916331        24.9346 
 318   0.0000       0.920169        25.0391 
 319   0.0000       0.929115        25.2825 
 320   0.0000       0.930300        25.3147 
 321   0.0000       0.932939        25.3866 
 322   0.0000       0.940004        25.5788 
 323   0.0000       0.940526        25.5930 
 324   0.0000       0.947314        25.7777 
 325   0.0000       0.950857        25.8741 
 326   0.0000       0.953186        25.9375 
 327   0.0000       0.961800        26.1719 
 328   0.0000       0.962153        26.1815 
 329   0.0000       0.967305        26.3217 
 330   0.0000       0.975215        26.5369 
 331   0.0000       0.976214        26.5641 
 332   0.0000       0.979634        26.6572 
 333   0.0000       0.981989        26.7213 
 334   0.0000       0.986108        26.8334 
 335   0.0000       0.992200        26.9991 
 336   0.0000       0.994976        27.0747 
 337   0.0000       0.996547        27.1174 
 338   0.0000       0.998003        27.1570 
 339   0.0000       0.998634        27.1742 
 340   0.0000       1.002428        27.2775 
 341   0.0000       1.002976        27.2924 
 342   0.0000       1.005127        27.3509 
 343   0.0000       1.007481        27.4150 
 344   0.0000       1.017592        27.6901 
 345   0.0000       1.023906        27.8619 
 346   0.0000       1.024984        27.8912 
 347   0.0000       1.025066        27.8935 
 348   0.0000       1.029268        28.0078 
 349   0.0000       1.029492        28.0139 
 350   0.0000       1.033825        28.1318 
 351   0.0000       1.042129        28.3578 
 352   0.0000       1.048524        28.5318 
 353   0.0000       1.057033        28.7633 
 354   0.0000       1.057982        28.7891 
 355   0.0000       1.059856        28.8402 
 356   0.0000       1.067249        29.0413 
 357   0.0000       1.071150        29.1475 
 358   0.0000       1.090824        29.6828 
 359   0.0000       1.093486        29.7553 
 360   0.0000       1.104020        30.0419 
 361   0.0000       1.107069        30.1249 
 362   0.0000       1.115403        30.3517 
 363   0.0000       1.117157        30.3994 
 364   0.0000       1.118226        30.4285 
 365   0.0000       1.130250        30.7557 
 366   0.0000       1.139516        31.0078 
 367   0.0000       1.141397        31.0590 
 368   0.0000       1.151787        31.3417 
 369   0.0000       1.152477        31.3605 
 370   0.0000       1.170379        31.8476 
 371   0.0000       1.173240        31.9255 
 372   0.0000       1.174563        31.9615 
 373   0.0000       1.181042        32.1378 
 374   0.0000       1.190295        32.3896 
 375   0.0000       1.190873        32.4053 
 376   0.0000       1.205376        32.7999 
 377   0.0000       1.207956        32.8702 
 378   0.0000       1.218884        33.1675 
 379   0.0000       1.225976        33.3605 
 380   0.0000       1.237531        33.6749 
 381   0.0000       1.240864        33.7656 
 382   0.0000       1.252581        34.0845 
 383   0.0000       1.272202        34.6184 
 384   0.0000       1.275320        34.7032 
 385   0.0000       1.275636        34.7118 
 386   0.0000       1.299156        35.3518 
 387   0.0000       1.303933        35.4818 
 388   0.0000       1.305315        35.5194 
 389   0.0000       1.311166        35.6786 
 390   0.0000       1.314128        35.7593 
 391   0.0000       1.318985        35.8914 
 392   0.0000       1.321205        35.9518 
 393   0.0000       1.327741        36.1297 
 394   0.0000       1.346147        36.6305 
 395   0.0000       1.351590        36.7786 
 396   0.0000       1.356550        36.9136 
 397   0.0000       1.357476        36.9388 
 398   0.0000       1.366153        37.1749 
 399   0.0000       1.375567        37.4311 
 400   0.0000       1.385142        37.6916 
 401   0.0000       1.389404        37.8076 
 402   0.0000       1.400457        38.1084 
 403   0.0000       1.407848        38.3095 
 404   0.0000       1.420647        38.6578 
 405   0.0000       1.428774        38.8789 
 406   0.0000       1.430225        38.9184 
 407   0.0000       1.430757        38.9329 
 408   0.0000       1.432494        38.9801 
 409   0.0000       1.440712        39.2038 
 410   0.0000       1.441799        39.2334 
 411   0.0000       1.444256        39.3002 
 412   0.0000       1.449592        39.4454 
 413   0.0000       1.453843        39.5611 
 414   0.0000       1.453996        39.5652 
 415   0.0000       1.455163        39.5970 
 416   0.0000       1.471694        40.0468 
 417   0.0000       1.474924        40.1347 
 418   0.0000       1.484983        40.4084 
 419   0.0000       1.491919        40.5972 
 420   0.0000       1.497396        40.7462 
 421   0.0000       1.500227        40.8232 
 422   0.0000       1.506662        40.9984 
 423   0.0000       1.508498        41.0483 
 424   0.0000       1.511134        41.1200 
 425   0.0000       1.514463        41.2106 
 426   0.0000       1.520849        41.3844 
 427   0.0000       1.536047        41.7980 
 428   0.0000       1.546291        42.0767 
 429   0.0000       1.560928        42.4750 
 430   0.0000       1.561499        42.4905 
 431   0.0000       1.563517        42.5455 
 432   0.0000       1.563907        42.5561 
 433   0.0000       1.564273        42.5660 
 434   0.0000       1.573014        42.8039 
 435   0.0000       1.583426        43.0872 
 436   0.0000       1.585732        43.1500 
 437   0.0000       1.589183        43.2439 
 438   0.0000       1.590122        43.2694 
 439   0.0000       1.595330        43.4111 
 440   0.0000       1.600730        43.5581 
 441   0.0000       1.605065        43.6760 
 442   0.0000       1.607915        43.7536 
 443   0.0000       1.620273        44.0899 
 444   0.0000       1.621763        44.1304 
 445   0.0000       1.634515        44.4774 
 446   0.0000       1.638233        44.5786 
 447   0.0000       1.638703        44.5914 
 448   0.0000       1.638848        44.5953 
 449   0.0000       1.642929        44.7064 
 450   0.0000       1.644903        44.7601 
 451   0.0000       1.658889        45.1407 
 452   0.0000       1.659623        45.1606 
 453   0.0000       1.661001        45.1981 
 454   0.0000       1.666552        45.3492 
 455   0.0000       1.681306        45.7507 
 456   0.0000       1.684410        45.8351 
 457   0.0000       1.686758        45.8990 
 458   0.0000       1.687370        45.9157 
 459   0.0000       1.687956        45.9316 
 460   0.0000       1.694673        46.1144 
 461   0.0000       1.699847        46.2552 
 462   0.0000       1.705359        46.4052 
 463   0.0000       1.707918        46.4748 
 464   0.0000       1.713963        46.6393 
 465   0.0000       1.716520        46.7089 
 466   0.0000       1.718113        46.7522 
 467   0.0000       1.723281        46.8929 
 468   0.0000       1.731824        47.1253 
 469   0.0000       1.741530        47.3894 
 470   0.0000       1.743455        47.4418 
 471   0.0000       1.765467        48.0408 
 472   0.0000       1.767306        48.0908 
 473   0.0000       1.769056        48.1385 
 474   0.0000       1.770158        48.1684 
 475   0.0000       1.772874        48.2424 
 476   0.0000       1.777890        48.3789 
 477   0.0000       1.785734        48.5923 
 478   0.0000       1.793837        48.8128 
 479   0.0000       1.794554        48.8323 
 480   0.0000       1.797401        48.9098 
 481   0.0000       1.802536        49.0495 
 482   0.0000       1.812125        49.3104 
 483   0.0000       1.814493        49.3749 
 484   0.0000       1.826361        49.6978 
 485   0.0000       1.831433        49.8358 
 486   0.0000       1.835692        49.9517 
 487   0.0000       1.837681        50.0058 
 488   0.0000       1.841638        50.1135 
 489   0.0000       1.852759        50.4161 
 490   0.0000       1.857235        50.5379 
 491   0.0000       1.858181        50.5637 
 492   0.0000       1.861531        50.6548 
 493   0.0000       1.875812        51.0435 
 494   0.0000       1.882572        51.2274 
 495   0.0000       1.921259        52.2801 
 496   0.0000       1.926227        52.4153 
 497   0.0000       1.933622        52.6165 
 498   0.0000       1.940143        52.7940 
 499   0.0000       1.945298        52.9342 
 500   0.0000       1.953187        53.1489 
 501   0.0000       1.972178        53.6657 
 502   0.0000       1.972216        53.6667 
 503   0.0000       1.977028        53.7977 
 504   0.0000       1.977977        53.8235 
 505   0.0000       2.017454        54.8977 
 506   0.0000       2.018671        54.9308 
 507   0.0000       2.026487        55.1435 
 508   0.0000       2.036374        55.4125 
 509   0.0000       2.041008        55.5386 
 510   0.0000       2.043804        55.6147 
 511   0.0000       2.046329        55.6834 
 512   0.0000       2.057325        55.9827 
 513   0.0000       2.077407        56.5291 
 514   0.0000       2.088379        56.8277 
 515   0.0000       2.101340        57.1804 
 516   0.0000       2.110385        57.4265 
 517   0.0000       2.111066        57.4450 
 518   0.0000       2.119934        57.6863 
 519   0.0000       2.134689        58.0878 
 520   0.0000       2.146966        58.4219 
 521   0.0000       2.152094        58.5615 
 522   0.0000       2.184346        59.4391 
 523   0.0000       2.189378        59.5760 
 524   0.0000       2.192050        59.6487 
 525   0.0000       2.199790        59.8593 
 526   0.0000       2.204174        59.9786 
 527   0.0000       2.204945        59.9996 
 528   0.0000       2.227274        60.6072 
 529   0.0000       2.232236        60.7422 
 530   0.0000       2.251882        61.2768 
 531   0.0000       2.252810        61.3021 
 532   0.0000       2.265471        61.6466 
 533   0.0000       2.272646        61.8418 
 534   0.0000       2.287372        62.2426 
 535   0.0000       2.315600        63.0107 
 536   0.0000       2.319924        63.1283 
 537   0.0000       2.327776        63.3420 
 538   0.0000       2.330159        63.4069 
 539   0.0000       2.332297        63.4650 
 540   0.0000       2.360613        64.2356 
 541   0.0000       2.383203        64.8503 
 542   0.0000       2.393056        65.1184 
 543   0.0000       2.396976        65.2250 
 544   0.0000       2.403914        65.4138 
 545   0.0000       2.405673        65.4617 
 546   0.0000       2.408481        65.5381 
 547   0.0000       2.416902        65.7672 
 548   0.0000       2.420393        65.8623 
 549   0.0000       2.425322        65.9964 
 550   0.0000       2.433687        66.2240 
 551   0.0000       2.450187        66.6730 
 552   0.0000       2.463618        67.0385 
 553   0.0000       2.465843        67.0990 
 554   0.0000       2.469338        67.1941 
 555   0.0000       2.474857        67.3443 
 556   0.0000       2.487262        67.6818 
 557   0.0000       2.492040        67.8118 
 558   0.0000       2.499747        68.0216 
 559   0.0000       2.507397        68.2297 
 560   0.0000       2.509973        68.2998 
 561   0.0000       2.514388        68.4200 
 562   0.0000       2.522937        68.6526 
 563   0.0000       2.527620        68.7800 
 564   0.0000       2.541056        69.1457 
 565   0.0000       2.543753        69.2191 
 566   0.0000       2.549725        69.3815 
 567   0.0000       2.556688        69.5710 
 568   0.0000       2.566317        69.8330 
 569   0.0000       2.568061        69.8805 
 570   0.0000       2.576777        70.1177 
 571   0.0000       2.579536        70.1928 
 572   0.0000       2.584637        70.3316 
 573   0.0000       2.586882        70.3926 
 574   0.0000       2.589078        70.4524 
 575   0.0000       2.620094        71.2964 
 576   0.0000       2.621711        71.3404 
 577   0.0000       2.626758        71.4777 
 578   0.0000       2.633457        71.6600 
 579   0.0000       2.680529        72.9409 
 580   0.0000       2.703325        73.5612 
[...]

 -----------------------------------------------------------
 Nucleus  56H : A:ISTP=    1 I=  0.5 P=533.5514 MHz/au**3
                Q:ISTP=    2 I=  1.0 Q=  0.0029 barn     
 -----------------------------------------------------------
 Solving for nuclear perturbation:
Forming RHS of the CP-SCF equations         ... 
Calc. nucleus orbit integrals (SHARK)       ... done

------------------------------------------------------------------------------
                           ORCA CP-SCF CALCULATION
------------------------------------------------------------------------------

Input orbitals are from        ... EPRII.gbw
Input Perturbation             ... EPRII.pin.tmp
Wavefunction output            ... EPRII.pout.tmp
Perturbation mode              ... Imaginary perturbation
Solver                         ... POPLE
Max. number of iterations      ... 64
Convergence tolerance          ... 1.000e-03
Integral handling              ... Direct
DFT GridXC                     ... 1
COSX GridX                     ... 1
COSX IntAccX                   ... 3.067
COSX Algorithm                 ... Auto
Number of perturbations        ... 3
Number of operators            ... 2
Orbital ranges used for CP-SCF:
 Operator 0:  Orbitals   0...104  to 105...712
 Operator 1:  Orbitals   0...103  to 104...712
Variables per perturbation     ... 127176
DFT calculation                         ... on
XC functional terms                     ... off
Hybrid DFT                              ... on
   Exchange mixing (SCF)                ...  0.200
   Exchange mixing (CP-SCF)             ...  0.200
   GGA exch. scaling(SCF)               ...  0.720
   GGA exch. scaling (CP-SCF)           ...  0.720
   GGA corr. scaling (SCF)              ...  0.810
   GGA corr. scaling (CP-SCF)           ...  0.810

CP-SCF GRID
-----------

General Integration Accuracy     IntAcc      ... 3.467
Radial Grid Type                 RadialGrid  ... OptM3 with GC (2021)
Angular Grid (max. ang.)         AngularGrid ... 1 (Lebedev-50)
Angular grid pruning method      GridPruning ... 4 (adaptive)
Weight generation scheme         WeightScheme... Becke
Basis function cutoff            BFCut       ... 1.0000e-10
Integration weight cutoff        WCut        ... 1.0000e-14
Angular grids for H and He will be reduced by one unit
Partially contracted basis set               ... off
Rotationally invariant grid construction     ... off

Total number of grid points                  ...    38989
Total number of batches                      ...      636
Average number of points per batch           ...       61
Average number of grid points per atom       ...      661

CP-SCF GRIDX
------------

General Integration Accuracy     IntAcc      ... 3.067
Radial Grid Type                 RadialGrid  ... OptM3 with GC (2021)
Angular Grid (max. ang.)         AngularGrid ... 1 (Lebedev-50)
Angular grid pruning method      GridPruning ... 4 (adaptive)
Weight generation scheme         WeightScheme... Becke
Basis function cutoff            BFCut       ... 1.0000e-10
Integration weight cutoff        WCut        ... 1.0000e-14
Angular grids for H and He will be reduced by one unit
Partially contracted basis set               ... on
Rotationally invariant grid construction     ... off

Total number of grid points                  ...    18243
Total number of batches                      ...      321
Average number of points per batch           ...       56
Average number of grid points per atom       ...      309

Memory available               ... 800.0 MB
Memory needed per perturbation ...  29.8 MB
Perturbations treated per batch... 3
Number of batches              ... 1
     CP-SCF ITERATION   0:   4.6315e-02 (   3.3 sec   0/  3 done)
     CP-SCF ITERATION   1:   2.1197e-03 (   3.5 sec   0/  3 done)
     CP-SCF ITERATION   2:   1.4706e-04 (   3.4 sec   3/  3 done)
                    *** THE CP-SCF HAS CONVERGED ***

Forming final perturbed densities           ... done
Transforming perturbed density to AO basis  ... done

 Raw HFC matrix (all values in MHz): 
 -----------------------------------
                -1.1958               0.5997              -0.0020
                 0.5994              -1.6204              -0.0017
                -0.0020              -0.0017              -2.6959

 A(FC)          -1.8378              -1.8378              -1.8378
 A(SD)           1.0651              -0.2072              -0.8579
 A(ORB+DIA)      0.0007               0.0009              -0.0002    A(PC) =   0.0005
 A(ORB)          0.0006               0.0007               0.0000    A(PC) =   0.0004
 A(DIA)          0.0001               0.0001              -0.0002    A(PC) =   0.0000
             ----------           ----------           ----------
 A(Tot)         -0.7721              -2.0441              -2.6959    A(iso)=   -1.8374
 Orientation: 
  X           0.8166170            0.5771792           -0.0009001
  Y           0.5771783           -0.8166174           -0.0011189
  Z          -0.0013808            0.0003942           -0.9999990

Notes:  (1) The A matrix conforms to the "SAI" spin Hamiltonian convention.
        (2) Tensor is right-handed.

 -----------------------------------------------------------
 Nucleus  57H : A:ISTP=    1 I=  0.5 P=533.5514 MHz/au**3
                Q:ISTP=    2 I=  1.0 Q=  0.0029 barn     
 -----------------------------------------------------------
 Solving for nuclear perturbation:
Forming RHS of the CP-SCF equations         ... 
Calc. nucleus orbit integrals (SHARK)       ... done

------------------------------------------------------------------------------
                           ORCA CP-SCF CALCULATION
------------------------------------------------------------------------------

Input orbitals are from        ... EPRII.gbw
Input Perturbation             ... EPRII.pin.tmp
Wavefunction output            ... EPRII.pout.tmp
Perturbation mode              ... Imaginary perturbation
Solver                         ... POPLE
Max. number of iterations      ... 64
Convergence tolerance          ... 1.000e-03
Integral handling              ... Direct
DFT GridXC                     ... 1
COSX GridX                     ... 1
COSX IntAccX                   ... 3.067
COSX Algorithm                 ... Auto
Number of perturbations        ... 3
Number of operators            ... 2
Orbital ranges used for CP-SCF:
 Operator 0:  Orbitals   0...104  to 105...712
 Operator 1:  Orbitals   0...103  to 104...712
Variables per perturbation     ... 127176
DFT calculation                         ... on
XC functional terms                     ... off
Hybrid DFT                              ... on
   Exchange mixing (SCF)                ...  0.200
   Exchange mixing (CP-SCF)             ...  0.200
   GGA exch. scaling(SCF)               ...  0.720
   GGA exch. scaling (CP-SCF)           ...  0.720
   GGA corr. scaling (SCF)              ...  0.810
   GGA corr. scaling (CP-SCF)           ...  0.810

CP-SCF GRID
-----------

General Integration Accuracy     IntAcc      ... 3.467
Radial Grid Type                 RadialGrid  ... OptM3 with GC (2021)
Angular Grid (max. ang.)         AngularGrid ... 1 (Lebedev-50)
Angular grid pruning method      GridPruning ... 4 (adaptive)
Weight generation scheme         WeightScheme... Becke
Basis function cutoff            BFCut       ... 1.0000e-10
Integration weight cutoff        WCut        ... 1.0000e-14
Angular grids for H and He will be reduced by one unit
Partially contracted basis set               ... off
Rotationally invariant grid construction     ... off

Total number of grid points                  ...    38989
Total number of batches                      ...      636
Average number of points per batch           ...       61
Average number of grid points per atom       ...      661

CP-SCF GRIDX
------------

General Integration Accuracy     IntAcc      ... 3.067
Radial Grid Type                 RadialGrid  ... OptM3 with GC (2021)
Angular Grid (max. ang.)         AngularGrid ... 1 (Lebedev-50)
Angular grid pruning method      GridPruning ... 4 (adaptive)
Weight generation scheme         WeightScheme... Becke
Basis function cutoff            BFCut       ... 1.0000e-10
Integration weight cutoff        WCut        ... 1.0000e-14
Angular grids for H and He will be reduced by one unit
Partially contracted basis set               ... on
Rotationally invariant grid construction     ... off

Total number of grid points                  ...    18243
Total number of batches                      ...      321
Average number of points per batch           ...       56
Average number of grid points per atom       ...      309

Memory available               ... 799.0 MB
Memory needed per perturbation ...  29.8 MB
Perturbations treated per batch... 3
Number of batches              ... 1
     CP-SCF ITERATION   0:   4.6197e-02 (   3.4 sec   0/  3 done)
     CP-SCF ITERATION   1:   2.0105e-03 (   3.5 sec   0/  3 done)
     CP-SCF ITERATION   2:   1.3963e-04 (   3.5 sec   3/  3 done)
                    *** THE CP-SCF HAS CONVERGED ***

Forming final perturbed densities           ... done
Transforming perturbed density to AO basis  ... done

 Raw HFC matrix (all values in MHz): 
 -----------------------------------
                -2.0158              -0.2617              -0.0000
                -0.2612              -1.1340              -0.0018
                -0.0000              -0.0018              -2.3875

 A(FC)          -1.8461              -1.8461              -1.8461
 A(SD)           0.7836              -0.2423              -0.5413
 A(ORB+DIA)      0.0001               0.0009              -0.0001    A(PC) =   0.0003
 A(ORB)         -0.0000               0.0008               0.0000    A(PC) =   0.0003
 A(DIA)          0.0001               0.0001              -0.0001    A(PC) =   0.0001
             ----------           ----------           ----------
 A(Tot)         -1.0623              -2.0875              -2.3875    A(iso)=   -1.8458
 Orientation: 
  X          -0.2646306            0.9643490           -0.0012450
  Y           0.9643489            0.2646284           -0.0017243
  Z          -0.0013334           -0.0016569           -0.9999977

Notes:  (1) The A matrix conforms to the "SAI" spin Hamiltonian convention.
        (2) Tensor is right-handed.

 -----------------------------------------------------------
 Nucleus  58H : A:ISTP=    1 I=  0.5 P=533.5514 MHz/au**3
                Q:ISTP=    2 I=  1.0 Q=  0.0029 barn     
 -----------------------------------------------------------
 Solving for nuclear perturbation:
Forming RHS of the CP-SCF equations         ... 
Calc. nucleus orbit integrals (SHARK)       ... done

------------------------------------------------------------------------------
                           ORCA CP-SCF CALCULATION
------------------------------------------------------------------------------

Input orbitals are from        ... EPRII.gbw
Input Perturbation             ... EPRII.pin.tmp
Wavefunction output            ... EPRII.pout.tmp
Perturbation mode              ... Imaginary perturbation
Solver                         ... POPLE
Max. number of iterations      ... 64
Convergence tolerance          ... 1.000e-03
Integral handling              ... Direct
DFT GridXC                     ... 1
COSX GridX                     ... 1
COSX IntAccX                   ... 3.067
COSX Algorithm                 ... Auto
Number of perturbations        ... 3
Number of operators            ... 2
Orbital ranges used for CP-SCF:
 Operator 0:  Orbitals   0...104  to 105...712
 Operator 1:  Orbitals   0...103  to 104...712
Variables per perturbation     ... 127176
DFT calculation                         ... on
XC functional terms                     ... off
Hybrid DFT                              ... on
   Exchange mixing (SCF)                ...  0.200
   Exchange mixing (CP-SCF)             ...  0.200
   GGA exch. scaling(SCF)               ...  0.720
   GGA exch. scaling (CP-SCF)           ...  0.720
   GGA corr. scaling (SCF)              ...  0.810
   GGA corr. scaling (CP-SCF)           ...  0.810

CP-SCF GRID
-----------

General Integration Accuracy     IntAcc      ... 3.467
Radial Grid Type                 RadialGrid  ... OptM3 with GC (2021)
Angular Grid (max. ang.)         AngularGrid ... 1 (Lebedev-50)
Angular grid pruning method      GridPruning ... 4 (adaptive)
Weight generation scheme         WeightScheme... Becke
Basis function cutoff            BFCut       ... 1.0000e-10
Integration weight cutoff        WCut        ... 1.0000e-14
Angular grids for H and He will be reduced by one unit
Partially contracted basis set               ... off
Rotationally invariant grid construction     ... off

Total number of grid points                  ...    38989
Total number of batches                      ...      636
Average number of points per batch           ...       61
Average number of grid points per atom       ...      661

CP-SCF GRIDX
------------

General Integration Accuracy     IntAcc      ... 3.067
Radial Grid Type                 RadialGrid  ... OptM3 with GC (2021)
Angular Grid (max. ang.)         AngularGrid ... 1 (Lebedev-50)
Angular grid pruning method      GridPruning ... 4 (adaptive)
Weight generation scheme         WeightScheme... Becke
Basis function cutoff            BFCut       ... 1.0000e-10
Integration weight cutoff        WCut        ... 1.0000e-14
Angular grids for H and He will be reduced by one unit
Partially contracted basis set               ... on
Rotationally invariant grid construction     ... off

Total number of grid points                  ...    18243
Total number of batches                      ...      321
Average number of points per batch           ...       56
Average number of grid points per atom       ...      309

Memory available               ... 798.1 MB
Memory needed per perturbation ...  29.8 MB
Perturbations treated per batch... 3
Number of batches              ... 1
     CP-SCF ITERATION   0:   4.2129e-02 (   3.1 sec   0/  3 done)
     CP-SCF ITERATION   1:   1.7525e-03 (   3.4 sec   1/  3 done)
     CP-SCF ITERATION   2:   9.4360e-05 (   2.8 sec   3/  3 done)
                    *** THE CP-SCF HAS CONVERGED ***

Forming final perturbed densities           ... done
Transforming perturbed density to AO basis  ... done

 Raw HFC matrix (all values in MHz): 
 -----------------------------------
                 1.4278               0.2850              -0.0006
                 0.2850               0.5988              -0.0002
                -0.0006              -0.0002               0.4012

 A(FC)           0.8093               0.8093               0.8093
 A(SD)          -0.4080              -0.2991               0.7071
 A(ORB+DIA)     -0.0000               0.0001              -0.0002    A(PC) =  -0.0000
 A(ORB)         -0.0000               0.0001              -0.0002    A(PC) =  -0.0000
 A(DIA)          0.0000              -0.0000               0.0000    A(PC) =   0.0000
             ----------           ----------           ----------
 A(Tot)          0.4012               0.5103               1.5163    A(iso)=    0.8093
 Orientation: 
  X           0.0004936           -0.2966578           -0.9549837
  Y           0.0002566            0.9549838           -0.2966577
  Z           0.9999998           -0.0000986            0.0005475

Notes:  (1) The A matrix conforms to the "SAI" spin Hamiltonian convention.
        (2) Tensor is right-handed.


--------------------------------------------------------------------------------
----------------------------------------------------------------------------
                           ORCA EULER ANGLE PROGRAM
----------------------------------------------------------------------------

Only g-tensor available        -->  using g-tensor as reference tensor

Reference tensor               ...  g

g-tensor ordering              ...  |g_min> --> |gx>
                                    |g_mid> --> |gy>
                                    |g_max> --> |gz>

A- and EFG-tensor ordering     ...  the axes |Ax>, |Qx>, |Ay>, etc. are assigned
                                    such that the Euler rotation is minimal. You
                                    can find the respective eigenvalues as Ax,
                                    EFGx, Ay, etc. in the tables below.
                                    The relation of |Ax>, |Ay>,  etc. to Amin, Amid, etc.
                                    (as printed in the ORCA EPR/NMR CALCULATION Output)
                                    is obtained in the detailed printout.

Euler rotation around          ...  z - y - z
   First rotation              -->  by alpha around z
   Second rotation             -->  by beta around y'
   Third rotation              -->  by gamma around z''
   Positive / Negative angle   -->  clockwise / counterclockwise rotation

Plot EFG-tensors                    (-)
Plot HFC-tensors                    (-)
Detailed Printout                   (-)

-------------------------------------------------------------------------
          Euler rotation of hyperfine tensor to g-tensor
-------------------------------------------------------------------------

-------------------------------------------------------------------
 Atom  |   Alpha    Beta    Gamma   |   Ax       Ay       Az 
       |          [degrees]         |           [MHz]         
-------------------------------------------------------------------
  9H       90.5     15.6    -90.5     -17.22    -7.97   -20.91
 10H       90.0     18.6    -90.0       4.57     5.14    10.05
 12H      -90.0     34.6     90.0     -48.39   -19.79   -73.95
 14H       56.0     17.4    -36.3      66.29    75.94    67.76
 15H      121.4     16.6   -140.5      65.19    74.83    66.68
 17H       -7.5     19.6     42.2      -3.24    -3.08     3.03
 18H     -172.6     19.1    137.0      -3.23    -3.08     3.02
 20H      -40.9     44.5     75.6       0.05    -0.05     2.25
 21H     -137.8     44.2    104.1       0.05    -0.05     2.26
 23H      110.6     19.9   -151.4      23.28    23.88    26.98
 24H       69.5     19.8    -28.4      23.33    23.93    27.03
 26H       79.5     41.6    -92.1      -1.01     0.92    -0.89
 27H      100.4     41.5    -87.5      -1.02     0.91    -0.89
 29H      -86.5     19.3    117.1      -0.10    -0.14     0.80
 30H      -93.9     19.3     63.4      -0.10    -0.14     0.80
 32H      -98.8     35.7    102.8      -0.13    -0.10     0.37
 33H      -81.2     35.7     77.6      -0.13    -0.10     0.37
 35H      -94.4     27.5     89.6      -0.82    -0.84     0.71
 36H      -89.1     25.6     90.2      -0.13    -0.13     0.23
 43H      -90.2     33.3     90.3       0.73     0.45     1.20
 44H       90.4     14.0    -90.2      -0.32    -0.50    -0.15
 45H      -90.2     22.2     90.4       0.60     1.50     0.16
 46H       90.2     33.8    -90.1       0.65     0.18     1.44
 47H      -91.8      5.5     92.0      -0.33    -0.19    -0.45
 54H      -90.2     31.2     90.3      -2.12    -0.64    -3.24
 55H      -90.2     41.6     90.2       0.46     1.29     0.69
 56H      -95.7      1.3     95.8      -2.70    -0.77    -2.04
 57H      -90.3     21.2     90.3      -2.39    -2.09    -1.06
 58H      -90.5     19.3     90.5       0.40     1.52     0.51
-------------------------------------------------------------------


Maximum memory used throughout the entire EPRNMR-calculation: 328.7 MB

Timings for individual modules:

Sum of individual times         ...    11388.065 sec (= 189.801 min)
GTO integral calculation        ...        7.550 sec (=   0.126 min)   0.1 %
Spin-Orbit-Coupling Matrices    ...       22.251 sec (=   0.371 min)   0.2 %
SCF iterations                  ...      115.815 sec (=   1.930 min)   1.0 %
EPR/NMR calculation             ...    11242.448 sec (= 187.374 min)  98.7 %
                             ****ORCA TERMINATED NORMALLY****
TOTAL RUN TIME: 0 days 3 hours 9 minutes 52 seconds 708 msec
