
                                 *****************
                                 * O   R   C   A *
                                 *****************

                                            #,                                       
                                            ###                                      
                                            ####                                     
                                            #####                                    
                                            ######                                   
                                           ########,                                 
                                     ,,################,,,,,                         
                               ,,#################################,,                 
                          ,,##########################################,,             
                       ,#########################################, ''#####,          
                    ,#############################################,,   '####,        
                  ,##################################################,,,,####,       
                ,###########''''           ''''###############################       
              ,#####''   ,,,,##########,,,,          '''####'''          '####       
            ,##' ,,,,###########################,,,                        '##       
           ' ,,###''''                  '''############,,,                           
         ,,##''                                '''############,,,,        ,,,,,,###''
      ,#''                                            '''#######################'''  
     '                                                          ''''####''''         
             ,#######,   #######,   ,#######,      ##                                
            ,#'     '#,  ##    ##  ,#'     '#,    #''#        ######   ,####,        
            ##       ##  ##   ,#'  ##            #'  '#       #        #'  '#        
            ##       ##  #######   ##           ,######,      #####,   #    #        
            '#,     ,#'  ##    ##  '#,     ,#' ,#      #,         ##   #,  ,#        
             '#######'   ##     ##  '#######'  #'      '#     #####' # '####'        



                  #######################################################
                  #                        -***-                        #
                  #          Department of theory and spectroscopy      #
                  #    Directorship and core code : Frank Neese         #
                  #        Max Planck Institute fuer Kohlenforschung    #
                  #                Kaiser Wilhelm Platz 1               #
                  #                 D-45470 Muelheim/Ruhr               #
                  #                      Germany                        #
                  #                                                     #
                  #                  All rights reserved                #
                  #                        -***-                        #
                  #######################################################


                         Program Version 5.0.4 -  RELEASE  -


 With contributions from (in alphabetic order):
   Daniel Aravena         : Magnetic Suceptibility
   Michael Atanasov       : Ab Initio Ligand Field Theory (pilot matlab implementation)
   Alexander A. Auer      : GIAO ZORA, VPT2 properties, NMR spectrum
   Ute Becker             : Parallelization
   Giovanni Bistoni       : ED, misc. LED, open-shell LED, HFLD
   Martin Brehm           : Molecular dynamics
   Dmytro Bykov           : SCF Hessian
   Vijay G. Chilkuri      : MRCI spin determinant printing, contributions to CSF-ICE
   Dipayan Datta          : RHF DLPNO-CCSD density
   Achintya Kumar Dutta   : EOM-CC, STEOM-CC
   Dmitry Ganyushin       : Spin-Orbit,Spin-Spin,Magnetic field MRCI
   Miquel Garcia          : C-PCM and meta-GGA Hessian, CC/C-PCM, Gaussian charge scheme
   Yang Guo               : DLPNO-NEVPT2, F12-NEVPT2, CIM, IAO-localization
   Andreas Hansen         : Spin unrestricted coupled pair/coupled cluster methods
   Benjamin Helmich-Paris : MC-RPA, TRAH-SCF, COSX integrals
   Lee Huntington         : MR-EOM, pCC
   Robert Izsak           : Overlap fitted RIJCOSX, COSX-SCS-MP3, EOM
   Marcus Kettner         : VPT2
   Christian Kollmar      : KDIIS, OOCD, Brueckner-CCSD(T), CCSD density, CASPT2, CASPT2-K
   Simone Kossmann        : Meta GGA functionals, TD-DFT gradient, OOMP2, MP2 Hessian
   Martin Krupicka        : Initial AUTO-CI
   Lucas Lang             : DCDCAS
   Marvin Lechner         : AUTO-CI (C++ implementation), FIC-MRCC
   Dagmar Lenk            : GEPOL surface, SMD
   Dimitrios Liakos       : Extrapolation schemes; Compound Job, initial MDCI parallelization
   Dimitrios Manganas     : Further ROCIS development; embedding schemes
   Dimitrios Pantazis     : SARC Basis sets
   Anastasios Papadopoulos: AUTO-CI, single reference methods and gradients
   Taras Petrenko         : DFT Hessian,TD-DFT gradient, ASA, ECA, R-Raman, ABS, FL, XAS/XES, NRVS
   Peter Pinski           : DLPNO-MP2, DLPNO-MP2 Gradient
   Christoph Reimann      : Effective Core Potentials
   Marius Retegan         : Local ZFS, SOC
   Christoph Riplinger    : Optimizer, TS searches, QM/MM, DLPNO-CCSD(T), (RO)-DLPNO pert. Triples
   Tobias Risthaus        : Range-separated hybrids, TD-DFT gradient, RPA, STAB
   Michael Roemelt        : Original ROCIS implementation
   Masaaki Saitow         : Open-shell DLPNO-CCSD energy and density
   Barbara Sandhoefer     : DKH picture change effects
   Avijit Sen             : IP-ROCIS
   Kantharuban Sivalingam : CASSCF convergence, NEVPT2, FIC-MRCI
   Bernardo de Souza      : ESD, SOC TD-DFT
   Georgi Stoychev        : AutoAux, RI-MP2 NMR, DLPNO-MP2 response
   Willem Van den Heuvel  : Paramagnetic NMR
   Boris Wezisla          : Elementary symmetry handling
   Frank Wennmohs         : Technical directorship


 We gratefully acknowledge several colleagues who have allowed us to
 interface, adapt or use parts of their codes:
   Stefan Grimme, W. Hujo, H. Kruse, P. Pracht,  : VdW corrections, initial TS optimization,
                  C. Bannwarth, S. Ehlert          DFT functionals, gCP, sTDA/sTD-DF
   Ed Valeev, F. Pavosevic, A. Kumar             : LibInt (2-el integral package), F12 methods
   Garnet Chan, S. Sharma, J. Yang, R. Olivares  : DMRG
   Ulf Ekstrom                                   : XCFun DFT Library
   Mihaly Kallay                                 : mrcc  (arbitrary order and MRCC methods)
   Jiri Pittner, Ondrej Demel                    : Mk-CCSD
   Frank Weinhold                                : gennbo (NPA and NBO analysis)
   Christopher J. Cramer and Donald G. Truhlar   : smd solvation model
   Lars Goerigk                                  : TD-DFT with DH, B97 family of functionals
   V. Asgeirsson, H. Jonsson                     : NEB implementation
   FAccTs GmbH                                   : IRC, NEB, NEB-TS, DLPNO-Multilevel, CI-OPT
                                                   MM, QMMM, 2- and 3-layer-ONIOM, Crystal-QMMM,
                                                   LR-CPCM, SF, NACMEs, symmetry and pop. for TD-DFT,
                                                   nearIR, NL-DFT gradient (VV10), updates on ESD,
                                                   ML-optimized integration grids
   S Lehtola, MJT Oliveira, MAL Marques          : LibXC Library
   Liviu Ungur et al                             : ANISO software


 Your calculation uses the libint2 library for the computation of 2-el integrals
 For citations please refer to: http://libint.valeyev.net

 Your ORCA version has been built with support for libXC version: 5.1.0
 For citations please refer to: https://tddft.org/programs/libxc/

 This ORCA versions uses:
   CBLAS   interface :  Fast vector & matrix operations
   LAPACKE interface :  Fast linear algebra routines
   SCALAPACK package :  Parallel linear algebra routines
   Shared memory     :  Shared parallel matrices
   BLAS/LAPACK       :  OpenBLAS 0.3.15  USE64BITINT DYNAMIC_ARCH NO_AFFINITY SkylakeX SINGLE_THREADED
        Core in use  :  SkylakeX
   Copyright (c) 2011-2014, The OpenBLAS Project




***************************************
The coordinates will be read from file: opt.xyz
***************************************


================================================================================

----- Orbital basis set information -----
Your calculation utilizes the basis: EPR-II
   V. Barone, in Recent Advances in Density Functional Methods, Part 1 (ed. D. P. Chong), World Scientific, Singapore, 1995, p. 287.

----- AuxJ basis set information -----
Your calculation utilizes the AutoAux generation procedure.
  G. L. Stoychev, A. A. Auer, F. Neese, J. Chem. Theory Comput. 13, 554 (2017)

----- AuxC basis set information -----
Your calculation utilizes the AutoAux generation procedure.
  G. L. Stoychev, A. A. Auer, F. Neese, J. Chem. Theory Comput. 13, 554 (2017)

----- AuxJK basis set information -----
Your calculation utilizes the AutoAux generation procedure.
  G. L. Stoychev, A. A. Auer, F. Neese, J. Chem. Theory Comput. 13, 554 (2017)

================================================================================
                                        WARNINGS
                       Please study these warnings very carefully!
================================================================================

WARNING: Old DensityContainer found on disk!
         Will remove this file - 
         If you want to keep old densities, please start your calculation with a different basename. 


WARNING: your system is open-shell and RHF/RKS was chosen
  ===> : WILL SWITCH to UHF/UKS


INFO   : the flag for use of the SHARK integral package has been found!

================================================================================
                                       INPUT FILE
================================================================================
NAME = EPRII.inp
|  1> ! B3LYP EPR-II AUTOAUX
|  2> %pal nprocs 16 end
|  3> *XYZFile 0 2 opt.xyz
|  4> %EPRNMR
|  5>         GTENSOR   TRUE
|  6>         NUCLEI    = ALL H {SHIFT, AISO, ADIP, AORB}
|  7> END
|  8> 
|  9>                          ****END OF INPUT****
================================================================================

                       ****************************
                       * Single Point Calculation *
                       ****************************

---------------------------------
CARTESIAN COORDINATES (ANGSTROEM)
---------------------------------
  C     -4.058780   -0.114027   -0.000729
  C     -2.837067   -0.037217    0.000458
  C      2.839456    0.025128    0.001303
  C     -1.417730    0.016651    0.000204
  C     -0.712128    1.278604   -0.003269
  C      0.709687    1.211983   -0.002475
  C      1.411298    0.003549    0.000975
  C      0.702255   -1.241266    0.003983
  C     -0.691408   -1.190779    0.003621
  H      1.285445    2.137757   -0.004762
  H     -1.264663   -2.117693    0.006030
  C     -1.396749    2.512534   -0.007530
  H     -2.489374    2.477379   -0.008222
  C     -0.740034    3.860790   -0.011243
  H     -0.071952    3.959921    0.869257
  H     -0.065383    3.951892   -0.887544
  C     -1.737595    5.026485   -0.020436
  H     -2.392913    4.932401   -0.905600
  H     -2.399942    4.940503    0.860321
  C     -1.059047    6.397666   -0.024026
  H     -0.415065    6.523869   -0.911556
  H     -0.422198    6.532067    0.867440
  C      1.476339   -2.542840    0.007434
  H      2.155053   -2.543120   -0.866126
  H      2.153685   -2.539371    0.882056
  C      0.658132   -3.836796    0.009521
  H     -0.005723   -3.860159    0.893279
  H     -0.004355   -3.863766   -0.875166
  C      1.539543   -5.091841    0.012796
  H      2.206455   -5.070185   -0.869111
  H      2.204866   -5.066716    0.895810
  C      0.733887   -6.393511    0.014637
  H      0.084970   -6.463882   -0.875410
  H      0.082960   -6.460115    0.903504
  C      4.061356    0.051700    0.002498
  H     -1.799216    7.213950   -0.030767
  H      1.392930   -7.276874    0.017252
  C      5.489033    0.088671    0.002622
  C      6.175837    1.322543    0.001416
  C      7.570008    1.354492    0.001416
  C      8.304589    0.163225    0.002633
  C      7.634082   -1.065321    0.003864
  C      6.240226   -1.107100    0.003878
  H      9.396716    0.192185    0.002617
  H      8.202215   -1.998703    0.004810
  H      5.600673    2.250353    0.000473
  H      5.715229   -2.064211    0.004815
  H      8.088008    2.316597    0.000461
  C     -5.481361   -0.217167   -0.000792
  C     -6.291506    0.940362   -0.001962
  C     -7.681432    0.829777   -0.001873
  C     -8.291180   -0.430157   -0.000632
  C     -7.498648   -1.583951    0.000528
  C     -6.108081   -1.483701    0.000446
  H     -9.380565   -0.512687   -0.000545
  H     -7.968746   -2.570377    0.001498
  H     -5.815246    1.922629   -0.002861
  H     -5.488129   -2.382218    0.001345
  H     -8.294683    1.734189   -0.002759

----------------------------
CARTESIAN COORDINATES (A.U.)
----------------------------
  NO LB      ZA    FRAG     MASS         X           Y           Z
   0 C     6.0000    0    12.011   -7.669983   -0.215479   -0.001378
   1 C     6.0000    0    12.011   -5.361279   -0.070330    0.000865
   2 C     6.0000    0    12.011    5.365794    0.047486    0.002462
   3 C     6.0000    0    12.011   -2.679121    0.031465    0.000385
   4 C     6.0000    0    12.011   -1.345726    2.416212   -0.006177
   5 C     6.0000    0    12.011    1.341114    2.290315   -0.004677
   6 C     6.0000    0    12.011    2.666966    0.006706    0.001843
   7 C     6.0000    0    12.011    1.327070   -2.345653    0.007526
   8 C     6.0000    0    12.011   -1.306572   -2.250246    0.006843
   9 H     1.0000    0     1.008    2.429140    4.039775   -0.008998
  10 H     1.0000    0     1.008   -2.389867   -4.001860    0.011394
  11 C     6.0000    0    12.011   -2.639472    4.748001   -0.014229
  12 H     1.0000    0     1.008   -4.704235    4.681567   -0.015538
  13 C     6.0000    0    12.011   -1.398462    7.295835   -0.021246
  14 H     1.0000    0     1.008   -0.135969    7.483167    1.642658
  15 H     1.0000    0     1.008   -0.123556    7.467993   -1.677215
  16 C     6.0000    0    12.011   -3.283580    9.498680   -0.038619
  17 H     1.0000    0     1.008   -4.521951    9.320886   -1.711336
  18 H     1.0000    0     1.008   -4.535233    9.336197    1.625771
  19 C     6.0000    0    12.011   -2.001308   12.089837   -0.045402
  20 H     1.0000    0     1.008   -0.784360   12.328325   -1.722592
  21 H     1.0000    0     1.008   -0.797838   12.343818    1.639225
  22 C     6.0000    0    12.011    2.789877   -4.805272    0.014049
  23 H     1.0000    0     1.008    4.072461   -4.805801   -1.636741
  24 H     1.0000    0     1.008    4.069875   -4.798716    1.666845
  25 C     6.0000    0    12.011    1.243690   -7.250493    0.017991
  26 H     1.0000    0     1.008   -0.010815   -7.294643    1.688052
  27 H     1.0000    0     1.008   -0.008229   -7.301460   -1.653824
  28 C     6.0000    0    12.011    2.909315   -9.622185    0.024181
  29 H     1.0000    0     1.008    4.169596   -9.581262   -1.642383
  30 H     1.0000    0     1.008    4.166594   -9.574705    1.692836
  31 C     6.0000    0    12.011    1.386845  -12.081985    0.027659
  32 H     1.0000    0     1.008    0.160570  -12.214966   -1.654286
  33 H     1.0000    0     1.008    0.156772  -12.207847    1.707374
  34 C     6.0000    0    12.011    7.674851    0.097700    0.004721
  35 H     1.0000    0     1.008   -3.400025   13.632390   -0.058142
  36 H     1.0000    0     1.008    2.632257  -13.751299    0.032602
  37 C     6.0000    0    12.011   10.372770    0.167563    0.004955
  38 C     6.0000    0    12.011   11.670641    2.499244    0.002676
  39 C     6.0000    0    12.011   14.305241    2.559620    0.002675
  40 C     6.0000    0    12.011   15.693399    0.308451    0.004975
  41 C     6.0000    0    12.011   14.426324   -2.013166    0.007303
  42 C     6.0000    0    12.011   11.792319   -2.092115    0.007328
  43 H     1.0000    0     1.008   17.757221    0.363176    0.004945
  44 H     1.0000    0     1.008   15.499941   -3.777002    0.009089
  45 H     1.0000    0     1.008   10.583739    4.252552    0.000893
  46 H     1.0000    0     1.008   10.800217   -3.900793    0.009099
  47 H     1.0000    0     1.008   15.284121    4.377734    0.000870
  48 C     6.0000    0    12.011  -10.358271   -0.410386   -0.001496
  49 C     6.0000    0    12.011  -11.889224    1.777027   -0.003708
  50 C     6.0000    0    12.011  -14.515803    1.568051   -0.003539
  51 C     6.0000    0    12.011  -15.668060   -0.812879   -0.001194
  52 C     6.0000    0    12.011  -14.170391   -2.993233    0.000997
  53 C     6.0000    0    12.011  -11.542601   -2.803788    0.000842
  54 H     1.0000    0     1.008  -17.726698   -0.968838   -0.001030
  55 H     1.0000    0     1.008  -15.058748   -4.857308    0.002830
  56 H     1.0000    0     1.008  -10.989222    3.633242   -0.005406
  57 H     1.0000    0     1.008  -10.371061   -4.501739    0.002541
  58 H     1.0000    0     1.008  -15.674678    3.277142   -0.005214

--------------------------------
INTERNAL COORDINATES (ANGSTROEM)
--------------------------------
 C      0   0   0     0.000000000000     0.00000000     0.00000000
 C      1   0   0     1.224126443433     0.00000000     0.00000000
 C      2   1   0     5.676864868464   177.03140915     0.00000000
 C      2   1   3     1.420358645532   178.57449228     1.73877668
 C      4   2   1     1.445826295041   121.38448468   177.19897879
 C      5   4   2     1.423375089311   116.52816424   179.96755751
 C      6   5   4     1.397348470617   122.82193934     0.00000000
 C      7   6   5     1.432590108934   120.19523973     0.00000000
 C      8   7   6     1.394577932782   117.59088971     0.00000000
 H      6   5   4     1.090210974542   119.19545768   180.01422906
 H      9   8   7     1.089860605267   119.66011565   180.01068752
 C      5   4   2     1.411136367371   121.76633426   359.95363882
 H     12   5   4     1.093191043477   117.17994550     0.00000000
 C     12   5   4     1.499693772310   125.00739805   179.99730656
 H     14  12   5     1.109703449874   109.99741929   302.41126797
 H     14  12   5     1.109665334815   109.99854623    57.19641117
 C     14  12   5     1.534294192207   113.47464441   179.79919469
 H     17  14  12     1.105354381134   109.00143726   302.33343419
 H     17  14  12     1.105363751985   109.00917860    57.64935036
 C     17  14  12     1.529895164183   113.11544112   179.99404752
 H     20  17  14     1.103788857462   111.29232654    59.86593035
 H     20  17  14     1.103789630808   111.29292028   300.11999163
 C      8   7   6     1.514368915849   119.59327999   179.98817634
 H     23   8   7     1.106237105759   108.18168280   303.76792127
 H     23   8   7     1.106242671424   108.18500334    56.31132860
 C     23   8   7     1.530943263048   116.95250926   180.04297036
 H     26  23   8     1.105567017383   109.86877713   301.73860173
 H     26  23   8     1.105571084326   109.86361863    58.24894927
 C     26  23   8     1.533634617521   112.61356005   179.99322952
 H     29  26  23     1.105893774928   109.19947972   302.34296274
 H     29  26  23     1.105893380011   109.20043303    57.67897657
 C     29  26  23     1.530826384355   113.16490503   180.01103911
 H     32  29  26     1.103734026067   111.26385321    59.86765382
 H     32  29  26     1.103732869483   111.26351558   300.16286423
 C      3   2   1     1.222189708357   179.38164601   183.49857717
 H     20  17  14     1.101914546728   111.47092752   179.99208124
 H     32  29  26     1.102123076063   111.51983900   180.01536577
 C     35   3   7     1.428155937338   179.75699023   341.42766537
 C     38  35   3     1.412141095159   120.58474753    12.07271998
 C     39  38  35     1.394536324157   120.41417232   180.00598973
 C     40  39  38     1.399545890040   120.34679423     0.00000000
 C     41  40  39     1.399610286834   119.71592610     0.00000000
 C     42  41  40     1.394481562585   120.34131874     0.00000000
 H     41  40  39     1.092511090393   120.14065751   179.99930227
 H     42  41  40     1.092692925615   120.04735498   179.99952415
 H     39  38  35     1.091625860164   119.10319965     0.00000000
 H     43  42  41     1.091643012532   120.46259005   179.99862574
 H     40  39  38     1.092689774159   119.61095409   179.99912119
 C      1   2   4     1.426314715428   179.44811046     8.16152607
 C     49   1   2     1.412873063984   120.84104545   174.53750930
 C     50  49   1     1.394318111783   120.43886245   180.00675065
 C     51  50  49     1.399724353652   120.37375199     0.00000000
 C     52  51  50     1.399767398913   119.69036683     0.00000000
 C     53  52  51     1.394175906037   120.36137841     0.00000000
 H     52  51  50     1.092505904272   120.15711823   179.99875534
 H     53  52  51     1.092716544239   120.03421118   180.00008802
 H     50  49   1     1.091637733331   119.14533143     0.00000000
 H     54  53  52     1.091638126460   120.48110760   180.00024613
 H     51  50  49     1.092720314622   119.59084068   179.99831588

---------------------------
INTERNAL COORDINATES (A.U.)
---------------------------
 C      0   0   0     0.000000000000     0.00000000     0.00000000
 C      1   0   0     2.313263731380     0.00000000     0.00000000
 C      2   1   0    10.727719900675   177.03140915     0.00000000
 C      2   1   3     2.684088852002   178.57449228     1.73877668
 C      4   2   1     2.732215734849   121.38448468   177.19897879
 C      5   4   2     2.689789104643   116.52816424   179.96755751
 C      6   5   4     2.640605923120   122.82193934     0.00000000
 C      7   6   5     2.707202968050   120.19523973     0.00000000
 C      8   7   6     2.635370365368   117.59088971     0.00000000
 H      6   5   4     2.060200170080   119.19545768   180.01422906
 H      9   8   7     2.059538068105   119.66011565   180.01068752
 C      5   4   2     2.666661271947   121.76633426   359.95363882
 H     12   5   4     2.065831684227   117.17994550     0.00000000
 C     12   5   4     2.834010514413   125.00739805   179.99730656
 H     14  12   5     2.097035610129   109.99741929   302.41126797
 H     14  12   5     2.096963583106   109.99854623    57.19641117
 C     14  12   5     2.899395832138   113.47464441   179.79919469
 H     17  14  12     2.088817061272   109.00143726   302.33343419
 H     17  14  12     2.088834769616   109.00917860    57.64935036
 C     17  14  12     2.891082873916   113.11544112   179.99404752
 H     20  17  14     2.085858650278   111.29232654    59.86593035
 H     20  17  14     2.085860111689   111.29292028   300.11999163
 C      8   7   6     2.861742516678   119.59327999   179.98817634
 H     23   8   7     2.090485169067   108.18168280   303.76792127
 H     23   8   7     2.090495686648   108.18500334    56.31132860
 C     23   8   7     2.893063493732   116.95250926   180.04297036
 H     26  23   8     2.089218885550   109.86877713   301.73860173
 H     26  23   8     2.089226570958   109.86361863    58.24894927
 C     26  23   8     2.898149416616   112.61356005   179.99322952
 H     29  26  23     2.089836367821   109.19947972   302.34296274
 H     29  26  23     2.089835621537   109.20043303    57.67897657
 C     29  26  23     2.892842625012   113.16490503   180.01103911
 H     32  29  26     2.085755033957   111.26385321    59.86765382
 H     32  29  26     2.085752848329   111.26351558   300.16286423
 C      3   2   1     2.309603832492   179.38164601   183.49857717
 H     20  17  14     2.082316716301   111.47092752   179.99208124
 H     32  29  26     2.082710779633   111.51983900   180.01536577
 C     35   3   7     2.698823598102   179.75699023   341.42766537
 C     38  35   3     2.668559932306   120.58474753    12.07271998
 C     39  38  35     2.635291736462   120.41417232   180.00598973
 C     40  39  38     2.644758444031   120.34679423     0.00000000
 C     41  40  39     2.644880136334   119.71592610     0.00000000
 C     42  41  40     2.635188252089   120.34131874     0.00000000
 H     41  40  39     2.064546759115   120.14065751   179.99930227
 H     42  41  40     2.064890377885   120.04735498   179.99952415
 H     39  38  35     2.062873916416   119.10319965     0.00000000
 H     43  42  41     2.062906329695   120.46259005   179.99862574
 H     40  39  38     2.064884422496   119.61095409   179.99912119
 C      1   2   4     2.695344192940   179.44811046     8.16152607
 C     49   1   2     2.669943152924   120.84104545   174.53750930
 C     50  49   1     2.634879374836   120.43886245   180.00675065
 C     51  50  49     2.645095691381   120.37375199     0.00000000
 C     52  51  50     2.645177035137   119.69036683     0.00000000
 C     53  52  51     2.634610644921   120.36137841     0.00000000
 H     52  51  50     2.064536958766   120.15711823   179.99875534
 H     53  52  51     2.064935010616   120.03421118   180.00008802
 H     50  49   1     2.062896353451   119.14533143     0.00000000
 H     54  53  52     2.062897096356   120.48110760   180.00024613
 H     51  50  49     2.064942135608   119.59084068   179.99831588

---------------------
BASIS SET INFORMATION
---------------------
There are 2 groups of distinct atoms

 Group   1 Type C   : 10s5p1d contracted to 6s2p1d pattern {511111/41/1}
 Group   2 Type H   : 6s1p contracted to 4s1p pattern {3111/1}

Atom   0C    basis set group =>   1
Atom   1C    basis set group =>   1
Atom   2C    basis set group =>   1
Atom   3C    basis set group =>   1
Atom   4C    basis set group =>   1
Atom   5C    basis set group =>   1
Atom   6C    basis set group =>   1
Atom   7C    basis set group =>   1
Atom   8C    basis set group =>   1
Atom   9H    basis set group =>   2
Atom  10H    basis set group =>   2
Atom  11C    basis set group =>   1
Atom  12H    basis set group =>   2
Atom  13C    basis set group =>   1
Atom  14H    basis set group =>   2
Atom  15H    basis set group =>   2
Atom  16C    basis set group =>   1
Atom  17H    basis set group =>   2
Atom  18H    basis set group =>   2
Atom  19C    basis set group =>   1
Atom  20H    basis set group =>   2
Atom  21H    basis set group =>   2
Atom  22C    basis set group =>   1
Atom  23H    basis set group =>   2
Atom  24H    basis set group =>   2
Atom  25C    basis set group =>   1
Atom  26H    basis set group =>   2
Atom  27H    basis set group =>   2
Atom  28C    basis set group =>   1
Atom  29H    basis set group =>   2
Atom  30H    basis set group =>   2
Atom  31C    basis set group =>   1
Atom  32H    basis set group =>   2
Atom  33H    basis set group =>   2
Atom  34C    basis set group =>   1
Atom  35H    basis set group =>   2
Atom  36H    basis set group =>   2
Atom  37C    basis set group =>   1
Atom  38C    basis set group =>   1
Atom  39C    basis set group =>   1
Atom  40C    basis set group =>   1
Atom  41C    basis set group =>   1
Atom  42C    basis set group =>   1
Atom  43H    basis set group =>   2
Atom  44H    basis set group =>   2
Atom  45H    basis set group =>   2
Atom  46H    basis set group =>   2
Atom  47H    basis set group =>   2
Atom  48C    basis set group =>   1
Atom  49C    basis set group =>   1
Atom  50C    basis set group =>   1
Atom  51C    basis set group =>   1
Atom  52C    basis set group =>   1
Atom  53C    basis set group =>   1
Atom  54H    basis set group =>   2
Atom  55H    basis set group =>   2
Atom  56H    basis set group =>   2
Atom  57H    basis set group =>   2
Atom  58H    basis set group =>   2
---------------------------------
AUXILIARY/J BASIS SET INFORMATION
---------------------------------
There are 2 groups of distinct atoms

 Group   1 Type C   : 17s13p12d2f contracted to 17s13p12d2f pattern {11111111111111111/1111111111111/111111111111/11}
 Group   2 Type H   : 15s6p1d contracted to 15s6p1d pattern {111111111111111/111111/1}

Atom   0C    basis set group =>   1
Atom   1C    basis set group =>   1
Atom   2C    basis set group =>   1
Atom   3C    basis set group =>   1
Atom   4C    basis set group =>   1
Atom   5C    basis set group =>   1
Atom   6C    basis set group =>   1
Atom   7C    basis set group =>   1
Atom   8C    basis set group =>   1
Atom   9H    basis set group =>   2
Atom  10H    basis set group =>   2
Atom  11C    basis set group =>   1
Atom  12H    basis set group =>   2
Atom  13C    basis set group =>   1
Atom  14H    basis set group =>   2
Atom  15H    basis set group =>   2
Atom  16C    basis set group =>   1
Atom  17H    basis set group =>   2
Atom  18H    basis set group =>   2
Atom  19C    basis set group =>   1
Atom  20H    basis set group =>   2
Atom  21H    basis set group =>   2
Atom  22C    basis set group =>   1
Atom  23H    basis set group =>   2
Atom  24H    basis set group =>   2
Atom  25C    basis set group =>   1
Atom  26H    basis set group =>   2
Atom  27H    basis set group =>   2
Atom  28C    basis set group =>   1
Atom  29H    basis set group =>   2
Atom  30H    basis set group =>   2
Atom  31C    basis set group =>   1
Atom  32H    basis set group =>   2
Atom  33H    basis set group =>   2
Atom  34C    basis set group =>   1
Atom  35H    basis set group =>   2
Atom  36H    basis set group =>   2
Atom  37C    basis set group =>   1
Atom  38C    basis set group =>   1
Atom  39C    basis set group =>   1
Atom  40C    basis set group =>   1
Atom  41C    basis set group =>   1
Atom  42C    basis set group =>   1
Atom  43H    basis set group =>   2
Atom  44H    basis set group =>   2
Atom  45H    basis set group =>   2
Atom  46H    basis set group =>   2
Atom  47H    basis set group =>   2
Atom  48C    basis set group =>   1
Atom  49C    basis set group =>   1
Atom  50C    basis set group =>   1
Atom  51C    basis set group =>   1
Atom  52C    basis set group =>   1
Atom  53C    basis set group =>   1
Atom  54H    basis set group =>   2
Atom  55H    basis set group =>   2
Atom  56H    basis set group =>   2
Atom  57H    basis set group =>   2
Atom  58H    basis set group =>   2
---------------------------------
AUXILIARY/C BASIS SET INFORMATION
---------------------------------
There are 2 groups of distinct atoms

 Group   1 Type C   : 17s13p12d2f contracted to 17s13p12d2f pattern {11111111111111111/1111111111111/111111111111/11}
 Group   2 Type H   : 15s6p1d contracted to 15s6p1d pattern {111111111111111/111111/1}

Atom   0C    basis set group =>   1
Atom   1C    basis set group =>   1
Atom   2C    basis set group =>   1
Atom   3C    basis set group =>   1
Atom   4C    basis set group =>   1
Atom   5C    basis set group =>   1
Atom   6C    basis set group =>   1
Atom   7C    basis set group =>   1
Atom   8C    basis set group =>   1
Atom   9H    basis set group =>   2
Atom  10H    basis set group =>   2
Atom  11C    basis set group =>   1
Atom  12H    basis set group =>   2
Atom  13C    basis set group =>   1
Atom  14H    basis set group =>   2
Atom  15H    basis set group =>   2
Atom  16C    basis set group =>   1
Atom  17H    basis set group =>   2
Atom  18H    basis set group =>   2
Atom  19C    basis set group =>   1
Atom  20H    basis set group =>   2
Atom  21H    basis set group =>   2
Atom  22C    basis set group =>   1
Atom  23H    basis set group =>   2
Atom  24H    basis set group =>   2
Atom  25C    basis set group =>   1
Atom  26H    basis set group =>   2
Atom  27H    basis set group =>   2
Atom  28C    basis set group =>   1
Atom  29H    basis set group =>   2
Atom  30H    basis set group =>   2
Atom  31C    basis set group =>   1
Atom  32H    basis set group =>   2
Atom  33H    basis set group =>   2
Atom  34C    basis set group =>   1
Atom  35H    basis set group =>   2
Atom  36H    basis set group =>   2
Atom  37C    basis set group =>   1
Atom  38C    basis set group =>   1
Atom  39C    basis set group =>   1
Atom  40C    basis set group =>   1
Atom  41C    basis set group =>   1
Atom  42C    basis set group =>   1
Atom  43H    basis set group =>   2
Atom  44H    basis set group =>   2
Atom  45H    basis set group =>   2
Atom  46H    basis set group =>   2
Atom  47H    basis set group =>   2
Atom  48C    basis set group =>   1
Atom  49C    basis set group =>   1
Atom  50C    basis set group =>   1
Atom  51C    basis set group =>   1
Atom  52C    basis set group =>   1
Atom  53C    basis set group =>   1
Atom  54H    basis set group =>   2
Atom  55H    basis set group =>   2
Atom  56H    basis set group =>   2
Atom  57H    basis set group =>   2
Atom  58H    basis set group =>   2
----------------------------------
AUXILIARY/JK BASIS SET INFORMATION
----------------------------------
There are 2 groups of distinct atoms

 Group   1 Type C   : 17s13p12d2f contracted to 17s13p12d2f pattern {11111111111111111/1111111111111/111111111111/11}
 Group   2 Type H   : 15s6p1d contracted to 15s6p1d pattern {111111111111111/111111/1}

Atom   0C    basis set group =>   1
Atom   1C    basis set group =>   1
Atom   2C    basis set group =>   1
Atom   3C    basis set group =>   1
Atom   4C    basis set group =>   1
Atom   5C    basis set group =>   1
Atom   6C    basis set group =>   1
Atom   7C    basis set group =>   1
Atom   8C    basis set group =>   1
Atom   9H    basis set group =>   2
Atom  10H    basis set group =>   2
Atom  11C    basis set group =>   1
Atom  12H    basis set group =>   2
Atom  13C    basis set group =>   1
Atom  14H    basis set group =>   2
Atom  15H    basis set group =>   2
Atom  16C    basis set group =>   1
Atom  17H    basis set group =>   2
Atom  18H    basis set group =>   2
Atom  19C    basis set group =>   1
Atom  20H    basis set group =>   2
Atom  21H    basis set group =>   2
Atom  22C    basis set group =>   1
Atom  23H    basis set group =>   2
Atom  24H    basis set group =>   2
Atom  25C    basis set group =>   1
Atom  26H    basis set group =>   2
Atom  27H    basis set group =>   2
Atom  28C    basis set group =>   1
Atom  29H    basis set group =>   2
Atom  30H    basis set group =>   2
Atom  31C    basis set group =>   1
Atom  32H    basis set group =>   2
Atom  33H    basis set group =>   2
Atom  34C    basis set group =>   1
Atom  35H    basis set group =>   2
Atom  36H    basis set group =>   2
Atom  37C    basis set group =>   1
Atom  38C    basis set group =>   1
Atom  39C    basis set group =>   1
Atom  40C    basis set group =>   1
Atom  41C    basis set group =>   1
Atom  42C    basis set group =>   1
Atom  43H    basis set group =>   2
Atom  44H    basis set group =>   2
Atom  45H    basis set group =>   2
Atom  46H    basis set group =>   2
Atom  47H    basis set group =>   2
Atom  48C    basis set group =>   1
Atom  49C    basis set group =>   1
Atom  50C    basis set group =>   1
Atom  51C    basis set group =>   1
Atom  52C    basis set group =>   1
Atom  53C    basis set group =>   1
Atom  54H    basis set group =>   2
Atom  55H    basis set group =>   2
Atom  56H    basis set group =>   2
Atom  57H    basis set group =>   2
Atom  58H    basis set group =>   2

Checking for AutoStart:
The File: EPRII.gbw exists
Trying to determine its content:
     ... Fine, the file contains calculation information
     ... Fine, the calculation information was read
     ... Fine, the file contains a basis set
     ... Fine, the basis set was read
     ... Fine, the file contains a geometry
     ... Fine, the geometry was read
     ... Fine, the file contains a set of orbitals
     ... Fine, the orbitals can be read
     => possible old guess file was deleted
     => GBW file was renamed to GES file
     => GES file is set as startup file
     => Guess is set to MORead
     ... now leaving AutoStart



           ************************************************************
           *        Program running with 16 parallel MPI-processes    *
           *              working on a common directory               *
           ************************************************************
------------------------------------------------------------------------------
                           ORCA GTO INTEGRAL CALCULATION
                           -- RI-GTO INTEGRALS CHOSEN --
------------------------------------------------------------------------------
------------------------------------------------------------------------------
                   ___                                                        
                  /   \      - P O W E R E D   B Y -                         
                 /     \                                                     
                 |  |  |   _    _      __       _____    __    __             
                 |  |  |  | |  | |    /  \     |  _  \  |  |  /  |          
                  \  \/   | |  | |   /    \    | | | |  |  | /  /          
                 / \  \   | |__| |  /  /\  \   | |_| |  |  |/  /          
                |  |  |   |  __  | /  /__\  \  |    /   |      \           
                |  |  |   | |  | | |   __   |  |    \   |  |\   \          
                \     /   | |  | | |  |  |  |  | |\  \  |  | \   \       
                 \___/    |_|  |_| |__|  |__|  |_| \__\ |__|  \__/        
                                                                              
                      - O R C A' S   B I G   F R I E N D -                    
                                      &                                       
                       - I N T E G R A L  F E E D E R -                       
                                                                              
 v1 FN, 2020, v2 2021                                                         
------------------------------------------------------------------------------


Reading SHARK input file EPRII.SHARKINP.tmp ... ok
----------------------
SHARK INTEGRAL PACKAGE
----------------------

Number of atoms                             ...     59
Number of basis functions                   ...    713
Number of shells                            ...    415
Maximum angular momentum                    ...      2
Integral batch strategy                     ... SHARK/LIBINT Hybrid
RI-J (if used) integral strategy            ... SPLIT-RIJ (Revised 2003 algorithm where possible)
Printlevel                                  ...      1
Contraction scheme used                     ... SEGMENTED contraction
Coulomb Range Separation                    ... NOT USED
Exchange Range Separation                   ... NOT USED
Finite Nucleus Model                        ... NOT USED
Auxiliary Coulomb fitting basis             ... AVAILABLE
   # of basis functions in Aux-J            ...   5002
   # of shells in Aux-J                     ...   1958
   Maximum angular momentum in Aux-J        ...      3
Auxiliary J/K fitting basis                 ... AVAILABLE
   # of basis functions in Aux-JK           ...   5002
   # of shells in Aux-JK                    ...   1958
   Maximum angular momentum in Aux-JK       ...      3
Auxiliary Correlation fitting basis         ... AVAILABLE
   # of basis functions in Aux-C            ...   5002
   # of shells in Aux-C                     ...   1958
   Maximum angular momentum in Aux-C        ...      3
Auxiliary 'external' fitting basis          ... NOT available
Integral threshold                          ...     1.000000e-10
Primitive cut-off                           ...     1.000000e-11
Primitive pair pre-selection threshold      ...     1.000000e-11

Calculating pre-screening integrals         ... done (  0.0 sec) Dimension = 415
Organizing shell pair data                  ... done (  0.3 sec)
Shell pair information
Total number of shell pairs                 ...     86320
Shell pairs after pre-screening             ...     38308
Total number of primitive shell pairs       ...    234153
Primitive shell pairs kept                  ...     71439
          la=0 lb=0:  17569 shell pairs
          la=1 lb=0:  13142 shell pairs
          la=1 lb=1:   2394 shell pairs
          la=2 lb=0:   3616 shell pairs
          la=2 lb=1:   1382 shell pairs
          la=2 lb=2:    205 shell pairs

Calculating one electron integrals          ... done (  0.1 sec)
Calculating RI/J V-Matrix + Cholesky decomp.... done (  1.5 sec)
Calculating RI/JK V-Matrix + Cholesky decomp... done (  1.4 sec)
Calculating RI/C V-Matrix + Cholesky decomp.... done (  1.4 sec)
Calculating Nuclear repulsion               ... done (  0.0 sec) ENN=   2363.850750878803 Eh

SHARK setup successfully completed in   5.2 seconds

Maximum memory used throughout the entire GTOINT-calculation: 82.4 MB


           ************************************************************
           *        Program running with 16 parallel MPI-processes    *
           *              working on a common directory               *
           ************************************************************
-------------------------------------------------------------------------------
                                 ORCA SCF
-------------------------------------------------------------------------------

------------
SCF SETTINGS
------------
Hamiltonian:
 Density Functional     Method          .... DFT(GTOs)
 Exchange Functional    Exchange        .... B88
   X-Alpha parameter    XAlpha          ....  0.666667
   Becke's b parameter  XBeta           ....  0.004200
 Correlation Functional Correlation     .... LYP
 LDA part of GGA corr.  LDAOpt          .... VWN-5
 Gradients option       PostSCFGGA      .... off
 Hybrid DFT is turned on
   Fraction HF Exchange ScalHFX         ....  0.200000
   Scaling of DF-GGA-X  ScalDFX         ....  0.720000
   Scaling of DF-GGA-C  ScalDFC         ....  0.810000
   Scaling of DF-LDA-C  ScalLDAC        ....  1.000000
   Perturbative correction              ....  0.000000
   Density functional embedding theory  .... OFF
   NL short-range parameter             ....  4.800000
 RI-approximation to the Coulomb term is turned on
   Number of AuxJ basis functions       .... 5002
   RIJ-COSX (HFX calculated with COS-X)).... on


General Settings:
 Integral files         IntName         .... EPRII
 Hartree-Fock type      HFTyp           .... UHF
 Total Charge           Charge          ....    0
 Multiplicity           Mult            ....    2
 Number of Electrons    NEL             ....  209
 Basis Dimension        Dim             ....  713
 Nuclear Repulsion      ENuc            ....   2363.8507508788 Eh

Convergence Acceleration:
 DIIS                   CNVDIIS         .... on
   Start iteration      DIISMaxIt       ....    12
   Startup error        DIISStart       ....  0.200000
   # of expansion vecs  DIISMaxEq       ....     5
   Bias factor          DIISBfac        ....   1.050
   Max. coefficient     DIISMaxC        ....  10.000
 Trust-Rad. Augm. Hess. CNVTRAH         .... auto
   Auto Start mean grad. ratio tolernc. ....  1.125000
   Auto Start start iteration           ....     1
   Auto Start num. interpolation iter.  ....    10
   Max. Number of Micro iterations      ....    16
   Max. Number of Macro iterations      .... Maxiter - #DIIS iter
   Number of Davidson start vectors     ....     2
   Converg. threshold I  (grad. norm)   ....   5.000e-05
   Converg. threshold II (energy diff.) ....   1.000e-06
   Grad. Scal. Fac. for Micro threshold ....   0.100
   Minimum threshold for Micro iter.    ....   0.010
   NR start threshold (gradient norm)   ....   0.001
   Initial trust radius                 ....   0.400
   Minimum AH scaling param. (alpha)    ....   1.000
   Maximum AH scaling param. (alpha)    .... 1000.000
   Orbital update algorithm             .... Taylor
   White noise on init. David. guess    .... on
   Maximum white noise                  ....   0.010
   Quad. conv. algorithm                .... NR
 SOSCF                  CNVSOSCF        .... off
 Level Shifting         CNVShift        .... on
   Level shift para.    LevelShift      ....    0.2500
   Turn off err/grad.   ShiftErr        ....    0.0010
 Zerner damping         CNVZerner       .... off
 Static damping         CNVDamp         .... on
   Fraction old density DampFac         ....    0.7000
   Max. Damping (<1)    DampMax         ....    0.9800
   Min. Damping (>=0)   DampMin         ....    0.0000
   Turn off err/grad.   DampErr         ....    0.1000
 Fernandez-Rico         CNVRico         .... off

SCF Procedure:
 Maximum # iterations   MaxIter         ....   125
 SCF integral mode      SCFMode         .... Direct
   Integral package                     .... SHARK and LIBINT hybrid scheme
 Reset frequency        DirectResetFreq ....    20
 Integral Threshold     Thresh          ....  1.000e-10 Eh
 Primitive CutOff       TCut            ....  1.000e-11 Eh

Convergence Tolerance:
 Convergence Check Mode ConvCheckMode   .... Total+1el-Energy
 Convergence forced     ConvForced      .... 0
 Energy Change          TolE            ....  1.000e-06 Eh
 1-El. energy change                    ....  1.000e-03 Eh
 DIIS Error             TolErr          ....  1.000e-06


Diagonalization of the overlap matrix:
Smallest eigenvalue                        ... 4.840e-05
Time for diagonalization                   ...    0.104 sec
Threshold for overlap eigenvalues          ... 1.000e-08
Number of eigenvalues below threshold      ... 0
Time for construction of square roots      ...    0.088 sec
Total time needed                          ...    0.194 sec

---------------------
INITIAL GUESS: MOREAD
---------------------
Guess MOs are being read from file: EPRII.ges
Input Geometry matches current geometry (good)
Input basis set matches current basis set (good)
MOs were renormalized
MOs were reorthogonalized (Cholesky)
                      ------------------
                      INITIAL GUESS DONE (   0.5 sec)
                      ------------------
-------------------
DFT GRID GENERATION
-------------------

General Integration Accuracy     IntAcc      ... 4.388
Radial Grid Type                 RadialGrid  ... OptM3 with GC (2021)
Angular Grid (max. ang.)         AngularGrid ... 4 (Lebedev-302)
Angular grid pruning method      GridPruning ... 4 (adaptive)
Weight generation scheme         WeightScheme... Becke
Basis function cutoff            BFCut       ... 1.0000e-10
Integration weight cutoff        WCut        ... 1.0000e-14
Angular grids for H and He will be reduced by one unit
Partially contracted basis set               ... off
Rotationally invariant grid construction     ... off

Total number of grid points                  ...   271672
Total number of batches                      ...     4271
Average number of points per batch           ...       63
Average number of grid points per atom       ...     4605
Time for grid setup =    1.751 sec

--------------------
COSX GRID GENERATION
--------------------

GRIDX 1
-------
General Integration Accuracy     IntAcc      ... 3.816
Radial Grid Type                 RadialGrid  ... OptM3 with GC (2021)
Angular Grid (max. ang.)         AngularGrid ... 1 (Lebedev-50)
Angular grid pruning method      GridPruning ... 4 (adaptive)
Weight generation scheme         WeightScheme... Becke
Basis function cutoff            BFCut       ... 1.0000e-10
Integration weight cutoff        WCut        ... 1.0000e-14
Angular grids for H and He will be reduced by one unit
Partially contracted basis set               ... on
Rotationally invariant grid construction     ... off

Total number of grid points                  ...    34621
Total number of batches                      ...      570
Average number of points per batch           ...       60
Average number of grid points per atom       ...      587
UseSFitting                                  ... on

GRIDX 2
-------
General Integration Accuracy     IntAcc      ... 4.020
Radial Grid Type                 RadialGrid  ... OptM3 with GC (2021)
Angular Grid (max. ang.)         AngularGrid ... 2 (Lebedev-110)
Angular grid pruning method      GridPruning ... 4 (adaptive)
Weight generation scheme         WeightScheme... Becke
Basis function cutoff            BFCut       ... 1.0000e-10
Integration weight cutoff        WCut        ... 1.0000e-14
Angular grids for H and He will be reduced by one unit
Partially contracted basis set               ... on
Rotationally invariant grid construction     ... off

Total number of grid points                  ...    73987
Total number of batches                      ...     1188
Average number of points per batch           ...       62
Average number of grid points per atom       ...     1254
UseSFitting                                  ... on

GRIDX 3
-------
General Integration Accuracy     IntAcc      ... 4.338
Radial Grid Type                 RadialGrid  ... OptM3 with GC (2021)
Angular Grid (max. ang.)         AngularGrid ... 3 (Lebedev-194)
Angular grid pruning method      GridPruning ... 4 (adaptive)
Weight generation scheme         WeightScheme... Becke
Basis function cutoff            BFCut       ... 1.0000e-10
Integration weight cutoff        WCut        ... 1.0000e-14
Angular grids for H and He will be reduced by one unit
Partially contracted basis set               ... on
Rotationally invariant grid construction     ... off

Total number of grid points                  ...   161745
Total number of batches                      ...     2559
Average number of points per batch           ...       63
Average number of grid points per atom       ...     2741
UseSFitting                                  ... on

Time for X-Grid setup             =    3.057 sec

--------------
SCF ITERATIONS
--------------
ITER       Energy         Delta-E        Max-DP      RMS-DP      [F,P]     Damp
               ***  Starting incremental Fock matrix formation  ***
  0  -1159.9156549008   0.000000000000 0.00075649  0.00000334  0.0008818 0.7000
  1  -1159.9156589447  -0.000004043884 0.00075675  0.00000279  0.0003706 0.7000
                               ***Turning on DIIS***
                 **** Energy Check signals convergence ****

               *****************************************************
               *                     SUCCESS                       *
               *           SCF CONVERGED AFTER   2 CYCLES          *
               *****************************************************

Old exchange energy                            =    -33.105103049 Eh
New exchange energy                            =    -33.105123852 Eh
Exchange energy change after final integration =     -0.000020803 Eh
Total energy after final integration           =  -1159.915680581 Eh
Final COS-X integration done in                =    15.061 sec

----------------
TOTAL SCF ENERGY
----------------

Total Energy       :        -1159.91568058 Eh          -31562.91030 eV

Components:
Nuclear Repulsion  :         2363.85075088 Eh           64323.64908 eV
Electronic Energy  :        -3523.76643146 Eh          -95886.55938 eV
One Electron Energy:        -6262.43505331 Eh         -170409.52125 eV
Two Electron Energy:         2738.66862185 Eh           74522.96187 eV
Max COSX asymmetry :            0.00000342 Eh               0.00009 eV

Virial components:
Potential Energy   :        -2310.57472122 Eh          -62873.93461 eV
Kinetic Energy     :         1150.65904064 Eh           31311.02432 eV
Virial Ratio       :            2.00804464


DFT components:
N(Alpha)           :      105.000181422777 electrons
N(Beta)            :      104.000170912639 electrons
N(Total)           :      209.000352335416 electrons
E(X)               :     -131.350459304865 Eh       
E(C)               :       -8.162759620908 Eh       
E(XC)              :     -139.513218925772 Eh       
DFET-embed. en.    :        0.000000000000 Eh       

---------------
SCF CONVERGENCE
---------------

  Last Energy change         ...   -8.3358e-07  Tolerance :   1.0000e-06
  Last MAX-Density change    ...    0.0000e+00  Tolerance :   1.0000e-05
  Last RMS-Density change    ...    0.0000e+00  Tolerance :   1.0000e-06
  Last DIIS Error            ...    1.8397e-04  Tolerance :   1.0000e-06

             **** THE GBW FILE WAS UPDATED (EPRII.gbw) ****
             **** DENSITY EPRII.scfp WAS UPDATED ****
             **** ENERGY FILE WAS UPDATED (EPRII.en.tmp) ****
----------------------
UHF SPIN CONTAMINATION
----------------------

Warning: in a DFT calculation there is little theoretical justification to 
         calculate <S**2> as in Hartree-Fock theory. We will do it anyways
         but you should keep in mind that the values have only limited relevance

Expectation value of <S**2>     :     0.786869
Ideal value S*(S+1) for S=0.5   :     0.750000
Deviation                       :     0.036869

             **** THE GBW FILE WAS UPDATED (EPRII.gbw) ****
             **** DENSITY EPRII.scfp WAS UPDATED ****
----------------
ORBITAL ENERGIES
----------------
                 SPIN UP ORBITALS
  NO   OCC          E(Eh)            E(eV) 
   0   1.0000     -10.227397      -278.3016 
   1   1.0000     -10.225312      -278.2449 
   2   1.0000     -10.222068      -278.1566 
   3   1.0000     -10.219707      -278.0924 
   4   1.0000     -10.209167      -277.8056 
   5   1.0000     -10.206611      -277.7360 
   6   1.0000     -10.204948      -277.6908 
   7   1.0000     -10.204830      -277.6875 
   8   1.0000     -10.204384      -277.6754 
   9   1.0000     -10.203731      -277.6576 
  10   1.0000     -10.203544      -277.6526 
  11   1.0000     -10.203511      -277.6516 
  12   1.0000     -10.203251      -277.6446 
  13   1.0000     -10.203071      -277.6397 
  14   1.0000     -10.202278      -277.6181 
  15   1.0000     -10.202073      -277.6125 
  16   1.0000     -10.201176      -277.5881 
  17   1.0000     -10.200094      -277.5587 
  18   1.0000     -10.199467      -277.5416 
  19   1.0000     -10.198880      -277.5256 
  20   1.0000     -10.197881      -277.4985 
  21   1.0000     -10.196898      -277.4717 
  22   1.0000     -10.194590      -277.4089 
  23   1.0000     -10.189210      -277.2625 
  24   1.0000     -10.186981      -277.2019 
  25   1.0000     -10.184877      -277.1446 
  26   1.0000     -10.182304      -277.0746 
  27   1.0000     -10.181773      -277.0601 
  28   1.0000     -10.175014      -276.8762 
  29   1.0000     -10.173148      -276.8254 
  30   1.0000      -0.871666       -23.7192 
  31   1.0000      -0.862921       -23.4813 
  32   1.0000      -0.861442       -23.4410 
  33   1.0000      -0.818046       -22.2602 
  34   1.0000      -0.798233       -21.7210 
  35   1.0000      -0.794356       -21.6155 
  36   1.0000      -0.782174       -21.2840 
  37   1.0000      -0.772499       -21.0208 
  38   1.0000      -0.764762       -20.8102 
  39   1.0000      -0.750920       -20.4336 
  40   1.0000      -0.749621       -20.3982 
  41   1.0000      -0.737388       -20.0653 
  42   1.0000      -0.725620       -19.7451 
  43   1.0000      -0.709688       -19.3116 
  44   1.0000      -0.695556       -18.9270 
  45   1.0000      -0.654963       -17.8225 
  46   1.0000      -0.646128       -17.5820 
  47   1.0000      -0.623318       -16.9613 
  48   1.0000      -0.612605       -16.6698 
  49   1.0000      -0.609383       -16.5822 
  50   1.0000      -0.608888       -16.5687 
  51   1.0000      -0.607789       -16.5388 
  52   1.0000      -0.589811       -16.0496 
  53   1.0000      -0.578827       -15.7507 
  54   1.0000      -0.560272       -15.2458 
  55   1.0000      -0.541376       -14.7316 
  56   1.0000      -0.535688       -14.5768 
  57   1.0000      -0.506506       -13.7827 
  58   1.0000      -0.503952       -13.7132 
  59   1.0000      -0.480853       -13.0847 
  60   1.0000      -0.478811       -13.0291 
  61   1.0000      -0.474779       -12.9194 
  62   1.0000      -0.469846       -12.7851 
  63   1.0000      -0.461976       -12.5710 
  64   1.0000      -0.456820       -12.4307 
  65   1.0000      -0.455268       -12.3885 
  66   1.0000      -0.437482       -11.9045 
  67   1.0000      -0.435719       -11.8565 
  68   1.0000      -0.430209       -11.7066 
  69   1.0000      -0.427953       -11.6452 
  70   1.0000      -0.425197       -11.5702 
  71   1.0000      -0.424884       -11.5617 
  72   1.0000      -0.423678       -11.5289 
  73   1.0000      -0.421123       -11.4593 
  74   1.0000      -0.410680       -11.1752 
  75   1.0000      -0.397903       -10.8275 
  76   1.0000      -0.396794       -10.7973 
  77   1.0000      -0.383722       -10.4416 
  78   1.0000      -0.380903       -10.3649 
  79   1.0000      -0.377297       -10.2668 
  80   1.0000      -0.374234       -10.1834 
  81   1.0000      -0.363972        -9.9042 
  82   1.0000      -0.362307        -9.8589 
  83   1.0000      -0.360616        -9.8129 
  84   1.0000      -0.355268        -9.6673 
  85   1.0000      -0.353101        -9.6084 
  86   1.0000      -0.351457        -9.5636 
  87   1.0000      -0.350045        -9.5252 
  88   1.0000      -0.338917        -9.2224 
  89   1.0000      -0.331949        -9.0328 
  90   1.0000      -0.331839        -9.0298 
  91   1.0000      -0.330598        -8.9960 
  92   1.0000      -0.326577        -8.8866 
  93   1.0000      -0.322218        -8.7680 
  94   1.0000      -0.321009        -8.7351 
  95   1.0000      -0.305824        -8.3219 
  96   1.0000      -0.278313        -7.5733 
  97   1.0000      -0.271829        -7.3969 
  98   1.0000      -0.268509        -7.3065 
  99   1.0000      -0.266998        -7.2654 
 100   1.0000      -0.258734        -7.0405 
 101   1.0000      -0.257945        -7.0190 
 102   1.0000      -0.236483        -6.4350 
 103   1.0000      -0.208718        -5.6795 
 104   1.0000      -0.169708        -4.6180 
 105   0.0000      -0.065406        -1.7798 
 106   0.0000      -0.029582        -0.8050 
 107   0.0000      -0.013961        -0.3799 
 108   0.0000      -0.012932        -0.3519 
 109   0.0000       0.002227         0.0606 
 110   0.0000       0.014435         0.3928 
 111   0.0000       0.016065         0.4372 
 112   0.0000       0.017325         0.4714 
 113   0.0000       0.021470         0.5842 
 114   0.0000       0.025380         0.6906 
 115   0.0000       0.031695         0.8625 
 116   0.0000       0.036079         0.9817 
 117   0.0000       0.038416         1.0453 
 118   0.0000       0.042779         1.1641 
 119   0.0000       0.044268         1.2046 
 120   0.0000       0.048586         1.3221 
 121   0.0000       0.055260         1.5037 
 122   0.0000       0.056371         1.5339 
 123   0.0000       0.059730         1.6253 
 124   0.0000       0.064755         1.7621 
 125   0.0000       0.067305         1.8315 
 126   0.0000       0.072616         1.9760 
 127   0.0000       0.076725         2.0878 
 128   0.0000       0.079427         2.1613 
 129   0.0000       0.079651         2.1674 
 130   0.0000       0.090413         2.4603 
 131   0.0000       0.091815         2.4984 
 132   0.0000       0.092345         2.5128 
 133   0.0000       0.100121         2.7244 
 134   0.0000       0.112341         3.0570 
 135   0.0000       0.115952         3.1552 
 136   0.0000       0.122369         3.3298 
 137   0.0000       0.124579         3.3900 
 138   0.0000       0.131422         3.5762 
 139   0.0000       0.137791         3.7495 
 140   0.0000       0.144696         3.9374 
 141   0.0000       0.156063         4.2467 
 142   0.0000       0.160672         4.3721 
 143   0.0000       0.162113         4.4113 
 144   0.0000       0.171638         4.6705 
 145   0.0000       0.174771         4.7558 
 146   0.0000       0.176973         4.8157 
 147   0.0000       0.183378         4.9900 
 148   0.0000       0.184177         5.0117 
 149   0.0000       0.192530         5.2390 
 150   0.0000       0.196211         5.3392 
 151   0.0000       0.198374         5.3980 
 152   0.0000       0.200520         5.4564 
 153   0.0000       0.202891         5.5210 
 154   0.0000       0.202989         5.5236 
 155   0.0000       0.206394         5.6163 
 156   0.0000       0.216098         5.8803 
 157   0.0000       0.216301         5.8859 
 158   0.0000       0.218533         5.9466 
 159   0.0000       0.220364         5.9964 
 160   0.0000       0.224201         6.1008 
 161   0.0000       0.226833         6.1724 
 162   0.0000       0.227336         6.1861 
 163   0.0000       0.236887         6.4460 
 164   0.0000       0.239833         6.5262 
 165   0.0000       0.244194         6.6449 
 166   0.0000       0.245432         6.6786 
 167   0.0000       0.248845         6.7714 
 168   0.0000       0.252500         6.8709 
 169   0.0000       0.252718         6.8768 
 170   0.0000       0.254824         6.9341 
 171   0.0000       0.258222         7.0266 
 172   0.0000       0.263798         7.1783 
 173   0.0000       0.267655         7.2833 
 174   0.0000       0.267995         7.2925 
 175   0.0000       0.276513         7.5243 
 176   0.0000       0.276757         7.5310 
 177   0.0000       0.277705         7.5567 
 178   0.0000       0.280489         7.6325 
 179   0.0000       0.282007         7.6738 
 180   0.0000       0.284634         7.7453 
 181   0.0000       0.287321         7.8184 
 182   0.0000       0.292389         7.9563 
 183   0.0000       0.293016         7.9734 
 184   0.0000       0.294853         8.0234 
 185   0.0000       0.296505         8.0683 
 186   0.0000       0.299920         8.1612 
 187   0.0000       0.304655         8.2901 
 188   0.0000       0.306413         8.3379 
 189   0.0000       0.309337         8.4175 
 190   0.0000       0.310560         8.4508 
 191   0.0000       0.312283         8.4977 
 192   0.0000       0.314142         8.5483 
 193   0.0000       0.315360         8.5814 
 194   0.0000       0.317679         8.6445 
 195   0.0000       0.319340         8.6897 
 196   0.0000       0.320637         8.7250 
 197   0.0000       0.323774         8.8103 
 198   0.0000       0.326010         8.8712 
 199   0.0000       0.329232         8.9589 
 200   0.0000       0.333870         9.0851 
 201   0.0000       0.335641         9.1333 
 202   0.0000       0.338326         9.2063 
 203   0.0000       0.343794         9.3551 
 204   0.0000       0.345297         9.3960 
 205   0.0000       0.346990         9.4421 
 206   0.0000       0.348833         9.4922 
 207   0.0000       0.352166         9.5829 
 208   0.0000       0.356943         9.7129 
 209   0.0000       0.363650         9.8954 
 210   0.0000       0.369948        10.0668 
 211   0.0000       0.372921        10.1477 
 212   0.0000       0.374175        10.1818 
 213   0.0000       0.378880        10.3098 
 214   0.0000       0.379979        10.3398 
 215   0.0000       0.389949        10.6110 
 216   0.0000       0.398736        10.8502 
 217   0.0000       0.399223        10.8634 
 218   0.0000       0.405000        11.0206 
 219   0.0000       0.408876        11.1261 
 220   0.0000       0.412510        11.2250 
 221   0.0000       0.415463        11.3053 
 222   0.0000       0.417701        11.3662 
 223   0.0000       0.422801        11.5050 
 224   0.0000       0.423373        11.5206 
 225   0.0000       0.426348        11.6015 
 226   0.0000       0.430540        11.7156 
 227   0.0000       0.431214        11.7339 
 228   0.0000       0.431246        11.7348 
 229   0.0000       0.436080        11.8663 
 230   0.0000       0.442590        12.0435 
 231   0.0000       0.447840        12.1863 
 232   0.0000       0.451881        12.2963 
 233   0.0000       0.452306        12.3079 
 234   0.0000       0.455144        12.3851 
 235   0.0000       0.458866        12.4864 
 236   0.0000       0.460867        12.5408 
 237   0.0000       0.464568        12.6415 
 238   0.0000       0.470756        12.8099 
 239   0.0000       0.472052        12.8452 
 240   0.0000       0.474355        12.9079 
 241   0.0000       0.475565        12.9408 
 242   0.0000       0.483815        13.1653 
 243   0.0000       0.484586        13.1863 
 244   0.0000       0.484926        13.1955 
 245   0.0000       0.491982        13.3875 
 246   0.0000       0.492793        13.4096 
 247   0.0000       0.503685        13.7060 
 248   0.0000       0.505776        13.7629 
 249   0.0000       0.508230        13.8296 
 250   0.0000       0.511810        13.9271 
 251   0.0000       0.516377        14.0513 
 252   0.0000       0.523193        14.2368 
 253   0.0000       0.531057        14.4508 
 254   0.0000       0.531424        14.4608 
 255   0.0000       0.534426        14.5425 
 256   0.0000       0.537412        14.6237 
 257   0.0000       0.539196        14.6723 
 258   0.0000       0.549694        14.9579 
 259   0.0000       0.554083        15.0774 
 260   0.0000       0.561227        15.2718 
 261   0.0000       0.562633        15.3100 
 262   0.0000       0.563866        15.3436 
 263   0.0000       0.577813        15.7231 
 264   0.0000       0.579672        15.7737 
 265   0.0000       0.587942        15.9987 
 266   0.0000       0.590364        16.0646 
 267   0.0000       0.597560        16.2604 
 268   0.0000       0.599364        16.3095 
 269   0.0000       0.607737        16.5374 
 270   0.0000       0.621194        16.9035 
 271   0.0000       0.625152        17.0112 
 272   0.0000       0.635115        17.2824 
 273   0.0000       0.642840        17.4926 
 274   0.0000       0.643039        17.4980 
 275   0.0000       0.653090        17.7715 
 276   0.0000       0.658963        17.9313 
 277   0.0000       0.661195        17.9920 
 278   0.0000       0.668755        18.1978 
 279   0.0000       0.670872        18.2553 
 280   0.0000       0.672713        18.3054 
 281   0.0000       0.675800        18.3895 
 282   0.0000       0.679515        18.4906 
 283   0.0000       0.686328        18.6759 
 284   0.0000       0.700313        19.0565 
 285   0.0000       0.707402        19.2494 
 286   0.0000       0.725167        19.7328 
 287   0.0000       0.728451        19.8222 
 288   0.0000       0.736969        20.0539 
 289   0.0000       0.761910        20.7326 
 290   0.0000       0.765934        20.8421 
 291   0.0000       0.770159        20.9571 
 292   0.0000       0.774052        21.0630 
 293   0.0000       0.791419        21.5356 
 294   0.0000       0.796353        21.6699 
 295   0.0000       0.809022        22.0146 
 296   0.0000       0.820038        22.3144 
 297   0.0000       0.834463        22.7069 
 298   0.0000       0.837253        22.7828 
 299   0.0000       0.839225        22.8365 
 300   0.0000       0.843133        22.9428 
 301   0.0000       0.849594        23.1186 
 302   0.0000       0.853495        23.2248 
 303   0.0000       0.856033        23.2939 
 304   0.0000       0.861679        23.4475 
 305   0.0000       0.865046        23.5391 
 306   0.0000       0.866100        23.5678 
 307   0.0000       0.870413        23.6851 
 308   0.0000       0.871305        23.7094 
 309   0.0000       0.884588        24.0709 
 310   0.0000       0.892039        24.2736 
 311   0.0000       0.896575        24.3970 
 312   0.0000       0.899755        24.4836 
 313   0.0000       0.902999        24.5719 
 314   0.0000       0.904265        24.6063 
 315   0.0000       0.912232        24.8231 
 316   0.0000       0.912331        24.8258 
 317   0.0000       0.915251        24.9052 
 318   0.0000       0.918579        24.9958 
 319   0.0000       0.926702        25.2168 
 320   0.0000       0.928627        25.2692 
 321   0.0000       0.931694        25.3527 
 322   0.0000       0.938142        25.5281 
 323   0.0000       0.939395        25.5622 
 324   0.0000       0.945609        25.7313 
 325   0.0000       0.949515        25.8376 
 326   0.0000       0.950634        25.8681 
 327   0.0000       0.961106        26.1530 
 328   0.0000       0.962187        26.1824 
 329   0.0000       0.966282        26.2939 
 330   0.0000       0.974475        26.5168 
 331   0.0000       0.977612        26.6022 
 332   0.0000       0.978605        26.6292 
 333   0.0000       0.981182        26.6993 
 334   0.0000       0.986139        26.8342 
 335   0.0000       0.991596        26.9827 
 336   0.0000       0.994955        27.0741 
 337   0.0000       0.997649        27.1474 
 338   0.0000       0.997818        27.1520 
 339   0.0000       0.999395        27.1949 
 340   0.0000       1.002048        27.2671 
 341   0.0000       1.003685        27.3117 
 342   0.0000       1.006064        27.3764 
 343   0.0000       1.008803        27.4509 
 344   0.0000       1.018195        27.7065 
 345   0.0000       1.025010        27.8919 
 346   0.0000       1.025405        27.9027 
 347   0.0000       1.026074        27.9209 
 348   0.0000       1.029039        28.0016 
 349   0.0000       1.030247        28.0344 
 350   0.0000       1.034218        28.1425 
 351   0.0000       1.042747        28.3746 
 352   0.0000       1.050442        28.5840 
 353   0.0000       1.059388        28.8274 
 354   0.0000       1.060574        28.8597 
 355   0.0000       1.060741        28.8642 
 356   0.0000       1.067757        29.0552 
 357   0.0000       1.071234        29.1497 
 358   0.0000       1.092291        29.7228 
 359   0.0000       1.094120        29.7725 
 360   0.0000       1.104902        30.0659 
 361   0.0000       1.106497        30.1093 
 362   0.0000       1.116030        30.3687 
 363   0.0000       1.117461        30.4077 
 364   0.0000       1.118681        30.4409 
 365   0.0000       1.130619        30.7657 
 366   0.0000       1.138371        30.9767 
 367   0.0000       1.141462        31.0607 
 368   0.0000       1.152120        31.3508 
 369   0.0000       1.153319        31.3834 
 370   0.0000       1.171130        31.8681 
 371   0.0000       1.173629        31.9361 
 372   0.0000       1.175487        31.9866 
 373   0.0000       1.180449        32.1217 
 374   0.0000       1.190281        32.3892 
 375   0.0000       1.191766        32.4296 
 376   0.0000       1.205155        32.7939 
 377   0.0000       1.207960        32.8703 
 378   0.0000       1.219555        33.1858 
 379   0.0000       1.227587        33.4043 
 380   0.0000       1.237803        33.6823 
 381   0.0000       1.241876        33.7932 
 382   0.0000       1.253355        34.1055 
 383   0.0000       1.272492        34.6263 
 384   0.0000       1.276355        34.7314 
 385   0.0000       1.276571        34.7373 
 386   0.0000       1.299938        35.3731 
 387   0.0000       1.304853        35.5068 
 388   0.0000       1.306630        35.5552 
 389   0.0000       1.313514        35.7425 
 390   0.0000       1.316186        35.8153 
 391   0.0000       1.319322        35.9006 
 392   0.0000       1.321821        35.9686 
 393   0.0000       1.327783        36.1308 
 394   0.0000       1.346496        36.6400 
 395   0.0000       1.352192        36.7950 
 396   0.0000       1.355816        36.8936 
 397   0.0000       1.358578        36.9688 
 398   0.0000       1.367024        37.1986 
 399   0.0000       1.376693        37.4617 
 400   0.0000       1.386610        37.7316 
 401   0.0000       1.391042        37.8522 
 402   0.0000       1.401703        38.1423 
 403   0.0000       1.408431        38.3254 
 404   0.0000       1.422493        38.7080 
 405   0.0000       1.426673        38.8218 
 406   0.0000       1.427182        38.8356 
 407   0.0000       1.431816        38.9617 
 408   0.0000       1.432014        38.9671 
 409   0.0000       1.441867        39.2352 
 410   0.0000       1.443110        39.2690 
 411   0.0000       1.445604        39.3369 
 412   0.0000       1.450650        39.4742 
 413   0.0000       1.452940        39.5365 
 414   0.0000       1.454840        39.5882 
 415   0.0000       1.455460        39.6051 
 416   0.0000       1.472565        40.0705 
 417   0.0000       1.476413        40.1752 
 418   0.0000       1.485928        40.4342 
 419   0.0000       1.493180        40.6315 
 420   0.0000       1.498406        40.7737 
 421   0.0000       1.501787        40.8657 
 422   0.0000       1.507165        41.0120 
 423   0.0000       1.509462        41.0745 
 424   0.0000       1.512500        41.1572 
 425   0.0000       1.515678        41.2437 
 426   0.0000       1.520757        41.3819 
 427   0.0000       1.537600        41.8402 
 428   0.0000       1.547455        42.1084 
 429   0.0000       1.561932        42.5023 
 430   0.0000       1.562437        42.5161 
 431   0.0000       1.562599        42.5205 
 432   0.0000       1.563257        42.5384 
 433   0.0000       1.565404        42.5968 
 434   0.0000       1.572923        42.8014 
 435   0.0000       1.584837        43.1256 
 436   0.0000       1.585680        43.1485 
 437   0.0000       1.589793        43.2605 
 438   0.0000       1.591002        43.2934 
 439   0.0000       1.597429        43.4683 
 440   0.0000       1.600120        43.5415 
 441   0.0000       1.604303        43.6553 
 442   0.0000       1.608940        43.7815 
 443   0.0000       1.620287        44.0903 
 444   0.0000       1.623772        44.1851 
 445   0.0000       1.635601        44.5070 
 446   0.0000       1.636130        44.5214 
 447   0.0000       1.640181        44.6316 
 448   0.0000       1.640418        44.6380 
 449   0.0000       1.641719        44.6734 
 450   0.0000       1.644686        44.7542 
 451   0.0000       1.656848        45.0851 
 452   0.0000       1.660690        45.1897 
 453   0.0000       1.663028        45.2533 
 454   0.0000       1.668204        45.3941 
 455   0.0000       1.682420        45.7810 
 456   0.0000       1.683133        45.8004 
 457   0.0000       1.684855        45.8472 
 458   0.0000       1.685612        45.8678 
 459   0.0000       1.687366        45.9156 
 460   0.0000       1.696147        46.1545 
 461   0.0000       1.696741        46.1707 
 462   0.0000       1.703099        46.3437 
 463   0.0000       1.705763        46.4162 
 464   0.0000       1.715633        46.6848 
 465   0.0000       1.720102        46.8064 
 466   0.0000       1.721963        46.8570 
 467   0.0000       1.722675        46.8764 
 468   0.0000       1.732918        47.1551 
 469   0.0000       1.738611        47.3100 
 470   0.0000       1.743020        47.4300 
 471   0.0000       1.764249        48.0077 
 472   0.0000       1.767078        48.0846 
 473   0.0000       1.773000        48.2458 
 474   0.0000       1.774057        48.2745 
 475   0.0000       1.776556        48.3425 
 476   0.0000       1.778207        48.3875 
 477   0.0000       1.787884        48.6508 
 478   0.0000       1.792221        48.7688 
 479   0.0000       1.793349        48.7995 
 480   0.0000       1.796490        48.8850 
 481   0.0000       1.806534        49.1583 
 482   0.0000       1.811432        49.2916 
 483   0.0000       1.816969        49.4422 
 484   0.0000       1.828657        49.7603 
 485   0.0000       1.834575        49.9213 
 486   0.0000       1.836908        49.9848 
 487   0.0000       1.838459        50.0270 
 488   0.0000       1.843245        50.1572 
 489   0.0000       1.855258        50.4841 
 490   0.0000       1.856104        50.5071 
 491   0.0000       1.860750        50.6336 
 492   0.0000       1.864750        50.7424 
 493   0.0000       1.874891        51.0184 
 494   0.0000       1.884020        51.2668 
 495   0.0000       1.918276        52.1989 
 496   0.0000       1.927528        52.4507 
 497   0.0000       1.935724        52.6737 
 498   0.0000       1.937990        52.7354 
 499   0.0000       1.945660        52.9441 
 500   0.0000       1.953415        53.1551 
 501   0.0000       1.972924        53.6860 
 502   0.0000       1.975156        53.7467 
 503   0.0000       1.975362        53.7523 
 504   0.0000       1.976201        53.7752 
 505   0.0000       2.013804        54.7984 
 506   0.0000       2.018617        54.9293 
 507   0.0000       2.025100        55.1058 
 508   0.0000       2.037117        55.4328 
 509   0.0000       2.040209        55.5169 
 510   0.0000       2.042637        55.5830 
 511   0.0000       2.045361        55.6571 
 512   0.0000       2.057615        55.9906 
 513   0.0000       2.078904        56.5698 
 514   0.0000       2.089269        56.8519 
 515   0.0000       2.100024        57.1446 
 516   0.0000       2.111763        57.4640 
 517   0.0000       2.112230        57.4767 
 518   0.0000       2.120868        57.7118 
 519   0.0000       2.135958        58.1224 
 520   0.0000       2.141560        58.2748 
 521   0.0000       2.155493        58.6539 
 522   0.0000       2.186319        59.4928 
 523   0.0000       2.191880        59.6441 
 524   0.0000       2.199877        59.8617 
 525   0.0000       2.201857        59.9156 
 526   0.0000       2.203359        59.9564 
 527   0.0000       2.203595        59.9629 
 528   0.0000       2.227629        60.6169 
 529   0.0000       2.228579        60.6427 
 530   0.0000       2.245884        61.1136 
 531   0.0000       2.252401        61.2910 
 532   0.0000       2.259851        61.4937 
 533   0.0000       2.265300        61.6419 
 534   0.0000       2.281786        62.0905 
 535   0.0000       2.308791        62.8254 
 536   0.0000       2.314049        62.9685 
 537   0.0000       2.319732        63.1231 
 538   0.0000       2.324539        63.2539 
 539   0.0000       2.325093        63.2690 
 540   0.0000       2.354405        64.0666 
 541   0.0000       2.375536        64.6416 
 542   0.0000       2.386810        64.9484 
 543   0.0000       2.392103        65.0924 
 544   0.0000       2.399640        65.2975 
 545   0.0000       2.402441        65.3737 
 546   0.0000       2.409234        65.5586 
 547   0.0000       2.413400        65.6719 
 548   0.0000       2.415677        65.7339 
 549   0.0000       2.417260        65.7770 
 550   0.0000       2.429695        66.1154 
 551   0.0000       2.443554        66.4925 
 552   0.0000       2.456225        66.8373 
 553   0.0000       2.459724        66.9325 
 554   0.0000       2.462884        67.0185 
 555   0.0000       2.468549        67.1726 
 556   0.0000       2.475086        67.3505 
 557   0.0000       2.481922        67.5365 
 558   0.0000       2.499565        68.0166 
 559   0.0000       2.509586        68.2893 
 560   0.0000       2.513357        68.3919 
 561   0.0000       2.513411        68.3934 
 562   0.0000       2.515150        68.4407 
 563   0.0000       2.523730        68.6742 
 564   0.0000       2.535292        68.9888 
 565   0.0000       2.544593        69.2419 
 566   0.0000       2.545530        69.2674 
 567   0.0000       2.559560        69.6492 
 568   0.0000       2.563062        69.7445 
 569   0.0000       2.568595        69.8950 
 570   0.0000       2.570885        69.9573 
 571   0.0000       2.579656        70.1960 
 572   0.0000       2.583594        70.3032 
 573   0.0000       2.585097        70.3441 
 574   0.0000       2.588860        70.4465 
 575   0.0000       2.615876        71.1816 
 576   0.0000       2.621419        71.3324 
 577   0.0000       2.629244        71.5454 
 578   0.0000       2.632928        71.6456 
 579   0.0000       2.685760        73.0832 
 580   0.0000       2.705412        73.6180 
 581   0.0000       2.738428        74.5164 
 582   0.0000       2.761856        75.1539 
 583   0.0000       2.776707        75.5580 
 584   0.0000       2.796060        76.0847 
 585   0.0000       2.796982        76.1097 
 586   0.0000       2.810677        76.4824 
 587   0.0000       2.887554        78.5744 
 588   0.0000       2.937340        79.9291 
 589   0.0000       2.972138        80.8760 
 590   0.0000       3.035485        82.5997 
 591   0.0000       3.109931        84.6255 
 592   0.0000       3.301374        89.8350 
 593   0.0000       3.431796        93.3839 
 594   0.0000       3.432923        93.4146 
 595   0.0000       4.979026       135.4862 
[...]

 -----------------------------------------------------------
 Nucleus  56H : A:ISTP=    1 I=  0.5 P=533.5514 MHz/au**3
                Q:ISTP=    2 I=  1.0 Q=  0.0029 barn     
 -----------------------------------------------------------
 Solving for nuclear perturbation:
Forming RHS of the CP-SCF equations         ... 
Calc. nucleus orbit integrals (SHARK)       ... done

------------------------------------------------------------------------------
                           ORCA CP-SCF CALCULATION
------------------------------------------------------------------------------

Input orbitals are from        ... EPRII.gbw
Input Perturbation             ... EPRII.pin.tmp
Wavefunction output            ... EPRII.pout.tmp
Perturbation mode              ... Imaginary perturbation
Solver                         ... POPLE
Max. number of iterations      ... 64
Convergence tolerance          ... 1.000e-03
Integral handling              ... Direct
DFT GridXC                     ... 1
COSX GridX                     ... 1
COSX IntAccX                   ... 3.067
COSX Algorithm                 ... Auto
Number of perturbations        ... 3
Number of operators            ... 2
Orbital ranges used for CP-SCF:
 Operator 0:  Orbitals   0...104  to 105...712
 Operator 1:  Orbitals   0...103  to 104...712
Variables per perturbation     ... 127176
DFT calculation                         ... on
XC functional terms                     ... off
Hybrid DFT                              ... on
   Exchange mixing (SCF)                ...  0.200
   Exchange mixing (CP-SCF)             ...  0.200
   GGA exch. scaling(SCF)               ...  0.720
   GGA exch. scaling (CP-SCF)           ...  0.720
   GGA corr. scaling (SCF)              ...  0.810
   GGA corr. scaling (CP-SCF)           ...  0.810

CP-SCF GRID
-----------

General Integration Accuracy     IntAcc      ... 3.467
Radial Grid Type                 RadialGrid  ... OptM3 with GC (2021)
Angular Grid (max. ang.)         AngularGrid ... 1 (Lebedev-50)
Angular grid pruning method      GridPruning ... 4 (adaptive)
Weight generation scheme         WeightScheme... Becke
Basis function cutoff            BFCut       ... 1.0000e-10
Integration weight cutoff        WCut        ... 1.0000e-14
Angular grids for H and He will be reduced by one unit
Partially contracted basis set               ... off
Rotationally invariant grid construction     ... off

Total number of grid points                  ...    38985
Total number of batches                      ...      633
Average number of points per batch           ...       61
Average number of grid points per atom       ...      661

CP-SCF GRIDX
------------

General Integration Accuracy     IntAcc      ... 3.067
Radial Grid Type                 RadialGrid  ... OptM3 with GC (2021)
Angular Grid (max. ang.)         AngularGrid ... 1 (Lebedev-50)
Angular grid pruning method      GridPruning ... 4 (adaptive)
Weight generation scheme         WeightScheme... Becke
Basis function cutoff            BFCut       ... 1.0000e-10
Integration weight cutoff        WCut        ... 1.0000e-14
Angular grids for H and He will be reduced by one unit
Partially contracted basis set               ... on
Rotationally invariant grid construction     ... off

Total number of grid points                  ...    18241
Total number of batches                      ...      321
Average number of points per batch           ...       56
Average number of grid points per atom       ...      309

Memory available               ... 799.6 MB
Memory needed per perturbation ...  29.8 MB
Perturbations treated per batch... 3
Number of batches              ... 1
     CP-SCF ITERATION   0:   4.6102e-02 (   3.2 sec   0/  3 done)
     CP-SCF ITERATION   1:   2.0976e-03 (   3.4 sec   0/  3 done)
     CP-SCF ITERATION   2:   1.4352e-04 (   3.4 sec   3/  3 done)
                    *** THE CP-SCF HAS CONVERGED ***

Forming final perturbed densities           ... done
Transforming perturbed density to AO basis  ... done

 Raw HFC matrix (all values in MHz): 
 -----------------------------------
                -1.0862               0.5557              -0.0019
                 0.5554              -1.5383              -0.0018
                -0.0019              -0.0018              -2.5934

 A(FC)          -1.7398              -1.7398              -1.7398
 A(SD)           1.0266              -0.1731              -0.8535
 A(ORB+DIA)      0.0007               0.0008              -0.0002    A(PC) =   0.0005
 A(ORB)          0.0006               0.0007               0.0000    A(PC) =   0.0004
 A(DIA)          0.0001               0.0001              -0.0002    A(PC) =   0.0000
             ----------           ----------           ----------
 A(Tot)         -0.7125              -1.9120              -2.5934    A(iso)=   -1.7393
 Orientation: 
  X           0.8296984            0.5582115           -0.0007416
  Y           0.5582103           -0.8296984           -0.0013242
  Z          -0.0013544            0.0006847           -0.9999988

Notes:  (1) The A matrix conforms to the "SAI" spin Hamiltonian convention.
        (2) Tensor is right-handed.

 -----------------------------------------------------------
 Nucleus  57H : A:ISTP=    1 I=  0.5 P=533.5514 MHz/au**3
                Q:ISTP=    2 I=  1.0 Q=  0.0029 barn     
 -----------------------------------------------------------
 Solving for nuclear perturbation:
Forming RHS of the CP-SCF equations         ... 
Calc. nucleus orbit integrals (SHARK)       ... done

------------------------------------------------------------------------------
                           ORCA CP-SCF CALCULATION
------------------------------------------------------------------------------

Input orbitals are from        ... EPRII.gbw
Input Perturbation             ... EPRII.pin.tmp
Wavefunction output            ... EPRII.pout.tmp
Perturbation mode              ... Imaginary perturbation
Solver                         ... POPLE
Max. number of iterations      ... 64
Convergence tolerance          ... 1.000e-03
Integral handling              ... Direct
DFT GridXC                     ... 1
COSX GridX                     ... 1
COSX IntAccX                   ... 3.067
COSX Algorithm                 ... Auto
Number of perturbations        ... 3
Number of operators            ... 2
Orbital ranges used for CP-SCF:
 Operator 0:  Orbitals   0...104  to 105...712
 Operator 1:  Orbitals   0...103  to 104...712
Variables per perturbation     ... 127176
DFT calculation                         ... on
XC functional terms                     ... off
Hybrid DFT                              ... on
   Exchange mixing (SCF)                ...  0.200
   Exchange mixing (CP-SCF)             ...  0.200
   GGA exch. scaling(SCF)               ...  0.720
   GGA exch. scaling (CP-SCF)           ...  0.720
   GGA corr. scaling (SCF)              ...  0.810
   GGA corr. scaling (CP-SCF)           ...  0.810

CP-SCF GRID
-----------

General Integration Accuracy     IntAcc      ... 3.467
Radial Grid Type                 RadialGrid  ... OptM3 with GC (2021)
Angular Grid (max. ang.)         AngularGrid ... 1 (Lebedev-50)
Angular grid pruning method      GridPruning ... 4 (adaptive)
Weight generation scheme         WeightScheme... Becke
Basis function cutoff            BFCut       ... 1.0000e-10
Integration weight cutoff        WCut        ... 1.0000e-14
Angular grids for H and He will be reduced by one unit
Partially contracted basis set               ... off
Rotationally invariant grid construction     ... off

Total number of grid points                  ...    38985
Total number of batches                      ...      633
Average number of points per batch           ...       61
Average number of grid points per atom       ...      661

CP-SCF GRIDX
------------

General Integration Accuracy     IntAcc      ... 3.067
Radial Grid Type                 RadialGrid  ... OptM3 with GC (2021)
Angular Grid (max. ang.)         AngularGrid ... 1 (Lebedev-50)
Angular grid pruning method      GridPruning ... 4 (adaptive)
Weight generation scheme         WeightScheme... Becke
Basis function cutoff            BFCut       ... 1.0000e-10
Integration weight cutoff        WCut        ... 1.0000e-14
Angular grids for H and He will be reduced by one unit
Partially contracted basis set               ... on
Rotationally invariant grid construction     ... off

Total number of grid points                  ...    18241
Total number of batches                      ...      321
Average number of points per batch           ...       56
Average number of grid points per atom       ...      309

Memory available               ... 798.6 MB
Memory needed per perturbation ...  29.8 MB
Perturbations treated per batch... 3
Number of batches              ... 1
     CP-SCF ITERATION   0:   4.6005e-02 (   3.3 sec   0/  3 done)
     CP-SCF ITERATION   1:   1.9882e-03 (   3.4 sec   0/  3 done)
     CP-SCF ITERATION   2:   1.3635e-04 (   3.5 sec   3/  3 done)
                    *** THE CP-SCF HAS CONVERGED ***

Forming final perturbed densities           ... done
Transforming perturbed density to AO basis  ... done

 Raw HFC matrix (all values in MHz): 
 -----------------------------------
                -1.8892              -0.2233               0.0000
                -0.2228              -1.0604              -0.0022
                 0.0000              -0.0022              -2.2928

 A(FC)          -1.7478              -1.7478              -1.7478
 A(SD)           0.7434              -0.1985              -0.5449
 A(ORB+DIA)      0.0002               0.0009              -0.0001    A(PC) =   0.0003
 A(ORB)          0.0000               0.0008               0.0000    A(PC) =   0.0003
 A(DIA)          0.0001               0.0001              -0.0001    A(PC) =   0.0001
             ----------           ----------           ----------
 A(Tot)         -1.0042              -1.9454              -2.2928    A(iso)=   -1.7475
 Orientation: 
  X          -0.2446324            0.9696154           -0.0009480
  Y           0.9696145            0.2446303           -0.0019341
  Z          -0.0016434           -0.0013923           -0.9999977

Notes:  (1) The A matrix conforms to the "SAI" spin Hamiltonian convention.
        (2) Tensor is right-handed.

 -----------------------------------------------------------
 Nucleus  58H : A:ISTP=    1 I=  0.5 P=533.5514 MHz/au**3
                Q:ISTP=    2 I=  1.0 Q=  0.0029 barn     
 -----------------------------------------------------------
 Solving for nuclear perturbation:
Forming RHS of the CP-SCF equations         ... 
Calc. nucleus orbit integrals (SHARK)       ... done

------------------------------------------------------------------------------
                           ORCA CP-SCF CALCULATION
------------------------------------------------------------------------------

Input orbitals are from        ... EPRII.gbw
Input Perturbation             ... EPRII.pin.tmp
Wavefunction output            ... EPRII.pout.tmp
Perturbation mode              ... Imaginary perturbation
Solver                         ... POPLE
Max. number of iterations      ... 64
Convergence tolerance          ... 1.000e-03
Integral handling              ... Direct
DFT GridXC                     ... 1
COSX GridX                     ... 1
COSX IntAccX                   ... 3.067
COSX Algorithm                 ... Auto
Number of perturbations        ... 3
Number of operators            ... 2
Orbital ranges used for CP-SCF:
 Operator 0:  Orbitals   0...104  to 105...712
 Operator 1:  Orbitals   0...103  to 104...712
Variables per perturbation     ... 127176
DFT calculation                         ... on
XC functional terms                     ... off
Hybrid DFT                              ... on
   Exchange mixing (SCF)                ...  0.200
   Exchange mixing (CP-SCF)             ...  0.200
   GGA exch. scaling(SCF)               ...  0.720
   GGA exch. scaling (CP-SCF)           ...  0.720
   GGA corr. scaling (SCF)              ...  0.810
   GGA corr. scaling (CP-SCF)           ...  0.810

CP-SCF GRID
-----------

General Integration Accuracy     IntAcc      ... 3.467
Radial Grid Type                 RadialGrid  ... OptM3 with GC (2021)
Angular Grid (max. ang.)         AngularGrid ... 1 (Lebedev-50)
Angular grid pruning method      GridPruning ... 4 (adaptive)
Weight generation scheme         WeightScheme... Becke
Basis function cutoff            BFCut       ... 1.0000e-10
Integration weight cutoff        WCut        ... 1.0000e-14
Angular grids for H and He will be reduced by one unit
Partially contracted basis set               ... off
Rotationally invariant grid construction     ... off

Total number of grid points                  ...    38985
Total number of batches                      ...      633
Average number of points per batch           ...       61
Average number of grid points per atom       ...      661

CP-SCF GRIDX
------------

General Integration Accuracy     IntAcc      ... 3.067
Radial Grid Type                 RadialGrid  ... OptM3 with GC (2021)
Angular Grid (max. ang.)         AngularGrid ... 1 (Lebedev-50)
Angular grid pruning method      GridPruning ... 4 (adaptive)
Weight generation scheme         WeightScheme... Becke
Basis function cutoff            BFCut       ... 1.0000e-10
Integration weight cutoff        WCut        ... 1.0000e-14
Angular grids for H and He will be reduced by one unit
Partially contracted basis set               ... on
Rotationally invariant grid construction     ... off

Total number of grid points                  ...    18241
Total number of batches                      ...      321
Average number of points per batch           ...       56
Average number of grid points per atom       ...      309

Memory available               ... 797.7 MB
Memory needed per perturbation ...  29.8 MB
Perturbations treated per batch... 3
Number of batches              ... 1
     CP-SCF ITERATION   0:   4.1904e-02 (   3.1 sec   0/  3 done)
     CP-SCF ITERATION   1:   1.7277e-03 (   3.3 sec   1/  3 done)
     CP-SCF ITERATION   2:   9.3650e-05 (   2.7 sec   3/  3 done)
                    *** THE CP-SCF HAS CONVERGED ***

Forming final perturbed densities           ... done
Transforming perturbed density to AO basis  ... done

 Raw HFC matrix (all values in MHz): 
 -----------------------------------
                 1.3221               0.2515              -0.0004
                 0.2515               0.5322              -0.0002
                -0.0004              -0.0002               0.3259

 A(FC)           0.7268               0.7268               0.7268
 A(SD)          -0.4008              -0.2679               0.6688
 A(ORB+DIA)     -0.0000               0.0001              -0.0001    A(PC) =  -0.0000
 A(ORB)         -0.0000               0.0001              -0.0002    A(PC) =  -0.0000
 A(DIA)         -0.0000              -0.0000               0.0000    A(PC) =   0.0000
             ----------           ----------           ----------
 A(Tot)          0.3259               0.4589               1.3954    A(iso)=    0.7267
 Orientation: 
  X           0.0002973           -0.2797361           -0.9600769
  Y           0.0005784            0.9600768           -0.2797359
  Z           0.9999998           -0.0004722            0.0004472

Notes:  (1) The A matrix conforms to the "SAI" spin Hamiltonian convention.
        (2) Tensor is right-handed.


--------------------------------------------------------------------------------
----------------------------------------------------------------------------
                           ORCA EULER ANGLE PROGRAM
----------------------------------------------------------------------------

Only g-tensor available        -->  using g-tensor as reference tensor

Reference tensor               ...  g

g-tensor ordering              ...  |g_min> --> |gx>
                                    |g_mid> --> |gy>
                                    |g_max> --> |gz>

A- and EFG-tensor ordering     ...  the axes |Ax>, |Qx>, |Ay>, etc. are assigned
                                    such that the Euler rotation is minimal. You
                                    can find the respective eigenvalues as Ax,
                                    EFGx, Ay, etc. in the tables below.
                                    The relation of |Ax>, |Ay>,  etc. to Amin, Amid, etc.
                                    (as printed in the ORCA EPR/NMR CALCULATION Output)
                                    is obtained in the detailed printout.

Euler rotation around          ...  z - y - z
   First rotation              -->  by alpha around z
   Second rotation             -->  by beta around y'
   Third rotation              -->  by gamma around z''
   Positive / Negative angle   -->  clockwise / counterclockwise rotation

Plot EFG-tensors                    (-)
Plot HFC-tensors                    (-)
Detailed Printout                   (-)

-------------------------------------------------------------------------
          Euler rotation of hyperfine tensor to g-tensor
-------------------------------------------------------------------------

-------------------------------------------------------------------
 Atom  |   Alpha    Beta    Gamma   |   Ax       Ay       Az 
       |          [degrees]         |           [MHz]         
-------------------------------------------------------------------
  9H       91.1      4.2    -91.1     -16.75    -7.71   -20.16
 10H       90.0      7.2    -90.0       4.29     5.00     9.61
 12H       90.0     44.4    -90.0     -48.49   -73.37   -20.03
 14H       16.8     13.1      1.4      68.17    77.70    69.65
 15H      163.2     12.6    178.8      67.67    77.20    69.17
 17H      -25.9     28.0     58.1      -3.31    -3.15     2.95
 18H     -154.0     27.7    121.4      -3.31    -3.15     2.94
 20H      129.3     47.7   -152.9      -0.01     2.31     0.10
 21H       50.3     48.2    -26.6      -0.01     2.31     0.10
 23H      144.1     17.4    177.4      23.98    24.58    27.65
 24H       35.9     17.4      2.8      24.02    24.62    27.69
 26H       80.1     30.8    -92.7      -1.03     0.91    -0.90
 27H       99.7     30.8    -86.9      -1.03     0.91    -0.90
 29H      -73.6     29.4    107.9      -0.10    -0.14     0.82
 30H     -106.5     29.4     72.2      -0.10    -0.14     0.82
 32H       95.4     43.8    -87.2      -0.12     0.38    -0.10
 33H       84.5     43.8    -92.6      -0.12     0.38    -0.10
 35H      -92.4     38.3     89.8      -0.83    -0.84     0.71
 36H      -89.8     36.5     90.1      -0.13    -0.13     0.24
 43H      -90.1     43.4     90.2       0.54     0.34     0.93
 44H       90.2      9.8    -90.2      -0.20    -0.33    -0.05
 45H      -90.1     34.5     90.2       0.41     1.26     0.05
 46H       90.1     23.9    -90.1       0.46     0.07     1.19
 47H      -90.2     27.0     90.3      -0.21    -0.07    -0.31
 54H      -90.1     41.6     90.2      -2.04    -0.60    -3.09
 55H       90.1     40.6    -90.0       0.38     0.63     1.17
 56H      -90.5     13.4     90.5      -2.59    -0.71    -1.91
 57H      -90.2     33.2     90.1      -2.29    -1.95    -1.00
 58H      -90.2     31.1     90.3       0.33     1.40     0.46
-------------------------------------------------------------------


Maximum memory used throughout the entire EPRNMR-calculation: 410.0 MB

Timings for individual modules:

Sum of individual times         ...    11413.914 sec (= 190.232 min)
GTO integral calculation        ...        7.564 sec (=   0.126 min)   0.1 %
Spin-Orbit-Coupling Matrices    ...       22.366 sec (=   0.373 min)   0.2 %
SCF iterations                  ...       60.498 sec (=   1.008 min)   0.5 %
EPR/NMR calculation             ...    11323.486 sec (= 188.725 min)  99.2 %
                             ****ORCA TERMINATED NORMALLY****
TOTAL RUN TIME: 0 days 3 hours 10 minutes 18 seconds 591 msec
