
                                 *****************
                                 * O   R   C   A *
                                 *****************

                                            #,                                       
                                            ###                                      
                                            ####                                     
                                            #####                                    
                                            ######                                   
                                           ########,                                 
                                     ,,################,,,,,                         
                               ,,#################################,,                 
                          ,,##########################################,,             
                       ,#########################################, ''#####,          
                    ,#############################################,,   '####,        
                  ,##################################################,,,,####,       
                ,###########''''           ''''###############################       
              ,#####''   ,,,,##########,,,,          '''####'''          '####       
            ,##' ,,,,###########################,,,                        '##       
           ' ,,###''''                  '''############,,,                           
         ,,##''                                '''############,,,,        ,,,,,,###''
      ,#''                                            '''#######################'''  
     '                                                          ''''####''''         
             ,#######,   #######,   ,#######,      ##                                
            ,#'     '#,  ##    ##  ,#'     '#,    #''#        ######   ,####,        
            ##       ##  ##   ,#'  ##            #'  '#       #        #'  '#        
            ##       ##  #######   ##           ,######,      #####,   #    #        
            '#,     ,#'  ##    ##  '#,     ,#' ,#      #,         ##   #,  ,#        
             '#######'   ##     ##  '#######'  #'      '#     #####' # '####'        



                  #######################################################
                  #                        -***-                        #
                  #          Department of theory and spectroscopy      #
                  #    Directorship and core code : Frank Neese         #
                  #        Max Planck Institute fuer Kohlenforschung    #
                  #                Kaiser Wilhelm Platz 1               #
                  #                 D-45470 Muelheim/Ruhr               #
                  #                      Germany                        #
                  #                                                     #
                  #                  All rights reserved                #
                  #                        -***-                        #
                  #######################################################


                         Program Version 5.0.4 -  RELEASE  -


 With contributions from (in alphabetic order):
   Daniel Aravena         : Magnetic Suceptibility
   Michael Atanasov       : Ab Initio Ligand Field Theory (pilot matlab implementation)
   Alexander A. Auer      : GIAO ZORA, VPT2 properties, NMR spectrum
   Ute Becker             : Parallelization
   Giovanni Bistoni       : ED, misc. LED, open-shell LED, HFLD
   Martin Brehm           : Molecular dynamics
   Dmytro Bykov           : SCF Hessian
   Vijay G. Chilkuri      : MRCI spin determinant printing, contributions to CSF-ICE
   Dipayan Datta          : RHF DLPNO-CCSD density
   Achintya Kumar Dutta   : EOM-CC, STEOM-CC
   Dmitry Ganyushin       : Spin-Orbit,Spin-Spin,Magnetic field MRCI
   Miquel Garcia          : C-PCM and meta-GGA Hessian, CC/C-PCM, Gaussian charge scheme
   Yang Guo               : DLPNO-NEVPT2, F12-NEVPT2, CIM, IAO-localization
   Andreas Hansen         : Spin unrestricted coupled pair/coupled cluster methods
   Benjamin Helmich-Paris : MC-RPA, TRAH-SCF, COSX integrals
   Lee Huntington         : MR-EOM, pCC
   Robert Izsak           : Overlap fitted RIJCOSX, COSX-SCS-MP3, EOM
   Marcus Kettner         : VPT2
   Christian Kollmar      : KDIIS, OOCD, Brueckner-CCSD(T), CCSD density, CASPT2, CASPT2-K
   Simone Kossmann        : Meta GGA functionals, TD-DFT gradient, OOMP2, MP2 Hessian
   Martin Krupicka        : Initial AUTO-CI
   Lucas Lang             : DCDCAS
   Marvin Lechner         : AUTO-CI (C++ implementation), FIC-MRCC
   Dagmar Lenk            : GEPOL surface, SMD
   Dimitrios Liakos       : Extrapolation schemes; Compound Job, initial MDCI parallelization
   Dimitrios Manganas     : Further ROCIS development; embedding schemes
   Dimitrios Pantazis     : SARC Basis sets
   Anastasios Papadopoulos: AUTO-CI, single reference methods and gradients
   Taras Petrenko         : DFT Hessian,TD-DFT gradient, ASA, ECA, R-Raman, ABS, FL, XAS/XES, NRVS
   Peter Pinski           : DLPNO-MP2, DLPNO-MP2 Gradient
   Christoph Reimann      : Effective Core Potentials
   Marius Retegan         : Local ZFS, SOC
   Christoph Riplinger    : Optimizer, TS searches, QM/MM, DLPNO-CCSD(T), (RO)-DLPNO pert. Triples
   Tobias Risthaus        : Range-separated hybrids, TD-DFT gradient, RPA, STAB
   Michael Roemelt        : Original ROCIS implementation
   Masaaki Saitow         : Open-shell DLPNO-CCSD energy and density
   Barbara Sandhoefer     : DKH picture change effects
   Avijit Sen             : IP-ROCIS
   Kantharuban Sivalingam : CASSCF convergence, NEVPT2, FIC-MRCI
   Bernardo de Souza      : ESD, SOC TD-DFT
   Georgi Stoychev        : AutoAux, RI-MP2 NMR, DLPNO-MP2 response
   Willem Van den Heuvel  : Paramagnetic NMR
   Boris Wezisla          : Elementary symmetry handling
   Frank Wennmohs         : Technical directorship


 We gratefully acknowledge several colleagues who have allowed us to
 interface, adapt or use parts of their codes:
   Stefan Grimme, W. Hujo, H. Kruse, P. Pracht,  : VdW corrections, initial TS optimization,
                  C. Bannwarth, S. Ehlert          DFT functionals, gCP, sTDA/sTD-DF
   Ed Valeev, F. Pavosevic, A. Kumar             : LibInt (2-el integral package), F12 methods
   Garnet Chan, S. Sharma, J. Yang, R. Olivares  : DMRG
   Ulf Ekstrom                                   : XCFun DFT Library
   Mihaly Kallay                                 : mrcc  (arbitrary order and MRCC methods)
   Jiri Pittner, Ondrej Demel                    : Mk-CCSD
   Frank Weinhold                                : gennbo (NPA and NBO analysis)
   Christopher J. Cramer and Donald G. Truhlar   : smd solvation model
   Lars Goerigk                                  : TD-DFT with DH, B97 family of functionals
   V. Asgeirsson, H. Jonsson                     : NEB implementation
   FAccTs GmbH                                   : IRC, NEB, NEB-TS, DLPNO-Multilevel, CI-OPT
                                                   MM, QMMM, 2- and 3-layer-ONIOM, Crystal-QMMM,
                                                   LR-CPCM, SF, NACMEs, symmetry and pop. for TD-DFT,
                                                   nearIR, NL-DFT gradient (VV10), updates on ESD,
                                                   ML-optimized integration grids
   S Lehtola, MJT Oliveira, MAL Marques          : LibXC Library
   Liviu Ungur et al                             : ANISO software


 Your calculation uses the libint2 library for the computation of 2-el integrals
 For citations please refer to: http://libint.valeyev.net

 Your ORCA version has been built with support for libXC version: 5.1.0
 For citations please refer to: https://tddft.org/programs/libxc/

 This ORCA versions uses:
   CBLAS   interface :  Fast vector & matrix operations
   LAPACKE interface :  Fast linear algebra routines
   SCALAPACK package :  Parallel linear algebra routines
   Shared memory     :  Shared parallel matrices
   BLAS/LAPACK       :  OpenBLAS 0.3.15  USE64BITINT DYNAMIC_ARCH NO_AFFINITY SkylakeX SINGLE_THREADED
        Core in use  :  SkylakeX
   Copyright (c) 2011-2014, The OpenBLAS Project




***************************************
The coordinates will be read from file: opt_EPRII.xyz
***************************************


================================================================================

----- Orbital basis set information -----
Your calculation utilizes the basis: EPR-II
   V. Barone, in Recent Advances in Density Functional Methods, Part 1 (ed. D. P. Chong), World Scientific, Singapore, 1995, p. 287.

----- AuxJ basis set information -----
Your calculation utilizes the AutoAux generation procedure.
  G. L. Stoychev, A. A. Auer, F. Neese, J. Chem. Theory Comput. 13, 554 (2017)

----- AuxC basis set information -----
Your calculation utilizes the AutoAux generation procedure.
  G. L. Stoychev, A. A. Auer, F. Neese, J. Chem. Theory Comput. 13, 554 (2017)

----- AuxJK basis set information -----
Your calculation utilizes the AutoAux generation procedure.
  G. L. Stoychev, A. A. Auer, F. Neese, J. Chem. Theory Comput. 13, 554 (2017)

================================================================================
                                        WARNINGS
                       Please study these warnings very carefully!
================================================================================

WARNING: Old DensityContainer found on disk!
         Will remove this file - 
         If you want to keep old densities, please start your calculation with a different basename. 


WARNING: your system is open-shell and RHF/RKS was chosen
  ===> : WILL SWITCH to UHF/UKS


INFO   : the flag for use of the SHARK integral package has been found!

================================================================================
                                       INPUT FILE
================================================================================
NAME = EPRII_i.inp
|  1> ! B3LYP EPR-II AUTOAUX
|  2> %pal nprocs 16 end
|  3> *XYZFile 0 2 opt_EPRII.xyz
|  4> %EPRNMR
|  5>         GTENSOR   TRUE
|  6>         NUCLEI    = ALL H {SHIFT, AISO, ADIP, AORB}
|  7>         ORI       GIAO
|  8> END
|  9> 
| 10>                          ****END OF INPUT****
================================================================================

                       ****************************
                       * Single Point Calculation *
                       ****************************

---------------------------------
CARTESIAN COORDINATES (ANGSTROEM)
---------------------------------
  C     -4.063411   -0.116031    0.000381
  C     -2.838031   -0.045851    0.001359
  C      2.847796    0.031502    0.002314
  C     -1.415755    0.009274    0.001097
  C     -0.713197    1.275735   -0.002065
  C      0.712165    1.217650   -0.001116
  C      1.416713    0.007055    0.001976
  C      0.711436   -1.243044    0.004484
  C     -0.686037   -1.199693    0.004134
  H      1.279389    2.141817   -0.003061
  H     -1.251249   -2.124614    0.006214
  C     -1.407695    2.509167   -0.006355
  H     -2.493810    2.470704   -0.007173
  C     -0.753515    3.865509   -0.009553
  H     -0.099756    3.970330    0.871050
  H     -0.085896    3.959684   -0.880810
  C     -1.764099    5.027728   -0.024790
  H     -2.407067    4.932102   -0.909065
  H     -2.421827    4.942656    0.849684
  C     -1.086359    6.408106   -0.027337
  H     -0.444946    6.530732   -0.907455
  H     -0.459509    6.541123    0.861725
  C      1.493589   -2.545562    0.007443
  H      2.163440   -2.545935   -0.863660
  H      2.161560   -2.543208    0.879998
  C      0.669127   -3.842482    0.008517
  H      0.012619   -3.867388    0.888486
  H      0.014369   -3.869833   -0.872689
  C      1.555057   -5.101488    0.011166
  H      2.214102   -5.082052   -0.867050
  H      2.212055   -5.079807    0.890861
  C      0.741313   -6.407351    0.011889
  H      0.098485   -6.470913   -0.873353
  H      0.095991   -6.468371    0.895491
  C      4.073016    0.052379    0.003430
  H     -1.826669    7.214571   -0.038164
  H      1.395680   -7.285258    0.014067
  C      5.504808    0.085475    0.003548
  C      6.195098    1.322267    0.002863
  C      7.594370    1.350944    0.002826
  C      8.329483    0.153179    0.003482
  C      7.652617   -1.078498    0.004192
  C      6.253539   -1.116733    0.004239
  H      9.415843    0.179317    0.003437
  H      8.215781   -2.008107    0.004693
  H      5.624765    2.246411    0.002350
  H      5.728701   -2.067423    0.004764
  H      8.112575    2.306356    0.002279
  C     -5.490595   -0.212094    0.000500
  C     -6.294857    0.954567   -0.000327
  C     -7.690441    0.851753   -0.000037
  C     -8.310216   -0.409774    0.001060
  C     -7.520554   -1.572552    0.001857
  C     -6.124408   -1.479767    0.001574
  H     -9.394221   -0.485887    0.001299
  H     -7.994313   -2.550796    0.002709
  H     -5.815023    1.928756   -0.001133
  H     -5.512229   -2.376732    0.002199
  H     -8.295757    1.754502   -0.000643

----------------------------
CARTESIAN COORDINATES (A.U.)
----------------------------
  NO LB      ZA    FRAG     MASS         X           Y           Z
   0 C     6.0000    0    12.011   -7.678733   -0.219267    0.000721
   1 C     6.0000    0    12.011   -5.363101   -0.086647    0.002568
   2 C     6.0000    0    12.011    5.381555    0.059530    0.004373
   3 C     6.0000    0    12.011   -2.675390    0.017525    0.002072
   4 C     6.0000    0    12.011   -1.347748    2.410790   -0.003902
   5 C     6.0000    0    12.011    1.345796    2.301024   -0.002110
   6 C     6.0000    0    12.011    2.677199    0.013332    0.003735
   7 C     6.0000    0    12.011    1.344419   -2.349013    0.008474
   8 C     6.0000    0    12.011   -1.296423   -2.267090    0.007812
   9 H     1.0000    0     1.008    2.417696    4.047447   -0.005785
  10 H     1.0000    0     1.008   -2.364518   -4.014938    0.011742
  11 C     6.0000    0    12.011   -2.660158    4.741639   -0.012009
  12 H     1.0000    0     1.008   -4.712617    4.668954   -0.013554
  13 C     6.0000    0    12.011   -1.423937    7.304753   -0.018053
  14 H     1.0000    0     1.008   -0.188511    7.502837    1.646046
  15 H     1.0000    0     1.008   -0.162319    7.482718   -1.664490
  16 C     6.0000    0    12.011   -3.333664    9.501029   -0.046847
  17 H     1.0000    0     1.008   -4.548697    9.320322   -1.717884
  18 H     1.0000    0     1.008   -4.576590    9.340266    1.605671
  19 C     6.0000    0    12.011   -2.052921   12.109565   -0.051660
  20 H     1.0000    0     1.008   -0.840826   12.341296   -1.714842
  21 H     1.0000    0     1.008   -0.868346   12.360930    1.628423
  22 C     6.0000    0    12.011    2.822474   -4.810416    0.014065
  23 H     1.0000    0     1.008    4.088310   -4.811120   -1.632081
  24 H     1.0000    0     1.008    4.084756   -4.805967    1.662956
  25 C     6.0000    0    12.011    1.264468   -7.261238    0.016094
  26 H     1.0000    0     1.008    0.023846   -7.308305    1.678996
  27 H     1.0000    0     1.008    0.027154   -7.312925   -1.649144
  28 C     6.0000    0    12.011    2.938631   -9.640415    0.021101
  29 H     1.0000    0     1.008    4.184046   -9.603687   -1.638487
  30 H     1.0000    0     1.008    4.180178   -9.599445    1.683484
  31 C     6.0000    0    12.011    1.400879  -12.108139    0.022466
  32 H     1.0000    0     1.008    0.186110  -12.228254   -1.650397
  33 H     1.0000    0     1.008    0.181396  -12.223450    1.692233
  34 C     6.0000    0    12.011    7.696886    0.098982    0.006482
  35 H     1.0000    0     1.008   -3.451905   13.633562   -0.072120
  36 H     1.0000    0     1.008    2.637454  -13.767143    0.026583
  37 C     6.0000    0    12.011   10.402580    0.161524    0.006705
  38 C     6.0000    0    12.011   11.707038    2.498723    0.005410
  39 C     6.0000    0    12.011   14.351280    2.552914    0.005341
  40 C     6.0000    0    12.011   15.740441    0.289466    0.006580
  41 C     6.0000    0    12.011   14.461349   -2.038067    0.007921
  42 C     6.0000    0    12.011   11.817477   -2.110319    0.008011
  43 H     1.0000    0     1.008   17.793365    0.338859    0.006494
  44 H     1.0000    0     1.008   15.525577   -3.794773    0.008869
  45 H     1.0000    0     1.008   10.629266    4.245102    0.004442
  46 H     1.0000    0     1.008   10.825676   -3.906862    0.009002
  47 H     1.0000    0     1.008   15.330544    4.358382    0.004307
  48 C     6.0000    0    12.011  -10.375721   -0.400799    0.000945
  49 C     6.0000    0    12.011  -11.895557    1.803870   -0.000618
  50 C     6.0000    0    12.011  -14.532827    1.609580   -0.000069
  51 C     6.0000    0    12.011  -15.704033   -0.774361    0.002003
  52 C     6.0000    0    12.011  -14.211788   -2.971692    0.003509
  53 C     6.0000    0    12.011  -11.573455   -2.796354    0.002975
  54 H     1.0000    0     1.008  -17.752506   -0.918193    0.002454
  55 H     1.0000    0     1.008  -15.107062   -4.820306    0.005120
  56 H     1.0000    0     1.008  -10.988801    3.644820   -0.002141
  57 H     1.0000    0     1.008  -10.416603   -4.491373    0.004155
  58 H     1.0000    0     1.008  -15.676709    3.315529   -0.001215

--------------------------------
INTERNAL COORDINATES (ANGSTROEM)
--------------------------------
 C      0   0   0     0.000000000000     0.00000000     0.00000000
 C      1   0   0     1.227388284957     0.00000000     0.00000000
 C      2   1   0     5.686353004064   177.50133458     0.00000000
 C      2   1   3     1.423343259370   178.94024969     2.21424837
 C      4   2   1     1.448282644934   121.23845428   176.82051350
 C      5   4   2     1.426545469511   116.68515857   179.95801292
 C      6   5   4     1.400691324819   122.53237700     0.03337371
 C      7   6   5     1.435329352691   120.37068062     0.00000000
 C      8   7   6     1.398145759050   117.65375855     0.00000000
 H      6   5   4     1.084357939381   119.20655953   180.02009116
 H      9   8   7     1.083950184532   119.65181808   180.01411328
 C      5   4   2     1.415521025040   121.59909698   359.93657805
 H     12   5   4     1.086795805911   117.35398702     0.00000000
 C     12   5   4     1.505863254951   124.86942454   179.98728955
 H     14  12   5     1.101748723979   109.98507545   301.77711324
 H     14  12   5     1.101668449541   109.99503724    57.35261128
 C     14  12   5     1.540215827160   113.24355819   179.56222245
 H     17  14  12     1.097494463465   109.06366459   301.99742664
 H     17  14  12     1.097519923226   109.07697713    57.94806109
 C     17  14  12     1.537784529634   112.84171376   179.97523542
 H     20  17  14     1.095926877554   111.08256193    59.89792404
 H     20  17  14     1.095931230331   111.08124593   300.10854712
 C      8   7   6     1.519317271391   119.58493866   179.98349439
 H     23   8   7     1.098872752126   108.21372681   303.41732080
 H     23   8   7     1.098883156508   108.21846872    56.69927383
 C     23   8   7     1.536794453739   116.57109262   180.06282807
 H     26  23   8     1.098167132053   109.90249414   301.47039039
 H     26  23   8     1.098171407246   109.89651523    58.50309458
 C     26  23   8     1.539472162707   112.42257141   179.98544436
 H     29  26  23     1.098171922505   109.23900808   302.04962032
 H     29  26  23     1.098171115476   109.23968891    57.98032960
 C     29  26  23     1.538654637024   112.93804192   180.01514349
 H     32  29  26     1.095864985005   111.04354838    59.86767384
 H     32  29  26     1.095863992130   111.04310559   300.16507115
 C      3   2   1     1.225398795617   179.79868462   191.37666383
 H     20  17  14     1.094788494228   111.29870845   180.00390398
 H     32  29  26     1.094952920377   111.37126514   180.01617677
 C     35   3   7     1.432174246807   179.64885013   258.58811705
 C     38  35   3     1.416388272028   120.49127297     7.73034494
 C     39  38  35     1.399566368110   120.34119198   180.00732895
 C     40  39  38     1.405358333159   120.36492043     0.00000000
 C     41  40  39     1.405409843462   119.67010007     0.00000000
 C     42  41  40     1.399599636647   120.35633595     0.00000000
 H     41  40  39     1.086674881658   120.16068610   179.99910201
 H     42  41  40     1.086889094018   120.00125129   179.99956414
 H     39  38  35     1.085966014511   119.15219584     0.00000000
 H     43  42  41     1.085940398685   120.46675883   179.99856741
 H     40  39  38     1.086898861645   119.64892214   179.99889394
 C      1   2   4     1.430413895239   179.42490667     8.06663768
 C     49   1   2     1.417016150408   120.73052979   175.01418817
 C     50  49   1     1.399365725797   120.36784891   180.00794729
 C     51  50  49     1.405551228534   120.37780828     0.00000000
 C     52  51  50     1.405566919607   119.65451469     0.00000000
 C     53  52  51     1.399225803629   120.37889839     0.00000000
 H     52  51  50     1.086673850920   120.18079504   179.99899483
 H     53  52  51     1.086926849762   119.97825398   179.99979394
 H     50  49   1     1.085949217457   119.19630954     0.00000000
 H     54  53  52     1.085961125778   120.51135039   179.99937481
 H     51  50  49     1.086905682080   119.62942359   179.99779460

---------------------------
INTERNAL COORDINATES (A.U.)
---------------------------
 C      0   0   0     0.000000000000     0.00000000     0.00000000
 C      1   0   0     2.319427718552     0.00000000     0.00000000
 C      2   1   0    10.745649878482   177.50133458     0.00000000
 C      2   1   3     2.689728954771   178.94024969     2.21424837
 C      4   2   1     2.736857563437   121.23845428   176.82051350
 C      5   4   2     2.695780254962   116.68515857   179.95801292
 C      6   5   4     2.646923002066   122.53237700     0.03337371
 C      7   6   5     2.712379388565   120.37068062     0.00000000
 C      8   7   6     2.642112579908   117.65375855     0.00000000
 H      6   5   4     2.049139536574   119.20655953   180.02009116
 H      9   8   7     2.048368991578   119.65181808   180.01411328
 C      5   4   2     2.674947074133   121.59909698   359.93657805
 H     12   5   4     2.053746436666   117.35398702     0.00000000
 C     12   5   4     2.845669146993   124.86942454   179.98728955
 H     14  12   5     2.082003356718   109.98507545   301.77711324
 H     14  12   5     2.081851660013   109.99503724    57.35261128
 C     14  12   5     2.910586100463   113.24355819   179.56222245
 H     17  14  12     2.073963969443   109.06366459   301.99742664
 H     17  14  12     2.074012081420   109.07697713    57.94806109
 C     17  14  12     2.905991613988   112.84171376   179.97523542
 H     20  17  14     2.071001661381   111.08256193    59.89792404
 H     20  17  14     2.071009886936   111.08124593   300.10854712
 C      8   7   6     2.871093553466   119.58493866   179.98349439
 H     23   8   7     2.076568557547   108.21372681   303.41732080
 H     23   8   7     2.076588218980   108.21846872    56.69927383
 C     23   8   7     2.904120641695   116.57109262   180.06282807
 H     26  23   8     2.075235128853   109.90249414   301.47039039
 H     26  23   8     2.075243207798   109.89651523    58.50309458
 C     26  23   8     2.909180778311   112.42257141   179.98544436
 H     29  26  23     2.075244181496   109.23900808   302.04962032
 H     29  26  23     2.075242656433   109.23968891    57.98032960
 C     29  26  23     2.907635878664   112.93804192   180.01514349
 H     32  29  26     2.070884701414   111.04354838    59.86767384
 H     32  29  26     2.070882825152   111.04310559   300.16507115
 C      3   2   1     2.315668128554   179.79868462   191.37666383
 H     20  17  14     2.068850428658   111.29870845   180.00390398
 H     32  29  26     2.069161149051   111.37126514   180.01617677
 C     35   3   7     2.706417102520   179.64885013   258.58811705
 C     38  35   3     2.676585933431   120.49127297     7.73034494
 C     39  38  35     2.644797141974   120.34119198   180.00732895
 C     40  39  38     2.655742369695   120.36492043     0.00000000
 C     41  40  39     2.655839710061   119.67010007     0.00000000
 C     42  41  40     2.644860010399   120.35633595     0.00000000
 H     41  40  39     2.053517922944   120.16068610   179.99910201
 H     42  41  40     2.053922725641   120.00125129   179.99956414
 H     39  38  35     2.052178358171   119.15219584     0.00000000
 H     43  42  41     2.052129951276   120.46675883   179.99856741
 H     40  39  38     2.053941183780   119.64892214   179.99889394
 C      1   2   4     2.703090520158   179.42490667     8.06663768
 C     49   1   2     2.677772451614   120.73052979   175.01418817
 C     50  49   1     2.644417982953   120.36784891   180.00794729
 C     51  50  49     2.656106889127   120.37780828     0.00000000
 C     52  51  50     2.656136540957   119.65451469     0.00000000
 C     53  52  51     2.644153568375   120.37889839     0.00000000
 H     52  51  50     2.053515975133   120.18079504   179.99899483
 H     53  52  51     2.053994073657   119.97825398   179.99979394
 H     50  49   1     2.052146616339   119.19630954     0.00000000
 H     54  53  52     2.052169119805   120.51135039   179.99937481
 H     51  50  49     2.053954072534   119.62942359   179.99779460

---------------------
BASIS SET INFORMATION
---------------------
There are 2 groups of distinct atoms

 Group   1 Type C   : 10s5p1d contracted to 6s2p1d pattern {511111/41/1}
 Group   2 Type H   : 6s1p contracted to 4s1p pattern {3111/1}

Atom   0C    basis set group =>   1
Atom   1C    basis set group =>   1
Atom   2C    basis set group =>   1
Atom   3C    basis set group =>   1
Atom   4C    basis set group =>   1
Atom   5C    basis set group =>   1
Atom   6C    basis set group =>   1
Atom   7C    basis set group =>   1
Atom   8C    basis set group =>   1
Atom   9H    basis set group =>   2
Atom  10H    basis set group =>   2
Atom  11C    basis set group =>   1
Atom  12H    basis set group =>   2
Atom  13C    basis set group =>   1
Atom  14H    basis set group =>   2
Atom  15H    basis set group =>   2
Atom  16C    basis set group =>   1
Atom  17H    basis set group =>   2
Atom  18H    basis set group =>   2
Atom  19C    basis set group =>   1
Atom  20H    basis set group =>   2
Atom  21H    basis set group =>   2
Atom  22C    basis set group =>   1
Atom  23H    basis set group =>   2
Atom  24H    basis set group =>   2
Atom  25C    basis set group =>   1
Atom  26H    basis set group =>   2
Atom  27H    basis set group =>   2
Atom  28C    basis set group =>   1
Atom  29H    basis set group =>   2
Atom  30H    basis set group =>   2
Atom  31C    basis set group =>   1
Atom  32H    basis set group =>   2
Atom  33H    basis set group =>   2
Atom  34C    basis set group =>   1
Atom  35H    basis set group =>   2
Atom  36H    basis set group =>   2
Atom  37C    basis set group =>   1
Atom  38C    basis set group =>   1
Atom  39C    basis set group =>   1
Atom  40C    basis set group =>   1
Atom  41C    basis set group =>   1
Atom  42C    basis set group =>   1
Atom  43H    basis set group =>   2
Atom  44H    basis set group =>   2
Atom  45H    basis set group =>   2
Atom  46H    basis set group =>   2
Atom  47H    basis set group =>   2
Atom  48C    basis set group =>   1
Atom  49C    basis set group =>   1
Atom  50C    basis set group =>   1
Atom  51C    basis set group =>   1
Atom  52C    basis set group =>   1
Atom  53C    basis set group =>   1
Atom  54H    basis set group =>   2
Atom  55H    basis set group =>   2
Atom  56H    basis set group =>   2
Atom  57H    basis set group =>   2
Atom  58H    basis set group =>   2
---------------------------------
AUXILIARY/J BASIS SET INFORMATION
---------------------------------
There are 2 groups of distinct atoms

 Group   1 Type C   : 17s13p12d2f contracted to 17s13p12d2f pattern {11111111111111111/1111111111111/111111111111/11}
 Group   2 Type H   : 15s6p1d contracted to 15s6p1d pattern {111111111111111/111111/1}

Atom   0C    basis set group =>   1
Atom   1C    basis set group =>   1
Atom   2C    basis set group =>   1
Atom   3C    basis set group =>   1
Atom   4C    basis set group =>   1
Atom   5C    basis set group =>   1
Atom   6C    basis set group =>   1
Atom   7C    basis set group =>   1
Atom   8C    basis set group =>   1
Atom   9H    basis set group =>   2
Atom  10H    basis set group =>   2
Atom  11C    basis set group =>   1
Atom  12H    basis set group =>   2
Atom  13C    basis set group =>   1
Atom  14H    basis set group =>   2
Atom  15H    basis set group =>   2
Atom  16C    basis set group =>   1
Atom  17H    basis set group =>   2
Atom  18H    basis set group =>   2
Atom  19C    basis set group =>   1
Atom  20H    basis set group =>   2
Atom  21H    basis set group =>   2
Atom  22C    basis set group =>   1
Atom  23H    basis set group =>   2
Atom  24H    basis set group =>   2
Atom  25C    basis set group =>   1
Atom  26H    basis set group =>   2
Atom  27H    basis set group =>   2
Atom  28C    basis set group =>   1
Atom  29H    basis set group =>   2
Atom  30H    basis set group =>   2
Atom  31C    basis set group =>   1
Atom  32H    basis set group =>   2
Atom  33H    basis set group =>   2
Atom  34C    basis set group =>   1
Atom  35H    basis set group =>   2
Atom  36H    basis set group =>   2
Atom  37C    basis set group =>   1
Atom  38C    basis set group =>   1
Atom  39C    basis set group =>   1
Atom  40C    basis set group =>   1
Atom  41C    basis set group =>   1
Atom  42C    basis set group =>   1
Atom  43H    basis set group =>   2
Atom  44H    basis set group =>   2
Atom  45H    basis set group =>   2
Atom  46H    basis set group =>   2
Atom  47H    basis set group =>   2
Atom  48C    basis set group =>   1
Atom  49C    basis set group =>   1
Atom  50C    basis set group =>   1
Atom  51C    basis set group =>   1
Atom  52C    basis set group =>   1
Atom  53C    basis set group =>   1
Atom  54H    basis set group =>   2
Atom  55H    basis set group =>   2
Atom  56H    basis set group =>   2
Atom  57H    basis set group =>   2
Atom  58H    basis set group =>   2
---------------------------------
AUXILIARY/C BASIS SET INFORMATION
---------------------------------
There are 2 groups of distinct atoms

 Group   1 Type C   : 17s13p12d2f contracted to 17s13p12d2f pattern {11111111111111111/1111111111111/111111111111/11}
 Group   2 Type H   : 15s6p1d contracted to 15s6p1d pattern {111111111111111/111111/1}

Atom   0C    basis set group =>   1
Atom   1C    basis set group =>   1
Atom   2C    basis set group =>   1
Atom   3C    basis set group =>   1
Atom   4C    basis set group =>   1
Atom   5C    basis set group =>   1
Atom   6C    basis set group =>   1
Atom   7C    basis set group =>   1
Atom   8C    basis set group =>   1
Atom   9H    basis set group =>   2
Atom  10H    basis set group =>   2
Atom  11C    basis set group =>   1
Atom  12H    basis set group =>   2
Atom  13C    basis set group =>   1
Atom  14H    basis set group =>   2
Atom  15H    basis set group =>   2
Atom  16C    basis set group =>   1
Atom  17H    basis set group =>   2
Atom  18H    basis set group =>   2
Atom  19C    basis set group =>   1
Atom  20H    basis set group =>   2
Atom  21H    basis set group =>   2
Atom  22C    basis set group =>   1
Atom  23H    basis set group =>   2
Atom  24H    basis set group =>   2
Atom  25C    basis set group =>   1
Atom  26H    basis set group =>   2
Atom  27H    basis set group =>   2
Atom  28C    basis set group =>   1
Atom  29H    basis set group =>   2
Atom  30H    basis set group =>   2
Atom  31C    basis set group =>   1
Atom  32H    basis set group =>   2
Atom  33H    basis set group =>   2
Atom  34C    basis set group =>   1
Atom  35H    basis set group =>   2
Atom  36H    basis set group =>   2
Atom  37C    basis set group =>   1
Atom  38C    basis set group =>   1
Atom  39C    basis set group =>   1
Atom  40C    basis set group =>   1
Atom  41C    basis set group =>   1
Atom  42C    basis set group =>   1
Atom  43H    basis set group =>   2
Atom  44H    basis set group =>   2
Atom  45H    basis set group =>   2
Atom  46H    basis set group =>   2
Atom  47H    basis set group =>   2
Atom  48C    basis set group =>   1
Atom  49C    basis set group =>   1
Atom  50C    basis set group =>   1
Atom  51C    basis set group =>   1
Atom  52C    basis set group =>   1
Atom  53C    basis set group =>   1
Atom  54H    basis set group =>   2
Atom  55H    basis set group =>   2
Atom  56H    basis set group =>   2
Atom  57H    basis set group =>   2
Atom  58H    basis set group =>   2
----------------------------------
AUXILIARY/JK BASIS SET INFORMATION
----------------------------------
There are 2 groups of distinct atoms

 Group   1 Type C   : 17s13p12d2f contracted to 17s13p12d2f pattern {11111111111111111/1111111111111/111111111111/11}
 Group   2 Type H   : 15s6p1d contracted to 15s6p1d pattern {111111111111111/111111/1}

Atom   0C    basis set group =>   1
Atom   1C    basis set group =>   1
Atom   2C    basis set group =>   1
Atom   3C    basis set group =>   1
Atom   4C    basis set group =>   1
Atom   5C    basis set group =>   1
Atom   6C    basis set group =>   1
Atom   7C    basis set group =>   1
Atom   8C    basis set group =>   1
Atom   9H    basis set group =>   2
Atom  10H    basis set group =>   2
Atom  11C    basis set group =>   1
Atom  12H    basis set group =>   2
Atom  13C    basis set group =>   1
Atom  14H    basis set group =>   2
Atom  15H    basis set group =>   2
Atom  16C    basis set group =>   1
Atom  17H    basis set group =>   2
Atom  18H    basis set group =>   2
Atom  19C    basis set group =>   1
Atom  20H    basis set group =>   2
Atom  21H    basis set group =>   2
Atom  22C    basis set group =>   1
Atom  23H    basis set group =>   2
Atom  24H    basis set group =>   2
Atom  25C    basis set group =>   1
Atom  26H    basis set group =>   2
Atom  27H    basis set group =>   2
Atom  28C    basis set group =>   1
Atom  29H    basis set group =>   2
Atom  30H    basis set group =>   2
Atom  31C    basis set group =>   1
Atom  32H    basis set group =>   2
Atom  33H    basis set group =>   2
Atom  34C    basis set group =>   1
Atom  35H    basis set group =>   2
Atom  36H    basis set group =>   2
Atom  37C    basis set group =>   1
Atom  38C    basis set group =>   1
Atom  39C    basis set group =>   1
Atom  40C    basis set group =>   1
Atom  41C    basis set group =>   1
Atom  42C    basis set group =>   1
Atom  43H    basis set group =>   2
Atom  44H    basis set group =>   2
Atom  45H    basis set group =>   2
Atom  46H    basis set group =>   2
Atom  47H    basis set group =>   2
Atom  48C    basis set group =>   1
Atom  49C    basis set group =>   1
Atom  50C    basis set group =>   1
Atom  51C    basis set group =>   1
Atom  52C    basis set group =>   1
Atom  53C    basis set group =>   1
Atom  54H    basis set group =>   2
Atom  55H    basis set group =>   2
Atom  56H    basis set group =>   2
Atom  57H    basis set group =>   2
Atom  58H    basis set group =>   2

Checking for AutoStart:
The File: EPRII_i.gbw exists
Trying to determine its content:
     ... Fine, the file contains calculation information
     ... Fine, the calculation information was read
     ... Fine, the file contains a basis set
     ... Fine, the basis set was read
     ... Fine, the file contains a geometry
     ... Fine, the geometry was read
     ... Fine, the file contains a set of orbitals
     ... Fine, the orbitals can be read
     => possible old guess file was deleted
     => GBW file was renamed to GES file
     => GES file is set as startup file
     => Guess is set to MORead
     ... now leaving AutoStart



           ************************************************************
           *        Program running with 16 parallel MPI-processes    *
           *              working on a common directory               *
           ************************************************************
------------------------------------------------------------------------------
                           ORCA GTO INTEGRAL CALCULATION
                           -- RI-GTO INTEGRALS CHOSEN --
------------------------------------------------------------------------------
------------------------------------------------------------------------------
                   ___                                                        
                  /   \      - P O W E R E D   B Y -                         
                 /     \                                                     
                 |  |  |   _    _      __       _____    __    __             
                 |  |  |  | |  | |    /  \     |  _  \  |  |  /  |          
                  \  \/   | |  | |   /    \    | | | |  |  | /  /          
                 / \  \   | |__| |  /  /\  \   | |_| |  |  |/  /          
                |  |  |   |  __  | /  /__\  \  |    /   |      \           
                |  |  |   | |  | | |   __   |  |    \   |  |\   \          
                \     /   | |  | | |  |  |  |  | |\  \  |  | \   \       
                 \___/    |_|  |_| |__|  |__|  |_| \__\ |__|  \__/        
                                                                              
                      - O R C A' S   B I G   F R I E N D -                    
                                      &                                       
                       - I N T E G R A L  F E E D E R -                       
                                                                              
 v1 FN, 2020, v2 2021                                                         
------------------------------------------------------------------------------


Reading SHARK input file EPRII_i.SHARKINP.tmp ... ok
----------------------
SHARK INTEGRAL PACKAGE
----------------------

Number of atoms                             ...     59
Number of basis functions                   ...    713
Number of shells                            ...    415
Maximum angular momentum                    ...      2
Integral batch strategy                     ... SHARK/LIBINT Hybrid
RI-J (if used) integral strategy            ... SPLIT-RIJ (Revised 2003 algorithm where possible)
Printlevel                                  ...      1
Contraction scheme used                     ... SEGMENTED contraction
Coulomb Range Separation                    ... NOT USED
Exchange Range Separation                   ... NOT USED
Finite Nucleus Model                        ... NOT USED
Auxiliary Coulomb fitting basis             ... AVAILABLE
   # of basis functions in Aux-J            ...   5002
   # of shells in Aux-J                     ...   1958
   Maximum angular momentum in Aux-J        ...      3
Auxiliary J/K fitting basis                 ... AVAILABLE
   # of basis functions in Aux-JK           ...   5002
   # of shells in Aux-JK                    ...   1958
   Maximum angular momentum in Aux-JK       ...      3
Auxiliary Correlation fitting basis         ... AVAILABLE
   # of basis functions in Aux-C            ...   5002
   # of shells in Aux-C                     ...   1958
   Maximum angular momentum in Aux-C        ...      3
Auxiliary 'external' fitting basis          ... NOT available
Integral threshold                          ...     1.000000e-10
Primitive cut-off                           ...     1.000000e-11
Primitive pair pre-selection threshold      ...     1.000000e-11

Calculating pre-screening integrals         ... done (  0.0 sec) Dimension = 415
Organizing shell pair data                  ... done (  0.2 sec)
Shell pair information
Total number of shell pairs                 ...     86320
Shell pairs after pre-screening             ...     38245
Total number of primitive shell pairs       ...    234153
Primitive shell pairs kept                  ...     71293
          la=0 lb=0:  17536 shell pairs
          la=1 lb=0:  13116 shell pairs
          la=1 lb=1:   2391 shell pairs
          la=2 lb=0:   3615 shell pairs
          la=2 lb=1:   1382 shell pairs
          la=2 lb=2:    205 shell pairs

Calculating one electron integrals          ... done (  0.1 sec)
Calculating RI/J V-Matrix + Cholesky decomp.... done (  1.5 sec)
Calculating RI/JK V-Matrix + Cholesky decomp... done (  1.4 sec)
Calculating RI/C V-Matrix + Cholesky decomp.... done (  1.4 sec)
Calculating Nuclear repulsion               ... done (  0.0 sec) ENN=   2359.396700152283 Eh

SHARK setup successfully completed in   5.1 seconds

Maximum memory used throughout the entire GTOINT-calculation: 82.4 MB


           ************************************************************
           *        Program running with 16 parallel MPI-processes    *
           *              working on a common directory               *
           ************************************************************
-------------------------------------------------------------------------------
                                 ORCA SCF
-------------------------------------------------------------------------------

------------
SCF SETTINGS
------------
Hamiltonian:
 Density Functional     Method          .... DFT(GTOs)
 Exchange Functional    Exchange        .... B88
   X-Alpha parameter    XAlpha          ....  0.666667
   Becke's b parameter  XBeta           ....  0.004200
 Correlation Functional Correlation     .... LYP
 LDA part of GGA corr.  LDAOpt          .... VWN-5
 Gradients option       PostSCFGGA      .... off
 Hybrid DFT is turned on
   Fraction HF Exchange ScalHFX         ....  0.200000
   Scaling of DF-GGA-X  ScalDFX         ....  0.720000
   Scaling of DF-GGA-C  ScalDFC         ....  0.810000
   Scaling of DF-LDA-C  ScalLDAC        ....  1.000000
   Perturbative correction              ....  0.000000
   Density functional embedding theory  .... OFF
   NL short-range parameter             ....  4.800000
 RI-approximation to the Coulomb term is turned on
   Number of AuxJ basis functions       .... 5002
   RIJ-COSX (HFX calculated with COS-X)).... on


General Settings:
 Integral files         IntName         .... EPRII_i
 Hartree-Fock type      HFTyp           .... UHF
 Total Charge           Charge          ....    0
 Multiplicity           Mult            ....    2
 Number of Electrons    NEL             ....  209
 Basis Dimension        Dim             ....  713
 Nuclear Repulsion      ENuc            ....   2359.3967001523 Eh

Convergence Acceleration:
 DIIS                   CNVDIIS         .... on
   Start iteration      DIISMaxIt       ....    12
   Startup error        DIISStart       ....  0.200000
   # of expansion vecs  DIISMaxEq       ....     5
   Bias factor          DIISBfac        ....   1.050
   Max. coefficient     DIISMaxC        ....  10.000
 Trust-Rad. Augm. Hess. CNVTRAH         .... auto
   Auto Start mean grad. ratio tolernc. ....  1.125000
   Auto Start start iteration           ....     1
   Auto Start num. interpolation iter.  ....    10
   Max. Number of Micro iterations      ....    16
   Max. Number of Macro iterations      .... Maxiter - #DIIS iter
   Number of Davidson start vectors     ....     2
   Converg. threshold I  (grad. norm)   ....   5.000e-05
   Converg. threshold II (energy diff.) ....   1.000e-06
   Grad. Scal. Fac. for Micro threshold ....   0.100
   Minimum threshold for Micro iter.    ....   0.010
   NR start threshold (gradient norm)   ....   0.001
   Initial trust radius                 ....   0.400
   Minimum AH scaling param. (alpha)    ....   1.000
   Maximum AH scaling param. (alpha)    .... 1000.000
   Orbital update algorithm             .... Taylor
   White noise on init. David. guess    .... on
   Maximum white noise                  ....   0.010
   Quad. conv. algorithm                .... NR
 SOSCF                  CNVSOSCF        .... off
 Level Shifting         CNVShift        .... on
   Level shift para.    LevelShift      ....    0.2500
   Turn off err/grad.   ShiftErr        ....    0.0010
 Zerner damping         CNVZerner       .... off
 Static damping         CNVDamp         .... on
   Fraction old density DampFac         ....    0.7000
   Max. Damping (<1)    DampMax         ....    0.9800
   Min. Damping (>=0)   DampMin         ....    0.0000
   Turn off err/grad.   DampErr         ....    0.1000
 Fernandez-Rico         CNVRico         .... off

SCF Procedure:
 Maximum # iterations   MaxIter         ....   125
 SCF integral mode      SCFMode         .... Direct
   Integral package                     .... SHARK and LIBINT hybrid scheme
 Reset frequency        DirectResetFreq ....    20
 Integral Threshold     Thresh          ....  1.000e-10 Eh
 Primitive CutOff       TCut            ....  1.000e-11 Eh

Convergence Tolerance:
 Convergence Check Mode ConvCheckMode   .... Total+1el-Energy
 Convergence forced     ConvForced      .... 0
 Energy Change          TolE            ....  1.000e-06 Eh
 1-El. energy change                    ....  1.000e-03 Eh
 DIIS Error             TolErr          ....  1.000e-06


Diagonalization of the overlap matrix:
Smallest eigenvalue                        ... 5.060e-05
Time for diagonalization                   ...    0.138 sec
Threshold for overlap eigenvalues          ... 1.000e-08
Number of eigenvalues below threshold      ... 0
Time for construction of square roots      ...    0.068 sec
Total time needed                          ...    0.208 sec

---------------------
INITIAL GUESS: MOREAD
---------------------
Guess MOs are being read from file: EPRII_i.ges
Input geometry compatible with but different from current geometry
Input basis set matches current basis set (good)
MOs were renormalized
MOs were reorthogonalized (Cholesky)
                      ------------------
                      INITIAL GUESS DONE (   0.5 sec)
                      ------------------
-------------------
DFT GRID GENERATION
-------------------

General Integration Accuracy     IntAcc      ... 4.388
Radial Grid Type                 RadialGrid  ... OptM3 with GC (2021)
Angular Grid (max. ang.)         AngularGrid ... 4 (Lebedev-302)
Angular grid pruning method      GridPruning ... 4 (adaptive)
Weight generation scheme         WeightScheme... Becke
Basis function cutoff            BFCut       ... 1.0000e-10
Integration weight cutoff        WCut        ... 1.0000e-14
Angular grids for H and He will be reduced by one unit
Partially contracted basis set               ... off
Rotationally invariant grid construction     ... off

Total number of grid points                  ...   271717
Total number of batches                      ...     4275
Average number of points per batch           ...       63
Average number of grid points per atom       ...     4605
Time for grid setup =    1.783 sec

--------------------
COSX GRID GENERATION
--------------------

GRIDX 1
-------
General Integration Accuracy     IntAcc      ... 3.816
Radial Grid Type                 RadialGrid  ... OptM3 with GC (2021)
Angular Grid (max. ang.)         AngularGrid ... 1 (Lebedev-50)
Angular grid pruning method      GridPruning ... 4 (adaptive)
Weight generation scheme         WeightScheme... Becke
Basis function cutoff            BFCut       ... 1.0000e-10
Integration weight cutoff        WCut        ... 1.0000e-14
Angular grids for H and He will be reduced by one unit
Partially contracted basis set               ... on
Rotationally invariant grid construction     ... off

Total number of grid points                  ...    34632
Total number of batches                      ...      570
Average number of points per batch           ...       60
Average number of grid points per atom       ...      587
UseSFitting                                  ... on

GRIDX 2
-------
General Integration Accuracy     IntAcc      ... 4.020
Radial Grid Type                 RadialGrid  ... OptM3 with GC (2021)
Angular Grid (max. ang.)         AngularGrid ... 2 (Lebedev-110)
Angular grid pruning method      GridPruning ... 4 (adaptive)
Weight generation scheme         WeightScheme... Becke
Basis function cutoff            BFCut       ... 1.0000e-10
Integration weight cutoff        WCut        ... 1.0000e-14
Angular grids for H and He will be reduced by one unit
Partially contracted basis set               ... on
Rotationally invariant grid construction     ... off

Total number of grid points                  ...    74003
Total number of batches                      ...     1190
Average number of points per batch           ...       62
Average number of grid points per atom       ...     1254
UseSFitting                                  ... on

GRIDX 3
-------
General Integration Accuracy     IntAcc      ... 4.338
Radial Grid Type                 RadialGrid  ... OptM3 with GC (2021)
Angular Grid (max. ang.)         AngularGrid ... 3 (Lebedev-194)
Angular grid pruning method      GridPruning ... 4 (adaptive)
Weight generation scheme         WeightScheme... Becke
Basis function cutoff            BFCut       ... 1.0000e-10
Integration weight cutoff        WCut        ... 1.0000e-14
Angular grids for H and He will be reduced by one unit
Partially contracted basis set               ... on
Rotationally invariant grid construction     ... off

Total number of grid points                  ...   161766
Total number of batches                      ...     2558
Average number of points per batch           ...       63
Average number of grid points per atom       ...     2742
UseSFitting                                  ... on

Time for X-Grid setup             =    3.064 sec

--------------
SCF ITERATIONS
--------------
ITER       Energy         Delta-E        Max-DP      RMS-DP      [F,P]     Damp
               ***  Starting incremental Fock matrix formation  ***
  0  -1159.9163115562   0.000000000000 0.00836852  0.00005354  0.0022045 0.7000
  1  -1159.9165204325  -0.000208876234 0.00774763  0.00004764  0.0015921 0.7000
                               ***Turning on DIIS***
  2  -1159.9166680262  -0.000147593679 0.01997542  0.00012019  0.0011302 0.0000
  3  -1159.9170142699  -0.000346243746 0.00082179  0.00000927  0.0003279 0.0000
               *** Restarting incremental Fock matrix formation ***
                                   *** Resetting DIIS ***
  4  -1159.9170081020   0.000006167925 0.00145315  0.00001252  0.0005951 0.0000
  5  -1159.9169861336   0.000021968372 0.00077284  0.00000533  0.0015933 0.0000
  6  -1159.9170155023  -0.000029368649 0.00052007  0.00000417  0.0003271 0.0000
  7  -1159.9170188101  -0.000003307827 0.00032123  0.00000146  0.0000540 0.0000
                 **** Energy Check signals convergence ****

               *****************************************************
               *                     SUCCESS                       *
               *           SCF CONVERGED AFTER   8 CYCLES          *
               *****************************************************

Old exchange energy                            =    -33.104112670 Eh
New exchange energy                            =    -33.104146184 Eh
Exchange energy change after final integration =     -0.000033515 Eh
Total energy after final integration           =  -1159.917052414 Eh
Final COS-X integration done in                =    16.024 sec

----------------
TOTAL SCF ENERGY
----------------

Total Energy       :        -1159.91705241 Eh          -31562.94763 eV

Components:
Nuclear Repulsion  :         2359.39670015 Eh           64202.44820 eV
Electronic Energy  :        -3519.31375257 Eh          -95765.39583 eV
One Electron Energy:        -6253.54171143 Eh         -170167.52112 eV
Two Electron Energy:         2734.22795886 Eh           74402.12529 eV
Max COSX asymmetry :            0.00000331 Eh               0.00009 eV

Virial components:
Potential Energy   :        -2310.52997627 Eh          -62872.71704 eV
Kinetic Energy     :         1150.61292386 Eh           31309.76942 eV
Virial Ratio       :            2.00808624


DFT components:
N(Alpha)           :      105.000173901208 electrons
N(Beta)            :      104.000164692312 electrons
N(Total)           :      209.000338593520 electrons
E(X)               :     -131.348219262792 Eh       
E(C)               :       -8.161300970930 Eh       
E(XC)              :     -139.509520233722 Eh       
DFET-embed. en.    :        0.000000000000 Eh       

---------------
SCF CONVERGENCE
---------------

  Last Energy change         ...   -8.9662e-08  Tolerance :   1.0000e-06
  Last MAX-Density change    ...    0.0000e+00  Tolerance :   1.0000e-05
  Last RMS-Density change    ...    0.0000e+00  Tolerance :   1.0000e-06
  Last DIIS Error            ...    5.2437e-05  Tolerance :   1.0000e-06

             **** THE GBW FILE WAS UPDATED (EPRII_i.gbw) ****
             **** DENSITY EPRII_i.scfp WAS UPDATED ****
             **** ENERGY FILE WAS UPDATED (EPRII_i.en.tmp) ****
----------------------
UHF SPIN CONTAMINATION
----------------------

Warning: in a DFT calculation there is little theoretical justification to 
         calculate <S**2> as in Hartree-Fock theory. We will do it anyways
         but you should keep in mind that the values have only limited relevance

Expectation value of <S**2>     :     0.789104
Ideal value S*(S+1) for S=0.5   :     0.750000
Deviation                       :     0.039104

             **** THE GBW FILE WAS UPDATED (EPRII_i.gbw) ****
             **** DENSITY EPRII_i.scfp WAS UPDATED ****
----------------
ORBITAL ENERGIES
----------------
                 SPIN UP ORBITALS
  NO   OCC          E(Eh)            E(eV) 
   0   1.0000     -10.228129      -278.3215 
   1   1.0000     -10.226696      -278.2826 
   2   1.0000     -10.222714      -278.1742 
   3   1.0000     -10.220779      -278.1215 
   4   1.0000     -10.210243      -277.8348 
   5   1.0000     -10.207313      -277.7551 
   6   1.0000     -10.205239      -277.6987 
   7   1.0000     -10.205101      -277.6949 
   8   1.0000     -10.204939      -277.6905 
   9   1.0000     -10.204323      -277.6738 
  10   1.0000     -10.204241      -277.6715 
  11   1.0000     -10.204128      -277.6684 
  12   1.0000     -10.203963      -277.6639 
  13   1.0000     -10.203826      -277.6602 
  14   1.0000     -10.202994      -277.6376 
  15   1.0000     -10.202796      -277.6322 
  16   1.0000     -10.201862      -277.6068 
  17   1.0000     -10.201196      -277.5886 
  18   1.0000     -10.199904      -277.5535 
  19   1.0000     -10.199784      -277.5502 
  20   1.0000     -10.198650      -277.5194 
  21   1.0000     -10.196758      -277.4679 
  22   1.0000     -10.194992      -277.4198 
  23   1.0000     -10.187986      -277.2292 
  24   1.0000     -10.186090      -277.1776 
  25   1.0000     -10.183519      -277.1077 
  26   1.0000     -10.180961      -277.0380 
  27   1.0000     -10.180596      -277.0281 
  28   1.0000     -10.172745      -276.8145 
  29   1.0000     -10.170849      -276.7629 
  30   1.0000      -0.870072       -23.6759 
  31   1.0000      -0.860392       -23.4125 
  32   1.0000      -0.859242       -23.3812 
  33   1.0000      -0.816669       -22.2227 
  34   1.0000      -0.797029       -21.6883 
  35   1.0000      -0.793231       -21.5849 
  36   1.0000      -0.780788       -21.2463 
  37   1.0000      -0.771219       -20.9859 
  38   1.0000      -0.763920       -20.7873 
  39   1.0000      -0.750048       -20.4098 
  40   1.0000      -0.749032       -20.3822 
  41   1.0000      -0.736509       -20.0414 
  42   1.0000      -0.724968       -19.7274 
  43   1.0000      -0.709072       -19.2948 
  44   1.0000      -0.695409       -18.9230 
  45   1.0000      -0.655202       -17.8289 
  46   1.0000      -0.645505       -17.5651 
  47   1.0000      -0.623320       -16.9614 
  48   1.0000      -0.613198       -16.6860 
  49   1.0000      -0.609500       -16.5853 
  50   1.0000      -0.608836       -16.5673 
  51   1.0000      -0.608164       -16.5490 
  52   1.0000      -0.590665       -16.0728 
  53   1.0000      -0.580392       -15.7933 
  54   1.0000      -0.561432       -15.2773 
  55   1.0000      -0.540958       -14.7202 
  56   1.0000      -0.535289       -14.5659 
  57   1.0000      -0.506270       -13.7763 
  58   1.0000      -0.503887       -13.7115 
  59   1.0000      -0.482376       -13.1261 
  60   1.0000      -0.479430       -13.0460 
  61   1.0000      -0.474788       -12.9196 
  62   1.0000      -0.470693       -12.8082 
  63   1.0000      -0.462951       -12.5975 
  64   1.0000      -0.455184       -12.3862 
  65   1.0000      -0.453915       -12.3516 
  66   1.0000      -0.437887       -11.9155 
  67   1.0000      -0.436385       -11.8746 
  68   1.0000      -0.430132       -11.7045 
  69   1.0000      -0.427456       -11.6317 
  70   1.0000      -0.425587       -11.5808 
  71   1.0000      -0.424701       -11.5567 
  72   1.0000      -0.424327       -11.5465 
  73   1.0000      -0.422072       -11.4852 
  74   1.0000      -0.411021       -11.1844 
  75   1.0000      -0.398649       -10.8478 
  76   1.0000      -0.396142       -10.7796 
  77   1.0000      -0.383432       -10.4337 
  78   1.0000      -0.379275       -10.3206 
  79   1.0000      -0.377349       -10.2682 
  80   1.0000      -0.373506       -10.1636 
  81   1.0000      -0.363946        -9.9035 
  82   1.0000      -0.362775        -9.8716 
  83   1.0000      -0.361266        -9.8305 
  84   1.0000      -0.355103        -9.6629 
  85   1.0000      -0.354604        -9.6493 
  86   1.0000      -0.352231        -9.5847 
  87   1.0000      -0.351047        -9.5525 
  88   1.0000      -0.337579        -9.1860 
  89   1.0000      -0.332980        -9.0608 
  90   1.0000      -0.331708        -9.0262 
  91   1.0000      -0.331666        -9.0251 
  92   1.0000      -0.326537        -8.8855 
  93   1.0000      -0.322961        -8.7882 
  94   1.0000      -0.321172        -8.7395 
  95   1.0000      -0.304930        -8.2976 
  96   1.0000      -0.277721        -7.5572 
  97   1.0000      -0.271705        -7.3935 
  98   1.0000      -0.268019        -7.2932 
  99   1.0000      -0.266620        -7.2551 
 100   1.0000      -0.257940        -7.0189 
 101   1.0000      -0.257428        -7.0050 
 102   1.0000      -0.236019        -6.4224 
 103   1.0000      -0.208534        -5.6745 
 104   1.0000      -0.170043        -4.6271 
 105   0.0000      -0.065793        -1.7903 
 106   0.0000      -0.030398        -0.8272 
 107   0.0000      -0.014925        -0.4061 
 108   0.0000      -0.014157        -0.3852 
 109   0.0000       0.001174         0.0319 
 110   0.0000       0.014976         0.4075 
 111   0.0000       0.016290         0.4433 
 112   0.0000       0.016561         0.4506 
 113   0.0000       0.021731         0.5913 
 114   0.0000       0.025757         0.7009 
 115   0.0000       0.032188         0.8759 
 116   0.0000       0.036353         0.9892 
 117   0.0000       0.038651         1.0517 
 118   0.0000       0.043022         1.1707 
 119   0.0000       0.043662         1.1881 
 120   0.0000       0.048015         1.3066 
 121   0.0000       0.055356         1.5063 
 122   0.0000       0.056342         1.5332 
 123   0.0000       0.059808         1.6275 
 124   0.0000       0.064929         1.7668 
 125   0.0000       0.067340         1.8324 
 126   0.0000       0.072892         1.9835 
 127   0.0000       0.076893         2.0924 
 128   0.0000       0.078021         2.1231 
 129   0.0000       0.079856         2.1730 
 130   0.0000       0.091004         2.4763 
 131   0.0000       0.092503         2.5171 
 132   0.0000       0.092987         2.5303 
 133   0.0000       0.100093         2.7237 
 134   0.0000       0.112415         3.0590 
 135   0.0000       0.114157         3.1064 
 136   0.0000       0.122694         3.3387 
 137   0.0000       0.124833         3.3969 
 138   0.0000       0.131799         3.5864 
 139   0.0000       0.138306         3.7635 
 140   0.0000       0.142989         3.8909 
 141   0.0000       0.156130         4.2485 
 142   0.0000       0.160519         4.3679 
 143   0.0000       0.161716         4.4005 
 144   0.0000       0.171111         4.6562 
 145   0.0000       0.177143         4.8203 
 146   0.0000       0.178061         4.8453 
 147   0.0000       0.183715         4.9991 
 148   0.0000       0.187772         5.1095 
 149   0.0000       0.191818         5.2196 
 150   0.0000       0.196222         5.3395 
 151   0.0000       0.200093         5.4448 
 152   0.0000       0.202304         5.5050 
 153   0.0000       0.202797         5.5184 
 154   0.0000       0.203847         5.5470 
 155   0.0000       0.205900         5.6028 
 156   0.0000       0.216119         5.8809 
 157   0.0000       0.218203         5.9376 
 158   0.0000       0.219591         5.9754 
 159   0.0000       0.220409         5.9976 
 160   0.0000       0.224081         6.0976 
 161   0.0000       0.227263         6.1841 
 162   0.0000       0.228075         6.2062 
 163   0.0000       0.237726         6.4688 
 164   0.0000       0.239975         6.5300 
 165   0.0000       0.243511         6.6263 
 166   0.0000       0.248458         6.7609 
 167   0.0000       0.248900         6.7729 
 168   0.0000       0.252149         6.8613 
 169   0.0000       0.254553         6.9268 
 170   0.0000       0.254637         6.9290 
 171   0.0000       0.257835         7.0160 
 172   0.0000       0.263417         7.1679 
 173   0.0000       0.266929         7.2635 
 174   0.0000       0.267317         7.2741 
 175   0.0000       0.276513         7.5243 
 176   0.0000       0.276581         7.5261 
 177   0.0000       0.277300         7.5457 
 178   0.0000       0.279849         7.6151 
 179   0.0000       0.281201         7.6519 
 180   0.0000       0.284005         7.7282 
 181   0.0000       0.288057         7.8384 
 182   0.0000       0.291973         7.9450 
 183   0.0000       0.293283         7.9806 
 184   0.0000       0.294916         8.0251 
 185   0.0000       0.296127         8.0580 
 186   0.0000       0.299528         8.1506 
 187   0.0000       0.304703         8.2914 
 188   0.0000       0.305383         8.3099 
 189   0.0000       0.308474         8.3940 
 190   0.0000       0.309864         8.4318 
 191   0.0000       0.311846         8.4858 
 192   0.0000       0.314358         8.5541 
 193   0.0000       0.316046         8.6000 
 194   0.0000       0.316295         8.6068 
 195   0.0000       0.319239         8.6869 
 196   0.0000       0.320638         8.7250 
 197   0.0000       0.323790         8.8108 
 198   0.0000       0.325376         8.8539 
 199   0.0000       0.328270         8.9327 
 200   0.0000       0.334347         9.0980 
 201   0.0000       0.335240         9.1224 
 202   0.0000       0.337374         9.1804 
 203   0.0000       0.343236         9.3399 
 204   0.0000       0.345816         9.4101 
 205   0.0000       0.347617         9.4591 
 206   0.0000       0.348740         9.4897 
 207   0.0000       0.351605         9.5677 
 208   0.0000       0.355717         9.6796 
 209   0.0000       0.362691         9.8693 
 210   0.0000       0.369407        10.0521 
 211   0.0000       0.372875        10.1465 
 212   0.0000       0.374283        10.1847 
 213   0.0000       0.377981        10.2854 
 214   0.0000       0.380371        10.3504 
 215   0.0000       0.389270        10.5926 
 216   0.0000       0.398292        10.8381 
 217   0.0000       0.398837        10.8529 
 218   0.0000       0.403569        10.9817 
 219   0.0000       0.407959        11.1011 
 220   0.0000       0.411537        11.1985 
 221   0.0000       0.415365        11.3027 
 222   0.0000       0.417308        11.3555 
 223   0.0000       0.422578        11.4989 
 224   0.0000       0.422921        11.5083 
 225   0.0000       0.425459        11.5773 
 226   0.0000       0.429614        11.6904 
 227   0.0000       0.430528        11.7153 
 228   0.0000       0.430647        11.7185 
 229   0.0000       0.435798        11.8587 
 230   0.0000       0.442537        12.0421 
 231   0.0000       0.446949        12.1621 
 232   0.0000       0.451047        12.2736 
 233   0.0000       0.451656        12.2902 
 234   0.0000       0.454924        12.3791 
 235   0.0000       0.457814        12.4577 
 236   0.0000       0.459690        12.5088 
 237   0.0000       0.463207        12.6045 
 238   0.0000       0.469007        12.7623 
 239   0.0000       0.471058        12.8182 
 240   0.0000       0.473298        12.8791 
 241   0.0000       0.474189        12.9033 
 242   0.0000       0.482433        13.1277 
 243   0.0000       0.482662        13.1339 
 244   0.0000       0.483980        13.1698 
 245   0.0000       0.491394        13.3715 
 246   0.0000       0.492345        13.3974 
 247   0.0000       0.503666        13.7055 
 248   0.0000       0.505477        13.7547 
 249   0.0000       0.507255        13.8031 
 250   0.0000       0.510691        13.8966 
 251   0.0000       0.515047        14.0151 
 252   0.0000       0.522113        14.2074 
 253   0.0000       0.530236        14.4285 
 254   0.0000       0.530474        14.4349 
 255   0.0000       0.533116        14.5068 
 256   0.0000       0.535631        14.5752 
 257   0.0000       0.538124        14.6431 
 258   0.0000       0.547409        14.8958 
 259   0.0000       0.553002        15.0480 
 260   0.0000       0.561425        15.2771 
 261   0.0000       0.561697        15.2846 
 262   0.0000       0.562696        15.3117 
 263   0.0000       0.576984        15.7005 
 264   0.0000       0.578701        15.7472 
 265   0.0000       0.585964        15.9449 
 266   0.0000       0.588421        16.0118 
 267   0.0000       0.596181        16.2229 
 268   0.0000       0.599103        16.3024 
 269   0.0000       0.605598        16.4792 
 270   0.0000       0.619759        16.8645 
 271   0.0000       0.623297        16.9608 
 272   0.0000       0.633667        17.2430 
 273   0.0000       0.641326        17.4514 
 274   0.0000       0.642169        17.4743 
 275   0.0000       0.651597        17.7308 
 276   0.0000       0.658089        17.9075 
 277   0.0000       0.658839        17.9279 
 278   0.0000       0.664377        18.0786 
 279   0.0000       0.668332        18.1862 
 280   0.0000       0.670643        18.2491 
 281   0.0000       0.671600        18.2752 
 282   0.0000       0.677558        18.4373 
 283   0.0000       0.683696        18.6043 
 284   0.0000       0.698373        19.0037 
 285   0.0000       0.705698        19.2030 
 286   0.0000       0.721442        19.6314 
 287   0.0000       0.724561        19.7163 
 288   0.0000       0.735550        20.0153 
 289   0.0000       0.760907        20.7053 
 290   0.0000       0.763989        20.7892 
 291   0.0000       0.773083        21.0366 
 292   0.0000       0.774895        21.0860 
 293   0.0000       0.795720        21.6527 
 294   0.0000       0.796072        21.6622 
 295   0.0000       0.808645        22.0043 
 296   0.0000       0.821039        22.3416 
 297   0.0000       0.836952        22.7746 
 298   0.0000       0.839979        22.8570 
 299   0.0000       0.840162        22.8620 
 300   0.0000       0.845111        22.9966 
 301   0.0000       0.850420        23.1411 
 302   0.0000       0.855130        23.2693 
 303   0.0000       0.858400        23.3582 
 304   0.0000       0.864474        23.5235 
 305   0.0000       0.867248        23.5990 
 306   0.0000       0.867605        23.6087 
 307   0.0000       0.870507        23.6877 
 308   0.0000       0.872655        23.7461 
 309   0.0000       0.886398        24.1201 
 310   0.0000       0.895325        24.3630 
 311   0.0000       0.896208        24.3871 
 312   0.0000       0.899574        24.4786 
 313   0.0000       0.902456        24.5571 
 314   0.0000       0.903627        24.5889 
 315   0.0000       0.914003        24.8713 
 316   0.0000       0.914767        24.8921 
 317   0.0000       0.916334        24.9347 
 318   0.0000       0.920169        25.0391 
 319   0.0000       0.929112        25.2824 
 320   0.0000       0.930302        25.3148 
 321   0.0000       0.932947        25.3868 
 322   0.0000       0.940003        25.5788 
 323   0.0000       0.940527        25.5930 
 324   0.0000       0.947318        25.7778 
 325   0.0000       0.950856        25.8741 
 326   0.0000       0.953180        25.9374 
 327   0.0000       0.961806        26.1721 
 328   0.0000       0.962161        26.1817 
 329   0.0000       0.967294        26.3214 
 330   0.0000       0.975222        26.5371 
 331   0.0000       0.976216        26.5642 
 332   0.0000       0.979643        26.6574 
 333   0.0000       0.981997        26.7215 
 334   0.0000       0.986084        26.8327 
 335   0.0000       0.992210        26.9994 
 336   0.0000       0.994978        27.0747 
 337   0.0000       0.996550        27.1175 
 338   0.0000       0.998001        27.1570 
 339   0.0000       0.998643        27.1745 
 340   0.0000       1.002429        27.2775 
 341   0.0000       1.002980        27.2925 
 342   0.0000       1.005131        27.3510 
 343   0.0000       1.007467        27.4146 
 344   0.0000       1.017569        27.6895 
 345   0.0000       1.023912        27.8621 
 346   0.0000       1.024986        27.8913 
 347   0.0000       1.025064        27.8934 
 348   0.0000       1.029270        28.0079 
 349   0.0000       1.029496        28.0140 
 350   0.0000       1.033828        28.1319 
 351   0.0000       1.042127        28.3577 
 352   0.0000       1.048523        28.5318 
 353   0.0000       1.057027        28.7632 
 354   0.0000       1.057977        28.7890 
 355   0.0000       1.059869        28.8405 
 356   0.0000       1.067252        29.0414 
 357   0.0000       1.071156        29.1476 
 358   0.0000       1.090829        29.6830 
 359   0.0000       1.093488        29.7553 
 360   0.0000       1.104027        30.0421 
 361   0.0000       1.107071        30.1249 
 362   0.0000       1.115411        30.3519 
 363   0.0000       1.117153        30.3993 
 364   0.0000       1.118224        30.4284 
 365   0.0000       1.130275        30.7563 
 366   0.0000       1.139527        31.0081 
 367   0.0000       1.141398        31.0590 
 368   0.0000       1.151793        31.3419 
 369   0.0000       1.152490        31.3609 
 370   0.0000       1.170383        31.8477 
 371   0.0000       1.173248        31.9257 
 372   0.0000       1.174561        31.9614 
 373   0.0000       1.181043        32.1378 
 374   0.0000       1.190301        32.3897 
 375   0.0000       1.190883        32.4056 
 376   0.0000       1.205386        32.8002 
 377   0.0000       1.207955        32.8701 
 378   0.0000       1.218887        33.1676 
 379   0.0000       1.225981        33.3606 
 380   0.0000       1.237547        33.6754 
 381   0.0000       1.240861        33.7655 
 382   0.0000       1.252586        34.0846 
 383   0.0000       1.272195        34.6182 
 384   0.0000       1.275320        34.7032 
 385   0.0000       1.275643        34.7120 
 386   0.0000       1.299128        35.3511 
 387   0.0000       1.303949        35.4822 
 388   0.0000       1.305334        35.5200 
 389   0.0000       1.311153        35.6783 
 390   0.0000       1.314128        35.7592 
 391   0.0000       1.318983        35.8914 
 392   0.0000       1.321218        35.9522 
 393   0.0000       1.327756        36.1301 
 394   0.0000       1.346139        36.6303 
 395   0.0000       1.351607        36.7791 
 396   0.0000       1.356544        36.9134 
 397   0.0000       1.357483        36.9390 
 398   0.0000       1.366149        37.1748 
 399   0.0000       1.375575        37.4313 
 400   0.0000       1.385152        37.6919 
 401   0.0000       1.389405        37.8076 
 402   0.0000       1.400464        38.1086 
 403   0.0000       1.407852        38.3096 
 404   0.0000       1.420648        38.6578 
 405   0.0000       1.428778        38.8790 
 406   0.0000       1.430252        38.9191 
 407   0.0000       1.430758        38.9329 
 408   0.0000       1.432495        38.9802 
 409   0.0000       1.440693        39.2033 
 410   0.0000       1.441794        39.2332 
 411   0.0000       1.444255        39.3002 
 412   0.0000       1.449591        39.4454 
 413   0.0000       1.453850        39.5613 
 414   0.0000       1.453999        39.5653 
 415   0.0000       1.455167        39.5971 
 416   0.0000       1.471702        40.0470 
 417   0.0000       1.474931        40.1349 
 418   0.0000       1.484990        40.4086 
 419   0.0000       1.491927        40.5974 
 420   0.0000       1.497382        40.7458 
 421   0.0000       1.500224        40.8232 
 422   0.0000       1.506663        40.9984 
 423   0.0000       1.508497        41.0483 
 424   0.0000       1.511128        41.1199 
 425   0.0000       1.514461        41.2106 
 426   0.0000       1.520853        41.3845 
 427   0.0000       1.536053        41.7981 
 428   0.0000       1.546294        42.0768 
 429   0.0000       1.560928        42.4750 
 430   0.0000       1.561484        42.4901 
 431   0.0000       1.563519        42.5455 
 432   0.0000       1.563893        42.5557 
 433   0.0000       1.564268        42.5659 
 434   0.0000       1.573022        42.8041 
 435   0.0000       1.583436        43.0875 
 436   0.0000       1.585744        43.1503 
 437   0.0000       1.589180        43.2438 
 438   0.0000       1.590124        43.2695 
 439   0.0000       1.595326        43.4110 
 440   0.0000       1.600740        43.5583 
 441   0.0000       1.605065        43.6760 
 442   0.0000       1.607925        43.7539 
 443   0.0000       1.620276        44.0900 
 444   0.0000       1.621764        44.1304 
 445   0.0000       1.634520        44.4776 
 446   0.0000       1.638229        44.5785 
 447   0.0000       1.638699        44.5913 
 448   0.0000       1.638843        44.5952 
 449   0.0000       1.642935        44.7065 
 450   0.0000       1.644894        44.7599 
 451   0.0000       1.658896        45.1409 
 452   0.0000       1.659630        45.1608 
 453   0.0000       1.661003        45.1982 
 454   0.0000       1.666558        45.3493 
 455   0.0000       1.681309        45.7508 
 456   0.0000       1.684411        45.8351 
 457   0.0000       1.686756        45.8990 
 458   0.0000       1.687371        45.9157 
 459   0.0000       1.687962        45.9318 
 460   0.0000       1.694679        46.1146 
 461   0.0000       1.699850        46.2553 
 462   0.0000       1.705367        46.4054 
 463   0.0000       1.707926        46.4750 
 464   0.0000       1.713964        46.6393 
 465   0.0000       1.716512        46.7087 
 466   0.0000       1.718106        46.7520 
 467   0.0000       1.723286        46.8930 
 468   0.0000       1.731833        47.1256 
 469   0.0000       1.741536        47.3896 
 470   0.0000       1.743458        47.4419 
 471   0.0000       1.765465        48.0407 
 472   0.0000       1.767308        48.0909 
 473   0.0000       1.769052        48.1384 
 474   0.0000       1.770154        48.1684 
 475   0.0000       1.772865        48.2421 
 476   0.0000       1.777892        48.3789 
 477   0.0000       1.785735        48.5923 
 478   0.0000       1.793849        48.8131 
 479   0.0000       1.794553        48.8323 
 480   0.0000       1.797402        48.9098 
 481   0.0000       1.802532        49.0494 
 482   0.0000       1.812127        49.3105 
 483   0.0000       1.814503        49.3751 
 484   0.0000       1.826374        49.6982 
 485   0.0000       1.831438        49.8359 
 486   0.0000       1.835696        49.9518 
 487   0.0000       1.837670        50.0055 
 488   0.0000       1.841632        50.1134 
 489   0.0000       1.852762        50.4162 
 490   0.0000       1.857235        50.5379 
 491   0.0000       1.858180        50.5637 
 492   0.0000       1.861532        50.6549 
 493   0.0000       1.875818        51.0436 
 494   0.0000       1.882581        51.2276 
 495   0.0000       1.921264        52.2803 
 496   0.0000       1.926234        52.4155 
 497   0.0000       1.933627        52.6167 
 498   0.0000       1.940150        52.7942 
 499   0.0000       1.945297        52.9342 
 500   0.0000       1.953189        53.1490 
 501   0.0000       1.972184        53.6658 
 502   0.0000       1.972221        53.6669 
 503   0.0000       1.977025        53.7976 
 504   0.0000       1.977975        53.8234 
 505   0.0000       2.017461        54.8979 
 506   0.0000       2.018673        54.9309 
 507   0.0000       2.026486        55.1435 
 508   0.0000       2.036378        55.4127 
 509   0.0000       2.041007        55.5386 
 510   0.0000       2.043788        55.6143 
 511   0.0000       2.046332        55.6835 
 512   0.0000       2.057328        55.9827 
 513   0.0000       2.077412        56.5292 
 514   0.0000       2.088384        56.8278 
 515   0.0000       2.101350        57.1806 
 516   0.0000       2.110393        57.4267 
 517   0.0000       2.111064        57.4450 
 518   0.0000       2.119943        57.6866 
 519   0.0000       2.134694        58.0880 
 520   0.0000       2.146963        58.4218 
 521   0.0000       2.152100        58.5616 
 522   0.0000       2.184346        59.4391 
 523   0.0000       2.189386        59.5762 
 524   0.0000       2.192047        59.6486 
 525   0.0000       2.199791        59.8593 
 526   0.0000       2.204185        59.9789 
 527   0.0000       2.204949        59.9997 
 528   0.0000       2.227284        60.6075 
 529   0.0000       2.232238        60.7423 
 530   0.0000       2.251888        61.2770 
 531   0.0000       2.252812        61.3021 
 532   0.0000       2.265471        61.6466 
 533   0.0000       2.272645        61.8418 
 534   0.0000       2.287380        62.2428 
 535   0.0000       2.315610        63.0110 
 536   0.0000       2.319923        63.1283 
 537   0.0000       2.327777        63.3420 
 538   0.0000       2.330159        63.4069 
 539   0.0000       2.332306        63.4653 
 540   0.0000       2.360613        64.2355 
 541   0.0000       2.383220        64.8507 
 542   0.0000       2.393057        65.1184 
 543   0.0000       2.396987        65.2253 
 544   0.0000       2.403909        65.4137 
 545   0.0000       2.405671        65.4616 
 546   0.0000       2.408475        65.5379 
 547   0.0000       2.416892        65.7670 
 548   0.0000       2.420380        65.8619 
 549   0.0000       2.425321        65.9963 
 550   0.0000       2.433687        66.2240 
 551   0.0000       2.450194        66.6732 
 552   0.0000       2.463618        67.0385 
 553   0.0000       2.465844        67.0990 
 554   0.0000       2.469338        67.1941 
 555   0.0000       2.474857        67.3443 
 556   0.0000       2.487265        67.6819 
 557   0.0000       2.492042        67.8119 
 558   0.0000       2.499748        68.0216 
 559   0.0000       2.507409        68.2301 
 560   0.0000       2.509971        68.2998 
 561   0.0000       2.514387        68.4199 
 562   0.0000       2.522941        68.6527 
 563   0.0000       2.527620        68.7800 
 564   0.0000       2.541061        69.1458 
 565   0.0000       2.543764        69.2193 
 566   0.0000       2.549728        69.3816 
 567   0.0000       2.556694        69.5712 
 568   0.0000       2.566328        69.8333 
 569   0.0000       2.568062        69.8805 
 570   0.0000       2.576780        70.1177 
 571   0.0000       2.579535        70.1927 
 572   0.0000       2.584634        70.3315 
 573   0.0000       2.586894        70.3930 
 574   0.0000       2.589082        70.4525 
 575   0.0000       2.620092        71.2963 
 576   0.0000       2.621722        71.3407 
 577   0.0000       2.626763        71.4779 
 578   0.0000       2.633456        71.6600 
 579   0.0000       2.680533        72.9410 
 580   0.0000       2.703318        73.5610 
[...]

 -----------------------------------------------------------
 Nucleus  56H : A:ISTP=    1 I=  0.5 P=533.5514 MHz/au**3
                Q:ISTP=    2 I=  1.0 Q=  0.0029 barn     
 -----------------------------------------------------------
 Solving for nuclear perturbation:
Forming RHS of the CP-SCF equations         ... 
Calc. nucleus orbit integrals (SHARK)       ... done

------------------------------------------------------------------------------
                           ORCA CP-SCF CALCULATION
------------------------------------------------------------------------------

Input orbitals are from        ... EPRII_i.gbw
Input Perturbation             ... EPRII_i.pin.tmp
Wavefunction output            ... EPRII_i.pout.tmp
Perturbation mode              ... Imaginary perturbation
Solver                         ... POPLE
Max. number of iterations      ... 64
Convergence tolerance          ... 1.000e-03
Integral handling              ... Direct
DFT GridXC                     ... 1
COSX GridX                     ... 1
COSX IntAccX                   ... 3.067
COSX Algorithm                 ... Auto
Number of perturbations        ... 3
Number of operators            ... 2
Orbital ranges used for CP-SCF:
 Operator 0:  Orbitals   0...104  to 105...712
 Operator 1:  Orbitals   0...103  to 104...712
Variables per perturbation     ... 127176
DFT calculation                         ... on
XC functional terms                     ... off
Hybrid DFT                              ... on
   Exchange mixing (SCF)                ...  0.200
   Exchange mixing (CP-SCF)             ...  0.200
   GGA exch. scaling(SCF)               ...  0.720
   GGA exch. scaling (CP-SCF)           ...  0.720
   GGA corr. scaling (SCF)              ...  0.810
   GGA corr. scaling (CP-SCF)           ...  0.810

CP-SCF GRID
-----------

General Integration Accuracy     IntAcc      ... 3.467
Radial Grid Type                 RadialGrid  ... OptM3 with GC (2021)
Angular Grid (max. ang.)         AngularGrid ... 1 (Lebedev-50)
Angular grid pruning method      GridPruning ... 4 (adaptive)
Weight generation scheme         WeightScheme... Becke
Basis function cutoff            BFCut       ... 1.0000e-10
Integration weight cutoff        WCut        ... 1.0000e-14
Angular grids for H and He will be reduced by one unit
Partially contracted basis set               ... off
Rotationally invariant grid construction     ... off

Total number of grid points                  ...    38989
Total number of batches                      ...      636
Average number of points per batch           ...       61
Average number of grid points per atom       ...      661

CP-SCF GRIDX
------------

General Integration Accuracy     IntAcc      ... 3.067
Radial Grid Type                 RadialGrid  ... OptM3 with GC (2021)
Angular Grid (max. ang.)         AngularGrid ... 1 (Lebedev-50)
Angular grid pruning method      GridPruning ... 4 (adaptive)
Weight generation scheme         WeightScheme... Becke
Basis function cutoff            BFCut       ... 1.0000e-10
Integration weight cutoff        WCut        ... 1.0000e-14
Angular grids for H and He will be reduced by one unit
Partially contracted basis set               ... on
Rotationally invariant grid construction     ... off

Total number of grid points                  ...    18243
Total number of batches                      ...      321
Average number of points per batch           ...       56
Average number of grid points per atom       ...      309

Memory available               ... 799.7 MB
Memory needed per perturbation ...  29.8 MB
Perturbations treated per batch... 3
Number of batches              ... 1
     CP-SCF ITERATION   0:   4.6315e-02 (   3.3 sec   0/  3 done)
     CP-SCF ITERATION   1:   2.1198e-03 (   3.4 sec   0/  3 done)
     CP-SCF ITERATION   2:   1.4707e-04 (   3.5 sec   3/  3 done)
                    *** THE CP-SCF HAS CONVERGED ***

Forming final perturbed densities           ... done
Transforming perturbed density to AO basis  ... done

 Raw HFC matrix (all values in MHz): 
 -----------------------------------
                -1.1866               0.5980              -0.0020
                 0.5978              -1.6147              -0.0017
                -0.0020              -0.0017              -2.6878

 A(FC)          -1.8301              -1.8301              -1.8301
 A(SD)           1.0639              -0.2064              -0.8575
 A(ORB+DIA)      0.0007               0.0009              -0.0002    A(PC) =   0.0005
 A(ORB)          0.0006               0.0007               0.0000    A(PC) =   0.0004
 A(DIA)          0.0001               0.0001              -0.0002    A(PC) =   0.0000
             ----------           ----------           ----------
 A(Tot)         -0.7656              -2.0357              -2.6878    A(iso)=   -1.8297
 Orientation: 
  X           0.8176094            0.5757726           -0.0008988
  Y           0.5757716           -0.8176098           -0.0011212
  Z          -0.0013804            0.0003992           -0.9999990

Notes:  (1) The A matrix conforms to the "SAI" spin Hamiltonian convention.
        (2) Tensor is right-handed.

 -----------------------------------------------------------
 Nucleus  57H : A:ISTP=    1 I=  0.5 P=533.5514 MHz/au**3
                Q:ISTP=    2 I=  1.0 Q=  0.0029 barn     
 -----------------------------------------------------------
 Solving for nuclear perturbation:
Forming RHS of the CP-SCF equations         ... 
Calc. nucleus orbit integrals (SHARK)       ... done

------------------------------------------------------------------------------
                           ORCA CP-SCF CALCULATION
------------------------------------------------------------------------------

Input orbitals are from        ... EPRII_i.gbw
Input Perturbation             ... EPRII_i.pin.tmp
Wavefunction output            ... EPRII_i.pout.tmp
Perturbation mode              ... Imaginary perturbation
Solver                         ... POPLE
Max. number of iterations      ... 64
Convergence tolerance          ... 1.000e-03
Integral handling              ... Direct
DFT GridXC                     ... 1
COSX GridX                     ... 1
COSX IntAccX                   ... 3.067
COSX Algorithm                 ... Auto
Number of perturbations        ... 3
Number of operators            ... 2
Orbital ranges used for CP-SCF:
 Operator 0:  Orbitals   0...104  to 105...712
 Operator 1:  Orbitals   0...103  to 104...712
Variables per perturbation     ... 127176
DFT calculation                         ... on
XC functional terms                     ... off
Hybrid DFT                              ... on
   Exchange mixing (SCF)                ...  0.200
   Exchange mixing (CP-SCF)             ...  0.200
   GGA exch. scaling(SCF)               ...  0.720
   GGA exch. scaling (CP-SCF)           ...  0.720
   GGA corr. scaling (SCF)              ...  0.810
   GGA corr. scaling (CP-SCF)           ...  0.810

CP-SCF GRID
-----------

General Integration Accuracy     IntAcc      ... 3.467
Radial Grid Type                 RadialGrid  ... OptM3 with GC (2021)
Angular Grid (max. ang.)         AngularGrid ... 1 (Lebedev-50)
Angular grid pruning method      GridPruning ... 4 (adaptive)
Weight generation scheme         WeightScheme... Becke
Basis function cutoff            BFCut       ... 1.0000e-10
Integration weight cutoff        WCut        ... 1.0000e-14
Angular grids for H and He will be reduced by one unit
Partially contracted basis set               ... off
Rotationally invariant grid construction     ... off

Total number of grid points                  ...    38989
Total number of batches                      ...      636
Average number of points per batch           ...       61
Average number of grid points per atom       ...      661

CP-SCF GRIDX
------------

General Integration Accuracy     IntAcc      ... 3.067
Radial Grid Type                 RadialGrid  ... OptM3 with GC (2021)
Angular Grid (max. ang.)         AngularGrid ... 1 (Lebedev-50)
Angular grid pruning method      GridPruning ... 4 (adaptive)
Weight generation scheme         WeightScheme... Becke
Basis function cutoff            BFCut       ... 1.0000e-10
Integration weight cutoff        WCut        ... 1.0000e-14
Angular grids for H and He will be reduced by one unit
Partially contracted basis set               ... on
Rotationally invariant grid construction     ... off

Total number of grid points                  ...    18243
Total number of batches                      ...      321
Average number of points per batch           ...       56
Average number of grid points per atom       ...      309

Memory available               ... 798.8 MB
Memory needed per perturbation ...  29.8 MB
Perturbations treated per batch... 3
Number of batches              ... 1
     CP-SCF ITERATION   0:   4.6197e-02 (   3.3 sec   0/  3 done)
     CP-SCF ITERATION   1:   2.0106e-03 (   3.3 sec   0/  3 done)
     CP-SCF ITERATION   2:   1.3963e-04 (   3.4 sec   3/  3 done)
                    *** THE CP-SCF HAS CONVERGED ***

Forming final perturbed densities           ... done
Transforming perturbed density to AO basis  ... done

 Raw HFC matrix (all values in MHz): 
 -----------------------------------
                -2.0071              -0.2596              -0.0000
                -0.2591              -1.1277              -0.0018
                -0.0000              -0.0018              -2.3794

 A(FC)          -1.8384              -1.8384              -1.8384
 A(SD)           0.7814              -0.2404              -0.5409
 A(ORB+DIA)      0.0001               0.0009              -0.0001    A(PC) =   0.0003
 A(ORB)         -0.0000               0.0008               0.0000    A(PC) =   0.0003
 A(DIA)          0.0001               0.0001              -0.0001    A(PC) =   0.0001
             ----------           ----------           ----------
 A(Tot)         -1.0569              -2.0779              -2.3794    A(iso)=   -1.8381
 Orientation: 
  X          -0.2635457            0.9646461           -0.0012352
  Y           0.9646460            0.2635434           -0.0017214
  Z          -0.0013350           -0.0016452           -0.9999978

Notes:  (1) The A matrix conforms to the "SAI" spin Hamiltonian convention.
        (2) Tensor is right-handed.

 -----------------------------------------------------------
 Nucleus  58H : A:ISTP=    1 I=  0.5 P=533.5514 MHz/au**3
                Q:ISTP=    2 I=  1.0 Q=  0.0029 barn     
 -----------------------------------------------------------
 Solving for nuclear perturbation:
Forming RHS of the CP-SCF equations         ... 
Calc. nucleus orbit integrals (SHARK)       ... done

------------------------------------------------------------------------------
                           ORCA CP-SCF CALCULATION
------------------------------------------------------------------------------

Input orbitals are from        ... EPRII_i.gbw
Input Perturbation             ... EPRII_i.pin.tmp
Wavefunction output            ... EPRII_i.pout.tmp
Perturbation mode              ... Imaginary perturbation
Solver                         ... POPLE
Max. number of iterations      ... 64
Convergence tolerance          ... 1.000e-03
Integral handling              ... Direct
DFT GridXC                     ... 1
COSX GridX                     ... 1
COSX IntAccX                   ... 3.067
COSX Algorithm                 ... Auto
Number of perturbations        ... 3
Number of operators            ... 2
Orbital ranges used for CP-SCF:
 Operator 0:  Orbitals   0...104  to 105...712
 Operator 1:  Orbitals   0...103  to 104...712
Variables per perturbation     ... 127176
DFT calculation                         ... on
XC functional terms                     ... off
Hybrid DFT                              ... on
   Exchange mixing (SCF)                ...  0.200
   Exchange mixing (CP-SCF)             ...  0.200
   GGA exch. scaling(SCF)               ...  0.720
   GGA exch. scaling (CP-SCF)           ...  0.720
   GGA corr. scaling (SCF)              ...  0.810
   GGA corr. scaling (CP-SCF)           ...  0.810

CP-SCF GRID
-----------

General Integration Accuracy     IntAcc      ... 3.467
Radial Grid Type                 RadialGrid  ... OptM3 with GC (2021)
Angular Grid (max. ang.)         AngularGrid ... 1 (Lebedev-50)
Angular grid pruning method      GridPruning ... 4 (adaptive)
Weight generation scheme         WeightScheme... Becke
Basis function cutoff            BFCut       ... 1.0000e-10
Integration weight cutoff        WCut        ... 1.0000e-14
Angular grids for H and He will be reduced by one unit
Partially contracted basis set               ... off
Rotationally invariant grid construction     ... off

Total number of grid points                  ...    38989
Total number of batches                      ...      636
Average number of points per batch           ...       61
Average number of grid points per atom       ...      661

CP-SCF GRIDX
------------

General Integration Accuracy     IntAcc      ... 3.067
Radial Grid Type                 RadialGrid  ... OptM3 with GC (2021)
Angular Grid (max. ang.)         AngularGrid ... 1 (Lebedev-50)
Angular grid pruning method      GridPruning ... 4 (adaptive)
Weight generation scheme         WeightScheme... Becke
Basis function cutoff            BFCut       ... 1.0000e-10
Integration weight cutoff        WCut        ... 1.0000e-14
Angular grids for H and He will be reduced by one unit
Partially contracted basis set               ... on
Rotationally invariant grid construction     ... off

Total number of grid points                  ...    18243
Total number of batches                      ...      321
Average number of points per batch           ...       56
Average number of grid points per atom       ...      309

Memory available               ... 797.9 MB
Memory needed per perturbation ...  29.8 MB
Perturbations treated per batch... 3
Number of batches              ... 1
     CP-SCF ITERATION   0:   4.2129e-02 (   3.3 sec   0/  3 done)
     CP-SCF ITERATION   1:   1.7525e-03 (   3.3 sec   1/  3 done)
     CP-SCF ITERATION   2:   9.4374e-05 (   2.8 sec   3/  3 done)
                    *** THE CP-SCF HAS CONVERGED ***

Forming final perturbed densities           ... done
Transforming perturbed density to AO basis  ... done

 Raw HFC matrix (all values in MHz): 
 -----------------------------------
                 1.4210               0.2833              -0.0006
                 0.2832               0.5935              -0.0002
                -0.0006              -0.0002               0.3955

 A(FC)           0.8033               0.8033               0.8033
 A(SD)          -0.4079              -0.2976               0.7055
 A(ORB+DIA)     -0.0000               0.0001              -0.0002    A(PC) =  -0.0000
 A(ORB)         -0.0000               0.0001              -0.0002    A(PC) =  -0.0000
 A(DIA)          0.0000              -0.0000               0.0000    A(PC) =   0.0000
             ----------           ----------           ----------
 A(Tot)          0.3955               0.5058               1.5087    A(iso)=    0.8033
 Orientation: 
  X           0.0004899           -0.2957109           -0.9552773
  Y           0.0002673            0.9552775           -0.2957108
  Z           0.9999998           -0.0001105            0.0005471

Notes:  (1) The A matrix conforms to the "SAI" spin Hamiltonian convention.
        (2) Tensor is right-handed.


--------------------------------------------------------------------------------
----------------------------------------------------------------------------
                           ORCA EULER ANGLE PROGRAM
----------------------------------------------------------------------------

Only g-tensor available        -->  using g-tensor as reference tensor

Reference tensor               ...  g

g-tensor ordering              ...  |g_min> --> |gx>
                                    |g_mid> --> |gy>
                                    |g_max> --> |gz>

A- and EFG-tensor ordering     ...  the axes |Ax>, |Qx>, |Ay>, etc. are assigned
                                    such that the Euler rotation is minimal. You
                                    can find the respective eigenvalues as Ax,
                                    EFGx, Ay, etc. in the tables below.
                                    The relation of |Ax>, |Ay>,  etc. to Amin, Amid, etc.
                                    (as printed in the ORCA EPR/NMR CALCULATION Output)
                                    is obtained in the detailed printout.

Euler rotation around          ...  z - y - z
   First rotation              -->  by alpha around z
   Second rotation             -->  by beta around y'
   Third rotation              -->  by gamma around z''
   Positive / Negative angle   -->  clockwise / counterclockwise rotation

Plot EFG-tensors                    (-)
Plot HFC-tensors                    (-)
Detailed Printout                   (-)

-------------------------------------------------------------------------
          Euler rotation of hyperfine tensor to g-tensor
-------------------------------------------------------------------------

-------------------------------------------------------------------
 Atom  |   Alpha    Beta    Gamma   |   Ax       Ay       Az 
       |          [degrees]         |           [MHz]         
-------------------------------------------------------------------
  9H       91.0      7.0    -91.1     -17.19    -7.95   -20.88
 10H       90.0     10.0    -90.1       4.55     5.13    10.03
 12H      -90.0     43.2     90.0     -48.39   -19.79   -73.94
 14H       26.5     14.1     -7.9      66.29    75.94    67.76
 15H      152.5     12.9   -170.7      65.19    74.83    66.68
 17H      -22.0     26.1     55.6      -3.24    -3.08     3.03
 18H     -158.0     25.7    123.4      -3.23    -3.08     3.02
 20H       46.3     56.7    -42.5       0.05     2.25    -0.05
 21H      132.8     55.9   -136.4       0.05     2.26    -0.05
 23H      136.4     17.4   -176.0      23.27    23.87    26.97
 24H       43.6     17.4     -3.8      23.32    23.93    27.02
 26H       80.1     33.0    -92.6      -1.01     0.92    -0.89
 27H       99.7     33.0    -86.9      -1.02     0.91    -0.89
 29H      -77.9     27.2    109.2      -0.10    -0.14     0.80
 30H     -102.3     27.2     71.1      -0.10    -0.14     0.80
 32H      -96.1     44.1    100.7      -0.13    -0.10     0.37
 33H      -83.9     44.1     79.5      -0.13    -0.10     0.37
 35H      -94.5     36.1     89.6      -0.82    -0.84     0.71
 36H      -89.1     34.1     90.1      -0.13    -0.13     0.23
 43H      -90.2     41.9     90.2       0.72     0.44     1.18
 44H       90.6      5.8    -90.5      -0.31    -0.48    -0.14
 45H      -90.1     30.9     90.2       0.59     1.48     0.16
 46H       90.2     25.3    -90.1       0.64     0.17     1.42
 47H      -90.5     14.7     90.7      -0.32    -0.18    -0.44
 54H      -90.2     39.8     90.2      -2.12    -0.64    -3.23
 55H       90.1     39.9    -90.1       0.45     0.68     1.28
 56H      -90.7     10.0     90.7      -2.69    -0.77    -2.04
 57H      -90.2     29.9     90.2      -2.38    -2.08    -1.06
 58H      -90.3     27.9     90.3       0.40     1.51     0.51
-------------------------------------------------------------------


Maximum memory used throughout the entire EPRNMR-calculation: 409.2 MB

Timings for individual modules:

Sum of individual times         ...    11471.045 sec (= 191.184 min)
GTO integral calculation        ...        7.400 sec (=   0.123 min)   0.1 %
Spin-Orbit-Coupling Matrices    ...       21.726 sec (=   0.362 min)   0.2 %
SCF iterations                  ...      117.621 sec (=   1.960 min)   1.0 %
EPR/NMR calculation             ...    11324.298 sec (= 188.738 min)  98.7 %
                             ****ORCA TERMINATED NORMALLY****
TOTAL RUN TIME: 0 days 3 hours 11 minutes 15 seconds 862 msec
