
                                 *****************
                                 * O   R   C   A *
                                 *****************

                                            #,                                       
                                            ###                                      
                                            ####                                     
                                            #####                                    
                                            ######                                   
                                           ########,                                 
                                     ,,################,,,,,                         
                               ,,#################################,,                 
                          ,,##########################################,,             
                       ,#########################################, ''#####,          
                    ,#############################################,,   '####,        
                  ,##################################################,,,,####,       
                ,###########''''           ''''###############################       
              ,#####''   ,,,,##########,,,,          '''####'''          '####       
            ,##' ,,,,###########################,,,                        '##       
           ' ,,###''''                  '''############,,,                           
         ,,##''                                '''############,,,,        ,,,,,,###''
      ,#''                                            '''#######################'''  
     '                                                          ''''####''''         
             ,#######,   #######,   ,#######,      ##                                
            ,#'     '#,  ##    ##  ,#'     '#,    #''#        ######   ,####,        
            ##       ##  ##   ,#'  ##            #'  '#       #        #'  '#        
            ##       ##  #######   ##           ,######,      #####,   #    #        
            '#,     ,#'  ##    ##  '#,     ,#' ,#      #,         ##   #,  ,#        
             '#######'   ##     ##  '#######'  #'      '#     #####' # '####'        



                  #######################################################
                  #                        -***-                        #
                  #          Department of theory and spectroscopy      #
                  #    Directorship and core code : Frank Neese         #
                  #        Max Planck Institute fuer Kohlenforschung    #
                  #                Kaiser Wilhelm Platz 1               #
                  #                 D-45470 Muelheim/Ruhr               #
                  #                      Germany                        #
                  #                                                     #
                  #                  All rights reserved                #
                  #                        -***-                        #
                  #######################################################


                         Program Version 5.0.4 -  RELEASE  -


 With contributions from (in alphabetic order):
   Daniel Aravena         : Magnetic Suceptibility
   Michael Atanasov       : Ab Initio Ligand Field Theory (pilot matlab implementation)
   Alexander A. Auer      : GIAO ZORA, VPT2 properties, NMR spectrum
   Ute Becker             : Parallelization
   Giovanni Bistoni       : ED, misc. LED, open-shell LED, HFLD
   Martin Brehm           : Molecular dynamics
   Dmytro Bykov           : SCF Hessian
   Vijay G. Chilkuri      : MRCI spin determinant printing, contributions to CSF-ICE
   Dipayan Datta          : RHF DLPNO-CCSD density
   Achintya Kumar Dutta   : EOM-CC, STEOM-CC
   Dmitry Ganyushin       : Spin-Orbit,Spin-Spin,Magnetic field MRCI
   Miquel Garcia          : C-PCM and meta-GGA Hessian, CC/C-PCM, Gaussian charge scheme
   Yang Guo               : DLPNO-NEVPT2, F12-NEVPT2, CIM, IAO-localization
   Andreas Hansen         : Spin unrestricted coupled pair/coupled cluster methods
   Benjamin Helmich-Paris : MC-RPA, TRAH-SCF, COSX integrals
   Lee Huntington         : MR-EOM, pCC
   Robert Izsak           : Overlap fitted RIJCOSX, COSX-SCS-MP3, EOM
   Marcus Kettner         : VPT2
   Christian Kollmar      : KDIIS, OOCD, Brueckner-CCSD(T), CCSD density, CASPT2, CASPT2-K
   Simone Kossmann        : Meta GGA functionals, TD-DFT gradient, OOMP2, MP2 Hessian
   Martin Krupicka        : Initial AUTO-CI
   Lucas Lang             : DCDCAS
   Marvin Lechner         : AUTO-CI (C++ implementation), FIC-MRCC
   Dagmar Lenk            : GEPOL surface, SMD
   Dimitrios Liakos       : Extrapolation schemes; Compound Job, initial MDCI parallelization
   Dimitrios Manganas     : Further ROCIS development; embedding schemes
   Dimitrios Pantazis     : SARC Basis sets
   Anastasios Papadopoulos: AUTO-CI, single reference methods and gradients
   Taras Petrenko         : DFT Hessian,TD-DFT gradient, ASA, ECA, R-Raman, ABS, FL, XAS/XES, NRVS
   Peter Pinski           : DLPNO-MP2, DLPNO-MP2 Gradient
   Christoph Reimann      : Effective Core Potentials
   Marius Retegan         : Local ZFS, SOC
   Christoph Riplinger    : Optimizer, TS searches, QM/MM, DLPNO-CCSD(T), (RO)-DLPNO pert. Triples
   Tobias Risthaus        : Range-separated hybrids, TD-DFT gradient, RPA, STAB
   Michael Roemelt        : Original ROCIS implementation
   Masaaki Saitow         : Open-shell DLPNO-CCSD energy and density
   Barbara Sandhoefer     : DKH picture change effects
   Avijit Sen             : IP-ROCIS
   Kantharuban Sivalingam : CASSCF convergence, NEVPT2, FIC-MRCI
   Bernardo de Souza      : ESD, SOC TD-DFT
   Georgi Stoychev        : AutoAux, RI-MP2 NMR, DLPNO-MP2 response
   Willem Van den Heuvel  : Paramagnetic NMR
   Boris Wezisla          : Elementary symmetry handling
   Frank Wennmohs         : Technical directorship


 We gratefully acknowledge several colleagues who have allowed us to
 interface, adapt or use parts of their codes:
   Stefan Grimme, W. Hujo, H. Kruse, P. Pracht,  : VdW corrections, initial TS optimization,
                  C. Bannwarth, S. Ehlert          DFT functionals, gCP, sTDA/sTD-DF
   Ed Valeev, F. Pavosevic, A. Kumar             : LibInt (2-el integral package), F12 methods
   Garnet Chan, S. Sharma, J. Yang, R. Olivares  : DMRG
   Ulf Ekstrom                                   : XCFun DFT Library
   Mihaly Kallay                                 : mrcc  (arbitrary order and MRCC methods)
   Jiri Pittner, Ondrej Demel                    : Mk-CCSD
   Frank Weinhold                                : gennbo (NPA and NBO analysis)
   Christopher J. Cramer and Donald G. Truhlar   : smd solvation model
   Lars Goerigk                                  : TD-DFT with DH, B97 family of functionals
   V. Asgeirsson, H. Jonsson                     : NEB implementation
   FAccTs GmbH                                   : IRC, NEB, NEB-TS, DLPNO-Multilevel, CI-OPT
                                                   MM, QMMM, 2- and 3-layer-ONIOM, Crystal-QMMM,
                                                   LR-CPCM, SF, NACMEs, symmetry and pop. for TD-DFT,
                                                   nearIR, NL-DFT gradient (VV10), updates on ESD,
                                                   ML-optimized integration grids
   S Lehtola, MJT Oliveira, MAL Marques          : LibXC Library
   Liviu Ungur et al                             : ANISO software


 Your calculation uses the libint2 library for the computation of 2-el integrals
 For citations please refer to: http://libint.valeyev.net

 Your ORCA version has been built with support for libXC version: 5.1.0
 For citations please refer to: https://tddft.org/programs/libxc/

 This ORCA versions uses:
   CBLAS   interface :  Fast vector & matrix operations
   LAPACKE interface :  Fast linear algebra routines
   SCALAPACK package :  Parallel linear algebra routines
   Shared memory     :  Shared parallel matrices
   BLAS/LAPACK       :  OpenBLAS 0.3.15  USE64BITINT DYNAMIC_ARCH NO_AFFINITY SkylakeX SINGLE_THREADED
        Core in use  :  SkylakeX
   Copyright (c) 2011-2014, The OpenBLAS Project




***************************************
The coordinates will be read from file: opt.xyz
***************************************


================================================================================

----- Orbital basis set information -----
Your calculation utilizes the basis: EPR-II
   V. Barone, in Recent Advances in Density Functional Methods, Part 1 (ed. D. P. Chong), World Scientific, Singapore, 1995, p. 287.

----- AuxJ basis set information -----
Your calculation utilizes the AutoAux generation procedure.
  G. L. Stoychev, A. A. Auer, F. Neese, J. Chem. Theory Comput. 13, 554 (2017)

----- AuxC basis set information -----
Your calculation utilizes the AutoAux generation procedure.
  G. L. Stoychev, A. A. Auer, F. Neese, J. Chem. Theory Comput. 13, 554 (2017)

----- AuxJK basis set information -----
Your calculation utilizes the AutoAux generation procedure.
  G. L. Stoychev, A. A. Auer, F. Neese, J. Chem. Theory Comput. 13, 554 (2017)

================================================================================
                                        WARNINGS
                       Please study these warnings very carefully!
================================================================================


WARNING: your system is open-shell and RHF/RKS was chosen
  ===> : WILL SWITCH to UHF/UKS


INFO   : the flag for use of the SHARK integral package has been found!

================================================================================
                                       INPUT FILE
================================================================================
NAME = EPRII_i.inp
|  1> ! B3LYP EPR-II AUTOAUX
|  2> %pal nprocs 16 end
|  3> *XYZFile 0 2 opt.xyz
|  4> %EPRNMR
|  5>         GTENSOR   TRUE
|  6>         NUCLEI    = ALL H {SHIFT, AISO, ADIP, AORB}
|  7>         ORI       GIAO
|  8> END
|  9> 
| 10>                          ****END OF INPUT****
================================================================================

                       ****************************
                       * Single Point Calculation *
                       ****************************

---------------------------------
CARTESIAN COORDINATES (ANGSTROEM)
---------------------------------
  C     -4.058780   -0.114027   -0.000729
  C     -2.837067   -0.037217    0.000458
  C      2.839456    0.025128    0.001303
  C     -1.417730    0.016651    0.000204
  C     -0.712128    1.278604   -0.003269
  C      0.709687    1.211983   -0.002475
  C      1.411298    0.003549    0.000975
  C      0.702255   -1.241266    0.003983
  C     -0.691408   -1.190779    0.003621
  H      1.285445    2.137757   -0.004762
  H     -1.264663   -2.117693    0.006030
  C     -1.396749    2.512534   -0.007530
  H     -2.489374    2.477379   -0.008222
  C     -0.740034    3.860790   -0.011243
  H     -0.071952    3.959921    0.869257
  H     -0.065383    3.951892   -0.887544
  C     -1.737595    5.026485   -0.020436
  H     -2.392913    4.932401   -0.905600
  H     -2.399942    4.940503    0.860321
  C     -1.059047    6.397666   -0.024026
  H     -0.415065    6.523869   -0.911556
  H     -0.422198    6.532067    0.867440
  C      1.476339   -2.542840    0.007434
  H      2.155053   -2.543120   -0.866126
  H      2.153685   -2.539371    0.882056
  C      0.658132   -3.836796    0.009521
  H     -0.005723   -3.860159    0.893279
  H     -0.004355   -3.863766   -0.875166
  C      1.539543   -5.091841    0.012796
  H      2.206455   -5.070185   -0.869111
  H      2.204866   -5.066716    0.895810
  C      0.733887   -6.393511    0.014637
  H      0.084970   -6.463882   -0.875410
  H      0.082960   -6.460115    0.903504
  C      4.061356    0.051700    0.002498
  H     -1.799216    7.213950   -0.030767
  H      1.392930   -7.276874    0.017252
  C      5.489033    0.088671    0.002622
  C      6.175837    1.322543    0.001416
  C      7.570008    1.354492    0.001416
  C      8.304589    0.163225    0.002633
  C      7.634082   -1.065321    0.003864
  C      6.240226   -1.107100    0.003878
  H      9.396716    0.192185    0.002617
  H      8.202215   -1.998703    0.004810
  H      5.600673    2.250353    0.000473
  H      5.715229   -2.064211    0.004815
  H      8.088008    2.316597    0.000461
  C     -5.481361   -0.217167   -0.000792
  C     -6.291506    0.940362   -0.001962
  C     -7.681432    0.829777   -0.001873
  C     -8.291180   -0.430157   -0.000632
  C     -7.498648   -1.583951    0.000528
  C     -6.108081   -1.483701    0.000446
  H     -9.380565   -0.512687   -0.000545
  H     -7.968746   -2.570377    0.001498
  H     -5.815246    1.922629   -0.002861
  H     -5.488129   -2.382218    0.001345
  H     -8.294683    1.734189   -0.002759

----------------------------
CARTESIAN COORDINATES (A.U.)
----------------------------
  NO LB      ZA    FRAG     MASS         X           Y           Z
   0 C     6.0000    0    12.011   -7.669983   -0.215479   -0.001378
   1 C     6.0000    0    12.011   -5.361279   -0.070330    0.000865
   2 C     6.0000    0    12.011    5.365794    0.047486    0.002462
   3 C     6.0000    0    12.011   -2.679121    0.031465    0.000385
   4 C     6.0000    0    12.011   -1.345726    2.416212   -0.006177
   5 C     6.0000    0    12.011    1.341114    2.290315   -0.004677
   6 C     6.0000    0    12.011    2.666966    0.006706    0.001843
   7 C     6.0000    0    12.011    1.327070   -2.345653    0.007526
   8 C     6.0000    0    12.011   -1.306572   -2.250246    0.006843
   9 H     1.0000    0     1.008    2.429140    4.039775   -0.008998
  10 H     1.0000    0     1.008   -2.389867   -4.001860    0.011394
  11 C     6.0000    0    12.011   -2.639472    4.748001   -0.014229
  12 H     1.0000    0     1.008   -4.704235    4.681567   -0.015538
  13 C     6.0000    0    12.011   -1.398462    7.295835   -0.021246
  14 H     1.0000    0     1.008   -0.135969    7.483167    1.642658
  15 H     1.0000    0     1.008   -0.123556    7.467993   -1.677215
  16 C     6.0000    0    12.011   -3.283580    9.498680   -0.038619
  17 H     1.0000    0     1.008   -4.521951    9.320886   -1.711336
  18 H     1.0000    0     1.008   -4.535233    9.336197    1.625771
  19 C     6.0000    0    12.011   -2.001308   12.089837   -0.045402
  20 H     1.0000    0     1.008   -0.784360   12.328325   -1.722592
  21 H     1.0000    0     1.008   -0.797838   12.343818    1.639225
  22 C     6.0000    0    12.011    2.789877   -4.805272    0.014049
  23 H     1.0000    0     1.008    4.072461   -4.805801   -1.636741
  24 H     1.0000    0     1.008    4.069875   -4.798716    1.666845
  25 C     6.0000    0    12.011    1.243690   -7.250493    0.017991
  26 H     1.0000    0     1.008   -0.010815   -7.294643    1.688052
  27 H     1.0000    0     1.008   -0.008229   -7.301460   -1.653824
  28 C     6.0000    0    12.011    2.909315   -9.622185    0.024181
  29 H     1.0000    0     1.008    4.169596   -9.581262   -1.642383
  30 H     1.0000    0     1.008    4.166594   -9.574705    1.692836
  31 C     6.0000    0    12.011    1.386845  -12.081985    0.027659
  32 H     1.0000    0     1.008    0.160570  -12.214966   -1.654286
  33 H     1.0000    0     1.008    0.156772  -12.207847    1.707374
  34 C     6.0000    0    12.011    7.674851    0.097700    0.004721
  35 H     1.0000    0     1.008   -3.400025   13.632390   -0.058142
  36 H     1.0000    0     1.008    2.632257  -13.751299    0.032602
  37 C     6.0000    0    12.011   10.372770    0.167563    0.004955
  38 C     6.0000    0    12.011   11.670641    2.499244    0.002676
  39 C     6.0000    0    12.011   14.305241    2.559620    0.002675
  40 C     6.0000    0    12.011   15.693399    0.308451    0.004975
  41 C     6.0000    0    12.011   14.426324   -2.013166    0.007303
  42 C     6.0000    0    12.011   11.792319   -2.092115    0.007328
  43 H     1.0000    0     1.008   17.757221    0.363176    0.004945
  44 H     1.0000    0     1.008   15.499941   -3.777002    0.009089
  45 H     1.0000    0     1.008   10.583739    4.252552    0.000893
  46 H     1.0000    0     1.008   10.800217   -3.900793    0.009099
  47 H     1.0000    0     1.008   15.284121    4.377734    0.000870
  48 C     6.0000    0    12.011  -10.358271   -0.410386   -0.001496
  49 C     6.0000    0    12.011  -11.889224    1.777027   -0.003708
  50 C     6.0000    0    12.011  -14.515803    1.568051   -0.003539
  51 C     6.0000    0    12.011  -15.668060   -0.812879   -0.001194
  52 C     6.0000    0    12.011  -14.170391   -2.993233    0.000997
  53 C     6.0000    0    12.011  -11.542601   -2.803788    0.000842
  54 H     1.0000    0     1.008  -17.726698   -0.968838   -0.001030
  55 H     1.0000    0     1.008  -15.058748   -4.857308    0.002830
  56 H     1.0000    0     1.008  -10.989222    3.633242   -0.005406
  57 H     1.0000    0     1.008  -10.371061   -4.501739    0.002541
  58 H     1.0000    0     1.008  -15.674678    3.277142   -0.005214

--------------------------------
INTERNAL COORDINATES (ANGSTROEM)
--------------------------------
 C      0   0   0     0.000000000000     0.00000000     0.00000000
 C      1   0   0     1.224126443433     0.00000000     0.00000000
 C      2   1   0     5.676864868464   177.03140915     0.00000000
 C      2   1   3     1.420358645532   178.57449228     1.73877668
 C      4   2   1     1.445826295041   121.38448468   177.19897879
 C      5   4   2     1.423375089311   116.52816424   179.96755751
 C      6   5   4     1.397348470617   122.82193934     0.00000000
 C      7   6   5     1.432590108934   120.19523973     0.00000000
 C      8   7   6     1.394577932782   117.59088971     0.00000000
 H      6   5   4     1.090210974542   119.19545768   180.01422906
 H      9   8   7     1.089860605267   119.66011565   180.01068752
 C      5   4   2     1.411136367371   121.76633426   359.95363882
 H     12   5   4     1.093191043477   117.17994550     0.00000000
 C     12   5   4     1.499693772310   125.00739805   179.99730656
 H     14  12   5     1.109703449874   109.99741929   302.41126797
 H     14  12   5     1.109665334815   109.99854623    57.19641117
 C     14  12   5     1.534294192207   113.47464441   179.79919469
 H     17  14  12     1.105354381134   109.00143726   302.33343419
 H     17  14  12     1.105363751985   109.00917860    57.64935036
 C     17  14  12     1.529895164183   113.11544112   179.99404752
 H     20  17  14     1.103788857462   111.29232654    59.86593035
 H     20  17  14     1.103789630808   111.29292028   300.11999163
 C      8   7   6     1.514368915849   119.59327999   179.98817634
 H     23   8   7     1.106237105759   108.18168280   303.76792127
 H     23   8   7     1.106242671424   108.18500334    56.31132860
 C     23   8   7     1.530943263048   116.95250926   180.04297036
 H     26  23   8     1.105567017383   109.86877713   301.73860173
 H     26  23   8     1.105571084326   109.86361863    58.24894927
 C     26  23   8     1.533634617521   112.61356005   179.99322952
 H     29  26  23     1.105893774928   109.19947972   302.34296274
 H     29  26  23     1.105893380011   109.20043303    57.67897657
 C     29  26  23     1.530826384355   113.16490503   180.01103911
 H     32  29  26     1.103734026067   111.26385321    59.86765382
 H     32  29  26     1.103732869483   111.26351558   300.16286423
 C      3   2   1     1.222189708357   179.38164601   183.49857717
 H     20  17  14     1.101914546728   111.47092752   179.99208124
 H     32  29  26     1.102123076063   111.51983900   180.01536577
 C     35   3   7     1.428155937338   179.75699023   341.42766537
 C     38  35   3     1.412141095159   120.58474753    12.07271998
 C     39  38  35     1.394536324157   120.41417232   180.00598973
 C     40  39  38     1.399545890040   120.34679423     0.00000000
 C     41  40  39     1.399610286834   119.71592610     0.00000000
 C     42  41  40     1.394481562585   120.34131874     0.00000000
 H     41  40  39     1.092511090393   120.14065751   179.99930227
 H     42  41  40     1.092692925615   120.04735498   179.99952415
 H     39  38  35     1.091625860164   119.10319965     0.00000000
 H     43  42  41     1.091643012532   120.46259005   179.99862574
 H     40  39  38     1.092689774159   119.61095409   179.99912119
 C      1   2   4     1.426314715428   179.44811046     8.16152607
 C     49   1   2     1.412873063984   120.84104545   174.53750930
 C     50  49   1     1.394318111783   120.43886245   180.00675065
 C     51  50  49     1.399724353652   120.37375199     0.00000000
 C     52  51  50     1.399767398913   119.69036683     0.00000000
 C     53  52  51     1.394175906037   120.36137841     0.00000000
 H     52  51  50     1.092505904272   120.15711823   179.99875534
 H     53  52  51     1.092716544239   120.03421118   180.00008802
 H     50  49   1     1.091637733331   119.14533143     0.00000000
 H     54  53  52     1.091638126460   120.48110760   180.00024613
 H     51  50  49     1.092720314622   119.59084068   179.99831588

---------------------------
INTERNAL COORDINATES (A.U.)
---------------------------
 C      0   0   0     0.000000000000     0.00000000     0.00000000
 C      1   0   0     2.313263731380     0.00000000     0.00000000
 C      2   1   0    10.727719900675   177.03140915     0.00000000
 C      2   1   3     2.684088852002   178.57449228     1.73877668
 C      4   2   1     2.732215734849   121.38448468   177.19897879
 C      5   4   2     2.689789104643   116.52816424   179.96755751
 C      6   5   4     2.640605923120   122.82193934     0.00000000
 C      7   6   5     2.707202968050   120.19523973     0.00000000
 C      8   7   6     2.635370365368   117.59088971     0.00000000
 H      6   5   4     2.060200170080   119.19545768   180.01422906
 H      9   8   7     2.059538068105   119.66011565   180.01068752
 C      5   4   2     2.666661271947   121.76633426   359.95363882
 H     12   5   4     2.065831684227   117.17994550     0.00000000
 C     12   5   4     2.834010514413   125.00739805   179.99730656
 H     14  12   5     2.097035610129   109.99741929   302.41126797
 H     14  12   5     2.096963583106   109.99854623    57.19641117
 C     14  12   5     2.899395832138   113.47464441   179.79919469
 H     17  14  12     2.088817061272   109.00143726   302.33343419
 H     17  14  12     2.088834769616   109.00917860    57.64935036
 C     17  14  12     2.891082873916   113.11544112   179.99404752
 H     20  17  14     2.085858650278   111.29232654    59.86593035
 H     20  17  14     2.085860111689   111.29292028   300.11999163
 C      8   7   6     2.861742516678   119.59327999   179.98817634
 H     23   8   7     2.090485169067   108.18168280   303.76792127
 H     23   8   7     2.090495686648   108.18500334    56.31132860
 C     23   8   7     2.893063493732   116.95250926   180.04297036
 H     26  23   8     2.089218885550   109.86877713   301.73860173
 H     26  23   8     2.089226570958   109.86361863    58.24894927
 C     26  23   8     2.898149416616   112.61356005   179.99322952
 H     29  26  23     2.089836367821   109.19947972   302.34296274
 H     29  26  23     2.089835621537   109.20043303    57.67897657
 C     29  26  23     2.892842625012   113.16490503   180.01103911
 H     32  29  26     2.085755033957   111.26385321    59.86765382
 H     32  29  26     2.085752848329   111.26351558   300.16286423
 C      3   2   1     2.309603832492   179.38164601   183.49857717
 H     20  17  14     2.082316716301   111.47092752   179.99208124
 H     32  29  26     2.082710779633   111.51983900   180.01536577
 C     35   3   7     2.698823598102   179.75699023   341.42766537
 C     38  35   3     2.668559932306   120.58474753    12.07271998
 C     39  38  35     2.635291736462   120.41417232   180.00598973
 C     40  39  38     2.644758444031   120.34679423     0.00000000
 C     41  40  39     2.644880136334   119.71592610     0.00000000
 C     42  41  40     2.635188252089   120.34131874     0.00000000
 H     41  40  39     2.064546759115   120.14065751   179.99930227
 H     42  41  40     2.064890377885   120.04735498   179.99952415
 H     39  38  35     2.062873916416   119.10319965     0.00000000
 H     43  42  41     2.062906329695   120.46259005   179.99862574
 H     40  39  38     2.064884422496   119.61095409   179.99912119
 C      1   2   4     2.695344192940   179.44811046     8.16152607
 C     49   1   2     2.669943152924   120.84104545   174.53750930
 C     50  49   1     2.634879374836   120.43886245   180.00675065
 C     51  50  49     2.645095691381   120.37375199     0.00000000
 C     52  51  50     2.645177035137   119.69036683     0.00000000
 C     53  52  51     2.634610644921   120.36137841     0.00000000
 H     52  51  50     2.064536958766   120.15711823   179.99875534
 H     53  52  51     2.064935010616   120.03421118   180.00008802
 H     50  49   1     2.062896353451   119.14533143     0.00000000
 H     54  53  52     2.062897096356   120.48110760   180.00024613
 H     51  50  49     2.064942135608   119.59084068   179.99831588

---------------------
BASIS SET INFORMATION
---------------------
There are 2 groups of distinct atoms

 Group   1 Type C   : 10s5p1d contracted to 6s2p1d pattern {511111/41/1}
 Group   2 Type H   : 6s1p contracted to 4s1p pattern {3111/1}

Atom   0C    basis set group =>   1
Atom   1C    basis set group =>   1
Atom   2C    basis set group =>   1
Atom   3C    basis set group =>   1
Atom   4C    basis set group =>   1
Atom   5C    basis set group =>   1
Atom   6C    basis set group =>   1
Atom   7C    basis set group =>   1
Atom   8C    basis set group =>   1
Atom   9H    basis set group =>   2
Atom  10H    basis set group =>   2
Atom  11C    basis set group =>   1
Atom  12H    basis set group =>   2
Atom  13C    basis set group =>   1
Atom  14H    basis set group =>   2
Atom  15H    basis set group =>   2
Atom  16C    basis set group =>   1
Atom  17H    basis set group =>   2
Atom  18H    basis set group =>   2
Atom  19C    basis set group =>   1
Atom  20H    basis set group =>   2
Atom  21H    basis set group =>   2
Atom  22C    basis set group =>   1
Atom  23H    basis set group =>   2
Atom  24H    basis set group =>   2
Atom  25C    basis set group =>   1
Atom  26H    basis set group =>   2
Atom  27H    basis set group =>   2
Atom  28C    basis set group =>   1
Atom  29H    basis set group =>   2
Atom  30H    basis set group =>   2
Atom  31C    basis set group =>   1
Atom  32H    basis set group =>   2
Atom  33H    basis set group =>   2
Atom  34C    basis set group =>   1
Atom  35H    basis set group =>   2
Atom  36H    basis set group =>   2
Atom  37C    basis set group =>   1
Atom  38C    basis set group =>   1
Atom  39C    basis set group =>   1
Atom  40C    basis set group =>   1
Atom  41C    basis set group =>   1
Atom  42C    basis set group =>   1
Atom  43H    basis set group =>   2
Atom  44H    basis set group =>   2
Atom  45H    basis set group =>   2
Atom  46H    basis set group =>   2
Atom  47H    basis set group =>   2
Atom  48C    basis set group =>   1
Atom  49C    basis set group =>   1
Atom  50C    basis set group =>   1
Atom  51C    basis set group =>   1
Atom  52C    basis set group =>   1
Atom  53C    basis set group =>   1
Atom  54H    basis set group =>   2
Atom  55H    basis set group =>   2
Atom  56H    basis set group =>   2
Atom  57H    basis set group =>   2
Atom  58H    basis set group =>   2
---------------------------------
AUXILIARY/J BASIS SET INFORMATION
---------------------------------
There are 2 groups of distinct atoms

 Group   1 Type C   : 17s13p12d2f contracted to 17s13p12d2f pattern {11111111111111111/1111111111111/111111111111/11}
 Group   2 Type H   : 15s6p1d contracted to 15s6p1d pattern {111111111111111/111111/1}

Atom   0C    basis set group =>   1
Atom   1C    basis set group =>   1
Atom   2C    basis set group =>   1
Atom   3C    basis set group =>   1
Atom   4C    basis set group =>   1
Atom   5C    basis set group =>   1
Atom   6C    basis set group =>   1
Atom   7C    basis set group =>   1
Atom   8C    basis set group =>   1
Atom   9H    basis set group =>   2
Atom  10H    basis set group =>   2
Atom  11C    basis set group =>   1
Atom  12H    basis set group =>   2
Atom  13C    basis set group =>   1
Atom  14H    basis set group =>   2
Atom  15H    basis set group =>   2
Atom  16C    basis set group =>   1
Atom  17H    basis set group =>   2
Atom  18H    basis set group =>   2
Atom  19C    basis set group =>   1
Atom  20H    basis set group =>   2
Atom  21H    basis set group =>   2
Atom  22C    basis set group =>   1
Atom  23H    basis set group =>   2
Atom  24H    basis set group =>   2
Atom  25C    basis set group =>   1
Atom  26H    basis set group =>   2
Atom  27H    basis set group =>   2
Atom  28C    basis set group =>   1
Atom  29H    basis set group =>   2
Atom  30H    basis set group =>   2
Atom  31C    basis set group =>   1
Atom  32H    basis set group =>   2
Atom  33H    basis set group =>   2
Atom  34C    basis set group =>   1
Atom  35H    basis set group =>   2
Atom  36H    basis set group =>   2
Atom  37C    basis set group =>   1
Atom  38C    basis set group =>   1
Atom  39C    basis set group =>   1
Atom  40C    basis set group =>   1
Atom  41C    basis set group =>   1
Atom  42C    basis set group =>   1
Atom  43H    basis set group =>   2
Atom  44H    basis set group =>   2
Atom  45H    basis set group =>   2
Atom  46H    basis set group =>   2
Atom  47H    basis set group =>   2
Atom  48C    basis set group =>   1
Atom  49C    basis set group =>   1
Atom  50C    basis set group =>   1
Atom  51C    basis set group =>   1
Atom  52C    basis set group =>   1
Atom  53C    basis set group =>   1
Atom  54H    basis set group =>   2
Atom  55H    basis set group =>   2
Atom  56H    basis set group =>   2
Atom  57H    basis set group =>   2
Atom  58H    basis set group =>   2
---------------------------------
AUXILIARY/C BASIS SET INFORMATION
---------------------------------
There are 2 groups of distinct atoms

 Group   1 Type C   : 17s13p12d2f contracted to 17s13p12d2f pattern {11111111111111111/1111111111111/111111111111/11}
 Group   2 Type H   : 15s6p1d contracted to 15s6p1d pattern {111111111111111/111111/1}

Atom   0C    basis set group =>   1
Atom   1C    basis set group =>   1
Atom   2C    basis set group =>   1
Atom   3C    basis set group =>   1
Atom   4C    basis set group =>   1
Atom   5C    basis set group =>   1
Atom   6C    basis set group =>   1
Atom   7C    basis set group =>   1
Atom   8C    basis set group =>   1
Atom   9H    basis set group =>   2
Atom  10H    basis set group =>   2
Atom  11C    basis set group =>   1
Atom  12H    basis set group =>   2
Atom  13C    basis set group =>   1
Atom  14H    basis set group =>   2
Atom  15H    basis set group =>   2
Atom  16C    basis set group =>   1
Atom  17H    basis set group =>   2
Atom  18H    basis set group =>   2
Atom  19C    basis set group =>   1
Atom  20H    basis set group =>   2
Atom  21H    basis set group =>   2
Atom  22C    basis set group =>   1
Atom  23H    basis set group =>   2
Atom  24H    basis set group =>   2
Atom  25C    basis set group =>   1
Atom  26H    basis set group =>   2
Atom  27H    basis set group =>   2
Atom  28C    basis set group =>   1
Atom  29H    basis set group =>   2
Atom  30H    basis set group =>   2
Atom  31C    basis set group =>   1
Atom  32H    basis set group =>   2
Atom  33H    basis set group =>   2
Atom  34C    basis set group =>   1
Atom  35H    basis set group =>   2
Atom  36H    basis set group =>   2
Atom  37C    basis set group =>   1
Atom  38C    basis set group =>   1
Atom  39C    basis set group =>   1
Atom  40C    basis set group =>   1
Atom  41C    basis set group =>   1
Atom  42C    basis set group =>   1
Atom  43H    basis set group =>   2
Atom  44H    basis set group =>   2
Atom  45H    basis set group =>   2
Atom  46H    basis set group =>   2
Atom  47H    basis set group =>   2
Atom  48C    basis set group =>   1
Atom  49C    basis set group =>   1
Atom  50C    basis set group =>   1
Atom  51C    basis set group =>   1
Atom  52C    basis set group =>   1
Atom  53C    basis set group =>   1
Atom  54H    basis set group =>   2
Atom  55H    basis set group =>   2
Atom  56H    basis set group =>   2
Atom  57H    basis set group =>   2
Atom  58H    basis set group =>   2
----------------------------------
AUXILIARY/JK BASIS SET INFORMATION
----------------------------------
There are 2 groups of distinct atoms

 Group   1 Type C   : 17s13p12d2f contracted to 17s13p12d2f pattern {11111111111111111/1111111111111/111111111111/11}
 Group   2 Type H   : 15s6p1d contracted to 15s6p1d pattern {111111111111111/111111/1}

Atom   0C    basis set group =>   1
Atom   1C    basis set group =>   1
Atom   2C    basis set group =>   1
Atom   3C    basis set group =>   1
Atom   4C    basis set group =>   1
Atom   5C    basis set group =>   1
Atom   6C    basis set group =>   1
Atom   7C    basis set group =>   1
Atom   8C    basis set group =>   1
Atom   9H    basis set group =>   2
Atom  10H    basis set group =>   2
Atom  11C    basis set group =>   1
Atom  12H    basis set group =>   2
Atom  13C    basis set group =>   1
Atom  14H    basis set group =>   2
Atom  15H    basis set group =>   2
Atom  16C    basis set group =>   1
Atom  17H    basis set group =>   2
Atom  18H    basis set group =>   2
Atom  19C    basis set group =>   1
Atom  20H    basis set group =>   2
Atom  21H    basis set group =>   2
Atom  22C    basis set group =>   1
Atom  23H    basis set group =>   2
Atom  24H    basis set group =>   2
Atom  25C    basis set group =>   1
Atom  26H    basis set group =>   2
Atom  27H    basis set group =>   2
Atom  28C    basis set group =>   1
Atom  29H    basis set group =>   2
Atom  30H    basis set group =>   2
Atom  31C    basis set group =>   1
Atom  32H    basis set group =>   2
Atom  33H    basis set group =>   2
Atom  34C    basis set group =>   1
Atom  35H    basis set group =>   2
Atom  36H    basis set group =>   2
Atom  37C    basis set group =>   1
Atom  38C    basis set group =>   1
Atom  39C    basis set group =>   1
Atom  40C    basis set group =>   1
Atom  41C    basis set group =>   1
Atom  42C    basis set group =>   1
Atom  43H    basis set group =>   2
Atom  44H    basis set group =>   2
Atom  45H    basis set group =>   2
Atom  46H    basis set group =>   2
Atom  47H    basis set group =>   2
Atom  48C    basis set group =>   1
Atom  49C    basis set group =>   1
Atom  50C    basis set group =>   1
Atom  51C    basis set group =>   1
Atom  52C    basis set group =>   1
Atom  53C    basis set group =>   1
Atom  54H    basis set group =>   2
Atom  55H    basis set group =>   2
Atom  56H    basis set group =>   2
Atom  57H    basis set group =>   2
Atom  58H    basis set group =>   2


           ************************************************************
           *        Program running with 16 parallel MPI-processes    *
           *              working on a common directory               *
           ************************************************************
------------------------------------------------------------------------------
                           ORCA GTO INTEGRAL CALCULATION
                           -- RI-GTO INTEGRALS CHOSEN --
------------------------------------------------------------------------------
------------------------------------------------------------------------------
                   ___                                                        
                  /   \      - P O W E R E D   B Y -                         
                 /     \                                                     
                 |  |  |   _    _      __       _____    __    __             
                 |  |  |  | |  | |    /  \     |  _  \  |  |  /  |          
                  \  \/   | |  | |   /    \    | | | |  |  | /  /          
                 / \  \   | |__| |  /  /\  \   | |_| |  |  |/  /          
                |  |  |   |  __  | /  /__\  \  |    /   |      \           
                |  |  |   | |  | | |   __   |  |    \   |  |\   \          
                \     /   | |  | | |  |  |  |  | |\  \  |  | \   \       
                 \___/    |_|  |_| |__|  |__|  |_| \__\ |__|  \__/        
                                                                              
                      - O R C A' S   B I G   F R I E N D -                    
                                      &                                       
                       - I N T E G R A L  F E E D E R -                       
                                                                              
 v1 FN, 2020, v2 2021                                                         
------------------------------------------------------------------------------


Reading SHARK input file EPRII_i.SHARKINP.tmp ... ok
----------------------
SHARK INTEGRAL PACKAGE
----------------------

Number of atoms                             ...     59
Number of basis functions                   ...    713
Number of shells                            ...    415
Maximum angular momentum                    ...      2
Integral batch strategy                     ... SHARK/LIBINT Hybrid
RI-J (if used) integral strategy            ... SPLIT-RIJ (Revised 2003 algorithm where possible)
Printlevel                                  ...      1
Contraction scheme used                     ... SEGMENTED contraction
Coulomb Range Separation                    ... NOT USED
Exchange Range Separation                   ... NOT USED
Finite Nucleus Model                        ... NOT USED
Auxiliary Coulomb fitting basis             ... AVAILABLE
   # of basis functions in Aux-J            ...   5002
   # of shells in Aux-J                     ...   1958
   Maximum angular momentum in Aux-J        ...      3
Auxiliary J/K fitting basis                 ... AVAILABLE
   # of basis functions in Aux-JK           ...   5002
   # of shells in Aux-JK                    ...   1958
   Maximum angular momentum in Aux-JK       ...      3
Auxiliary Correlation fitting basis         ... AVAILABLE
   # of basis functions in Aux-C            ...   5002
   # of shells in Aux-C                     ...   1958
   Maximum angular momentum in Aux-C        ...      3
Auxiliary 'external' fitting basis          ... NOT available
Integral threshold                          ...     1.000000e-10
Primitive cut-off                           ...     1.000000e-11
Primitive pair pre-selection threshold      ...     1.000000e-11

Calculating pre-screening integrals         ... done (  0.0 sec) Dimension = 415
Organizing shell pair data                  ... done (  0.2 sec)
Shell pair information
Total number of shell pairs                 ...     86320
Shell pairs after pre-screening             ...     38308
Total number of primitive shell pairs       ...    234153
Primitive shell pairs kept                  ...     71439
          la=0 lb=0:  17569 shell pairs
          la=1 lb=0:  13142 shell pairs
          la=1 lb=1:   2394 shell pairs
          la=2 lb=0:   3616 shell pairs
          la=2 lb=1:   1382 shell pairs
          la=2 lb=2:    205 shell pairs

Calculating one electron integrals          ... done (  0.1 sec)
Calculating RI/J V-Matrix + Cholesky decomp.... done (  1.4 sec)
Calculating RI/JK V-Matrix + Cholesky decomp... done (  1.4 sec)
Calculating RI/C V-Matrix + Cholesky decomp.... done (  1.4 sec)
Calculating Nuclear repulsion               ... done (  0.0 sec) ENN=   2363.850750878803 Eh

SHARK setup successfully completed in   5.1 seconds

Maximum memory used throughout the entire GTOINT-calculation: 82.4 MB


           ************************************************************
           *        Program running with 16 parallel MPI-processes    *
           *              working on a common directory               *
           ************************************************************
-------------------------------------------------------------------------------
                                 ORCA SCF
-------------------------------------------------------------------------------

------------
SCF SETTINGS
------------
Hamiltonian:
 Density Functional     Method          .... DFT(GTOs)
 Exchange Functional    Exchange        .... B88
   X-Alpha parameter    XAlpha          ....  0.666667
   Becke's b parameter  XBeta           ....  0.004200
 Correlation Functional Correlation     .... LYP
 LDA part of GGA corr.  LDAOpt          .... VWN-5
 Gradients option       PostSCFGGA      .... off
 Hybrid DFT is turned on
   Fraction HF Exchange ScalHFX         ....  0.200000
   Scaling of DF-GGA-X  ScalDFX         ....  0.720000
   Scaling of DF-GGA-C  ScalDFC         ....  0.810000
   Scaling of DF-LDA-C  ScalLDAC        ....  1.000000
   Perturbative correction              ....  0.000000
   Density functional embedding theory  .... OFF
   NL short-range parameter             ....  4.800000
 RI-approximation to the Coulomb term is turned on
   Number of AuxJ basis functions       .... 5002
   RIJ-COSX (HFX calculated with COS-X)).... on


General Settings:
 Integral files         IntName         .... EPRII_i
 Hartree-Fock type      HFTyp           .... UHF
 Total Charge           Charge          ....    0
 Multiplicity           Mult            ....    2
 Number of Electrons    NEL             ....  209
 Basis Dimension        Dim             ....  713
 Nuclear Repulsion      ENuc            ....   2363.8507508788 Eh

Convergence Acceleration:
 DIIS                   CNVDIIS         .... on
   Start iteration      DIISMaxIt       ....    12
   Startup error        DIISStart       ....  0.200000
   # of expansion vecs  DIISMaxEq       ....     5
   Bias factor          DIISBfac        ....   1.050
   Max. coefficient     DIISMaxC        ....  10.000
 Trust-Rad. Augm. Hess. CNVTRAH         .... auto
   Auto Start mean grad. ratio tolernc. ....  1.125000
   Auto Start start iteration           ....    20
   Auto Start num. interpolation iter.  ....    10
   Max. Number of Micro iterations      ....    16
   Max. Number of Macro iterations      .... Maxiter - #DIIS iter
   Number of Davidson start vectors     ....     2
   Converg. threshold I  (grad. norm)   ....   5.000e-05
   Converg. threshold II (energy diff.) ....   1.000e-06
   Grad. Scal. Fac. for Micro threshold ....   0.100
   Minimum threshold for Micro iter.    ....   0.010
   NR start threshold (gradient norm)   ....   0.001
   Initial trust radius                 ....   0.400
   Minimum AH scaling param. (alpha)    ....   1.000
   Maximum AH scaling param. (alpha)    .... 1000.000
   Orbital update algorithm             .... Taylor
   White noise on init. David. guess    .... on
   Maximum white noise                  ....   0.010
   Quad. conv. algorithm                .... NR
 SOSCF                  CNVSOSCF        .... off
 Level Shifting         CNVShift        .... on
   Level shift para.    LevelShift      ....    0.2500
   Turn off err/grad.   ShiftErr        ....    0.0010
 Zerner damping         CNVZerner       .... off
 Static damping         CNVDamp         .... on
   Fraction old density DampFac         ....    0.7000
   Max. Damping (<1)    DampMax         ....    0.9800
   Min. Damping (>=0)   DampMin         ....    0.0000
   Turn off err/grad.   DampErr         ....    0.1000
 Fernandez-Rico         CNVRico         .... off

SCF Procedure:
 Maximum # iterations   MaxIter         ....   125
 SCF integral mode      SCFMode         .... Direct
   Integral package                     .... SHARK and LIBINT hybrid scheme
 Reset frequency        DirectResetFreq ....    20
 Integral Threshold     Thresh          ....  1.000e-10 Eh
 Primitive CutOff       TCut            ....  1.000e-11 Eh

Convergence Tolerance:
 Convergence Check Mode ConvCheckMode   .... Total+1el-Energy
 Convergence forced     ConvForced      .... 0
 Energy Change          TolE            ....  1.000e-06 Eh
 1-El. energy change                    ....  1.000e-03 Eh
 DIIS Error             TolErr          ....  1.000e-06


Diagonalization of the overlap matrix:
Smallest eigenvalue                        ... 4.840e-05
Time for diagonalization                   ...    0.103 sec
Threshold for overlap eigenvalues          ... 1.000e-08
Number of eigenvalues below threshold      ... 0
Time for construction of square roots      ...    0.095 sec
Total time needed                          ...    0.200 sec

Time for model grid setup =    0.436 sec

------------------------------
INITIAL GUESS: MODEL POTENTIAL
------------------------------
Loading Hartree-Fock densities                     ... done
Calculating cut-offs                               ... done
Initializing the effective Hamiltonian             ... done
Setting up the integral package (SHARK)            ... done
Starting the Coulomb interaction                   ... done (   0.4 sec)
Reading the grid                                   ... done
Mapping shells                                     ... done
Starting the XC term evaluation                    ... done (   0.1 sec)
  promolecular density results
     # of electrons  =    208.987696710
     EX              =   -162.717052521
     EC              =     -6.909370204
     EX+EC           =   -169.626422725
Transforming the Hamiltonian                       ... done (   0.0 sec)
Diagonalizing the Hamiltonian                      ... done (   0.1 sec)
Back transforming the eigenvectors                 ... done (   0.0 sec)
Now organizing SCF variables                       ... done
                      ------------------
                      INITIAL GUESS DONE (   1.5 sec)
                      ------------------
-------------------
DFT GRID GENERATION
-------------------

General Integration Accuracy     IntAcc      ... 4.388
Radial Grid Type                 RadialGrid  ... OptM3 with GC (2021)
Angular Grid (max. ang.)         AngularGrid ... 4 (Lebedev-302)
Angular grid pruning method      GridPruning ... 4 (adaptive)
Weight generation scheme         WeightScheme... Becke
Basis function cutoff            BFCut       ... 1.0000e-10
Integration weight cutoff        WCut        ... 1.0000e-14
Angular grids for H and He will be reduced by one unit
Partially contracted basis set               ... off
Rotationally invariant grid construction     ... off

Total number of grid points                  ...   271672
Total number of batches                      ...     4271
Average number of points per batch           ...       63
Average number of grid points per atom       ...     4605
Time for grid setup =    1.738 sec

--------------------
COSX GRID GENERATION
--------------------

GRIDX 1
-------
General Integration Accuracy     IntAcc      ... 3.816
Radial Grid Type                 RadialGrid  ... OptM3 with GC (2021)
Angular Grid (max. ang.)         AngularGrid ... 1 (Lebedev-50)
Angular grid pruning method      GridPruning ... 4 (adaptive)
Weight generation scheme         WeightScheme... Becke
Basis function cutoff            BFCut       ... 1.0000e-10
Integration weight cutoff        WCut        ... 1.0000e-14
Angular grids for H and He will be reduced by one unit
Partially contracted basis set               ... on
Rotationally invariant grid construction     ... off

Total number of grid points                  ...    34621
Total number of batches                      ...      570
Average number of points per batch           ...       60
Average number of grid points per atom       ...      587
UseSFitting                                  ... on

GRIDX 2
-------
General Integration Accuracy     IntAcc      ... 4.020
Radial Grid Type                 RadialGrid  ... OptM3 with GC (2021)
Angular Grid (max. ang.)         AngularGrid ... 2 (Lebedev-110)
Angular grid pruning method      GridPruning ... 4 (adaptive)
Weight generation scheme         WeightScheme... Becke
Basis function cutoff            BFCut       ... 1.0000e-10
Integration weight cutoff        WCut        ... 1.0000e-14
Angular grids for H and He will be reduced by one unit
Partially contracted basis set               ... on
Rotationally invariant grid construction     ... off

Total number of grid points                  ...    73987
Total number of batches                      ...     1188
Average number of points per batch           ...       62
Average number of grid points per atom       ...     1254
UseSFitting                                  ... on

GRIDX 3
-------
General Integration Accuracy     IntAcc      ... 4.338
Radial Grid Type                 RadialGrid  ... OptM3 with GC (2021)
Angular Grid (max. ang.)         AngularGrid ... 3 (Lebedev-194)
Angular grid pruning method      GridPruning ... 4 (adaptive)
Weight generation scheme         WeightScheme... Becke
Basis function cutoff            BFCut       ... 1.0000e-10
Integration weight cutoff        WCut        ... 1.0000e-14
Angular grids for H and He will be reduced by one unit
Partially contracted basis set               ... on
Rotationally invariant grid construction     ... off

Total number of grid points                  ...   161745
Total number of batches                      ...     2559
Average number of points per batch           ...       63
Average number of grid points per atom       ...     2741
UseSFitting                                  ... on

Time for X-Grid setup             =    2.959 sec

--------------
SCF ITERATIONS
--------------
ITER       Energy         Delta-E        Max-DP      RMS-DP      [F,P]     Damp
               ***  Starting incremental Fock matrix formation  ***
  0  -1159.2947704091   0.000000000000 0.10148997  0.00084091  0.0796065 0.7000
  1  -1159.5662982235  -0.271527814426 0.04850988  0.00055715  0.0426164 0.7000
                               ***Turning on DIIS***
  2  -1159.6903890660  -0.124090842464 0.09493651  0.00112796  0.0165442 0.0000
  3  -1159.8668198339  -0.176430767952 0.02875455  0.00031085  0.0233265 0.0000
  4  -1159.9124538292  -0.045633995258 0.02487188  0.00016395  0.0048683 0.0000
  5  -1159.9146935666  -0.002239737448 0.01344356  0.00007446  0.0030327 0.0000
  6  -1159.9150464006  -0.000352833951 0.00550403  0.00003299  0.0023770 0.0000
  7  -1159.9151890792  -0.000142678617 0.00345057  0.00001633  0.0015799 0.0000
  8  -1159.9152738104  -0.000084731266 0.00274926  0.00001121  0.0010654 0.0000
  9  -1159.9153284927  -0.000054682277 0.00356619  0.00001667  0.0006100 0.0000
               *** Restarting incremental Fock matrix formation ***
                                   *** Resetting DIIS ***
 10  -1159.9156547686  -0.000326275918 0.00422389  0.00002347  0.0004854 0.0000
                 **** Energy Check signals convergence ****

               *****************************************************
               *                     SUCCESS                       *
               *           SCF CONVERGED AFTER  11 CYCLES          *
               *****************************************************

Old exchange energy                            =    -33.105139010 Eh
New exchange energy                            =    -33.105169251 Eh
Exchange energy change after final integration =     -0.000030240 Eh
Total energy after final integration           =  -1159.915685307 Eh
Final COS-X integration done in                =    15.829 sec

----------------
TOTAL SCF ENERGY
----------------

Total Energy       :        -1159.91568531 Eh          -31562.91042 eV

Components:
Nuclear Repulsion  :         2363.85075088 Eh           64323.64908 eV
Electronic Energy  :        -3523.76643619 Eh          -95886.55951 eV
One Electron Energy:        -6262.43497111 Eh         -170409.51902 eV
Two Electron Energy:         2738.66853492 Eh           74522.95951 eV
Max COSX asymmetry :            0.00000342 Eh               0.00009 eV

Virial components:
Potential Energy   :        -2310.57723250 Eh          -62874.00295 eV
Kinetic Energy     :         1150.66154719 Eh           31311.09252 eV
Virial Ratio       :            2.00804245


DFT components:
N(Alpha)           :      105.000181377676 electrons
N(Beta)            :      104.000170877268 electrons
N(Total)           :      209.000352254944 electrons
E(X)               :     -131.350598905168 Eh       
E(C)               :       -8.162773038775 Eh       
E(XC)              :     -139.513371943943 Eh       
DFET-embed. en.    :        0.000000000000 Eh       

---------------
SCF CONVERGENCE
---------------

  Last Energy change         ...   -2.9857e-07  Tolerance :   1.0000e-06
  Last MAX-Density change    ...    0.0000e+00  Tolerance :   1.0000e-05
  Last RMS-Density change    ...    0.0000e+00  Tolerance :   1.0000e-06
  Last DIIS Error            ...    8.8176e-04  Tolerance :   1.0000e-06

             **** THE GBW FILE WAS UPDATED (EPRII_i.gbw) ****
             **** DENSITY EPRII_i.scfp WAS UPDATED ****
             **** ENERGY FILE WAS UPDATED (EPRII_i.en.tmp) ****
----------------------
UHF SPIN CONTAMINATION
----------------------

Warning: in a DFT calculation there is little theoretical justification to 
         calculate <S**2> as in Hartree-Fock theory. We will do it anyways
         but you should keep in mind that the values have only limited relevance

Expectation value of <S**2>     :     0.786275
Ideal value S*(S+1) for S=0.5   :     0.750000
Deviation                       :     0.036275

             **** THE GBW FILE WAS UPDATED (EPRII_i.gbw) ****
             **** DENSITY EPRII_i.scfp WAS UPDATED ****
----------------
ORBITAL ENERGIES
----------------
                 SPIN UP ORBITALS
  NO   OCC          E(Eh)            E(eV) 
   0   1.0000     -10.226388      -278.2742 
   1   1.0000     -10.225759      -278.2571 
   2   1.0000     -10.221434      -278.1394 
   3   1.0000     -10.220154      -278.1045 
   4   1.0000     -10.209645      -277.8186 
   5   1.0000     -10.206181      -277.7243 
   6   1.0000     -10.204803      -277.6868 
   7   1.0000     -10.204591      -277.6810 
   8   1.0000     -10.204433      -277.6767 
   9   1.0000     -10.203874      -277.6615 
  10   1.0000     -10.203852      -277.6609 
  11   1.0000     -10.203682      -277.6563 
  12   1.0000     -10.203612      -277.6544 
  13   1.0000     -10.203442      -277.6498 
  14   1.0000     -10.202529      -277.6249 
  15   1.0000     -10.202354      -277.6202 
  16   1.0000     -10.201226      -277.5895 
  17   1.0000     -10.200755      -277.5766 
  18   1.0000     -10.199542      -277.5437 
  19   1.0000     -10.198890      -277.5259 
  20   1.0000     -10.197516      -277.4885 
  21   1.0000     -10.196568      -277.4627 
  22   1.0000     -10.194811      -277.4149 
  23   1.0000     -10.189147      -277.2608 
  24   1.0000     -10.187118      -277.2056 
  25   1.0000     -10.184850      -277.1438 
  26   1.0000     -10.182293      -277.0743 
  27   1.0000     -10.181870      -277.0628 
  28   1.0000     -10.174898      -276.8731 
  29   1.0000     -10.172995      -276.8213 
  30   1.0000      -0.871663       -23.7192 
  31   1.0000      -0.862705       -23.4754 
  32   1.0000      -0.861724       -23.4487 
  33   1.0000      -0.818025       -22.2596 
  34   1.0000      -0.798199       -21.7201 
  35   1.0000      -0.794371       -21.6159 
  36   1.0000      -0.782208       -21.2850 
  37   1.0000      -0.772526       -21.0215 
  38   1.0000      -0.764757       -20.8101 
  39   1.0000      -0.750795       -20.4302 
  40   1.0000      -0.749854       -20.4046 
  41   1.0000      -0.737398       -20.0656 
  42   1.0000      -0.725617       -19.7450 
  43   1.0000      -0.709735       -19.3129 
  44   1.0000      -0.695532       -18.9264 
  45   1.0000      -0.654935       -17.8217 
  46   1.0000      -0.646157       -17.5828 
  47   1.0000      -0.623318       -16.9614 
  48   1.0000      -0.612637       -16.6707 
  49   1.0000      -0.609254       -16.5786 
  50   1.0000      -0.608885       -16.5686 
  51   1.0000      -0.608018       -16.5450 
  52   1.0000      -0.589785       -16.0489 
  53   1.0000      -0.578824       -15.7506 
  54   1.0000      -0.560256       -15.2453 
  55   1.0000      -0.541356       -14.7310 
  56   1.0000      -0.535727       -14.5779 
  57   1.0000      -0.506511       -13.7829 
  58   1.0000      -0.503944       -13.7130 
  59   1.0000      -0.480810       -13.0835 
  60   1.0000      -0.478896       -13.0314 
  61   1.0000      -0.474793       -12.9198 
  62   1.0000      -0.469898       -12.7866 
  63   1.0000      -0.461906       -12.5691 
  64   1.0000      -0.456662       -12.4264 
  65   1.0000      -0.455532       -12.3957 
  66   1.0000      -0.437355       -11.9010 
  67   1.0000      -0.435917       -11.8619 
  68   1.0000      -0.430194       -11.7062 
  69   1.0000      -0.427956       -11.6453 
  70   1.0000      -0.425109       -11.5678 
  71   1.0000      -0.424821       -11.5600 
  72   1.0000      -0.423870       -11.5341 
  73   1.0000      -0.421176       -11.4608 
  74   1.0000      -0.410665       -11.1748 
  75   1.0000      -0.397807       -10.8249 
  76   1.0000      -0.396782       -10.7970 
  77   1.0000      -0.383709       -10.4413 
  78   1.0000      -0.380897       -10.3647 
  79   1.0000      -0.377267       -10.2660 
  80   1.0000      -0.374261       -10.1842 
  81   1.0000      -0.363953        -9.9037 
  82   1.0000      -0.362302        -9.8587 
  83   1.0000      -0.360768        -9.8170 
  84   1.0000      -0.355277        -9.6676 
  85   1.0000      -0.353085        -9.6079 
  86   1.0000      -0.351330        -9.5602 
  87   1.0000      -0.350257        -9.5310 
  88   1.0000      -0.338827        -9.2200 
  89   1.0000      -0.332007        -9.0344 
  90   1.0000      -0.331768        -9.0279 
  91   1.0000      -0.330549        -8.9947 
  92   1.0000      -0.326595        -8.8871 
  93   1.0000      -0.322271        -8.7694 
  94   1.0000      -0.321042        -8.7360 
  95   1.0000      -0.305883        -8.3235 
  96   1.0000      -0.278327        -7.5737 
  97   1.0000      -0.271816        -7.3965 
  98   1.0000      -0.268467        -7.3053 
  99   1.0000      -0.267065        -7.2672 
 100   1.0000      -0.258628        -7.0376 
 101   1.0000      -0.258157        -7.0248 
 102   1.0000      -0.236541        -6.4366 
 103   1.0000      -0.208698        -5.6790 
 104   1.0000      -0.169577        -4.6144 
 105   0.0000      -0.065415        -1.7800 
 106   0.0000      -0.029641        -0.8066 
 107   0.0000      -0.013848        -0.3768 
 108   0.0000      -0.013140        -0.3576 
 109   0.0000       0.002196         0.0598 
 110   0.0000       0.014477         0.3939 
 111   0.0000       0.016038         0.4364 
 112   0.0000       0.017332         0.4716 
 113   0.0000       0.021496         0.5849 
 114   0.0000       0.025384         0.6907 
 115   0.0000       0.031707         0.8628 
 116   0.0000       0.036077         0.9817 
 117   0.0000       0.038381         1.0444 
 118   0.0000       0.042782         1.1642 
 119   0.0000       0.044271         1.2047 
 120   0.0000       0.048576         1.3218 
 121   0.0000       0.055246         1.5033 
 122   0.0000       0.056375         1.5340 
 123   0.0000       0.059714         1.6249 
 124   0.0000       0.064726         1.7613 
 125   0.0000       0.067311         1.8316 
 126   0.0000       0.072606         1.9757 
 127   0.0000       0.076723         2.0877 
 128   0.0000       0.079394         2.1604 
 129   0.0000       0.079663         2.1677 
 130   0.0000       0.090471         2.4618 
 131   0.0000       0.091818         2.4985 
 132   0.0000       0.092292         2.5114 
 133   0.0000       0.100106         2.7240 
 134   0.0000       0.112350         3.0572 
 135   0.0000       0.115904         3.1539 
 136   0.0000       0.122363         3.3297 
 137   0.0000       0.124581         3.3900 
 138   0.0000       0.131429         3.5764 
 139   0.0000       0.137796         3.7496 
 140   0.0000       0.144668         3.9366 
 141   0.0000       0.156089         4.2474 
 142   0.0000       0.160716         4.3733 
 143   0.0000       0.162106         4.4111 
 144   0.0000       0.171714         4.6726 
 145   0.0000       0.174718         4.7543 
 146   0.0000       0.176992         4.8162 
 147   0.0000       0.183420         4.9911 
 148   0.0000       0.184193         5.0121 
 149   0.0000       0.192497         5.2381 
 150   0.0000       0.196245         5.3401 
 151   0.0000       0.198393         5.3985 
 152   0.0000       0.200541         5.4570 
 153   0.0000       0.202908         5.5214 
 154   0.0000       0.203022         5.5245 
 155   0.0000       0.206407         5.6166 
 156   0.0000       0.216113         5.8807 
 157   0.0000       0.216258         5.8847 
 158   0.0000       0.218574         5.9477 
 159   0.0000       0.220373         5.9967 
 160   0.0000       0.224166         6.0999 
 161   0.0000       0.226848         6.1728 
 162   0.0000       0.227239         6.1835 
 163   0.0000       0.236908         6.4466 
 164   0.0000       0.239850         6.5267 
 165   0.0000       0.244179         6.6445 
 166   0.0000       0.245499         6.6804 
 167   0.0000       0.248967         6.7747 
 168   0.0000       0.252439         6.8692 
 169   0.0000       0.252674         6.8756 
 170   0.0000       0.254773         6.9327 
 171   0.0000       0.258199         7.0259 
 172   0.0000       0.263784         7.1779 
 173   0.0000       0.267580         7.2812 
 174   0.0000       0.268004         7.2928 
 175   0.0000       0.276479         7.5234 
 176   0.0000       0.276752         7.5308 
 177   0.0000       0.277705         7.5567 
 178   0.0000       0.280459         7.6317 
 179   0.0000       0.282017         7.6741 
 180   0.0000       0.284657         7.7459 
 181   0.0000       0.287339         7.8189 
 182   0.0000       0.292364         7.9556 
 183   0.0000       0.293065         7.9747 
 184   0.0000       0.294856         8.0234 
 185   0.0000       0.296515         8.0686 
 186   0.0000       0.299877         8.1601 
 187   0.0000       0.304608         8.2888 
 188   0.0000       0.306385         8.3371 
 189   0.0000       0.309359         8.4181 
 190   0.0000       0.310558         8.4507 
 191   0.0000       0.312291         8.4979 
 192   0.0000       0.314189         8.5495 
 193   0.0000       0.315407         8.5827 
 194   0.0000       0.317658         8.6439 
 195   0.0000       0.319297         8.6885 
 196   0.0000       0.320574         8.7233 
 197   0.0000       0.323796         8.8109 
 198   0.0000       0.325984         8.8705 
 199   0.0000       0.329284         8.9603 
 200   0.0000       0.333854         9.0846 
 201   0.0000       0.335708         9.1351 
 202   0.0000       0.338256         9.2044 
 203   0.0000       0.343812         9.3556 
 204   0.0000       0.345373         9.3981 
 205   0.0000       0.346840         9.4380 
 206   0.0000       0.348849         9.4927 
 207   0.0000       0.352150         9.5825 
 208   0.0000       0.356995         9.7143 
 209   0.0000       0.363663         9.8958 
 210   0.0000       0.369914        10.0659 
 211   0.0000       0.372922        10.1477 
 212   0.0000       0.374208        10.1827 
 213   0.0000       0.378874        10.3097 
 214   0.0000       0.380005        10.3405 
 215   0.0000       0.389881        10.6092 
 216   0.0000       0.398736        10.8502 
 217   0.0000       0.399211        10.8631 
 218   0.0000       0.405005        11.0208 
 219   0.0000       0.408859        11.1256 
 220   0.0000       0.412573        11.2267 
 221   0.0000       0.415361        11.3025 
 222   0.0000       0.417759        11.3678 
 223   0.0000       0.422841        11.5061 
 224   0.0000       0.423267        11.5177 
 225   0.0000       0.426340        11.6013 
 226   0.0000       0.430610        11.7175 
 227   0.0000       0.431200        11.7336 
 228   0.0000       0.431229        11.7343 
 229   0.0000       0.436079        11.8663 
 230   0.0000       0.442597        12.0437 
 231   0.0000       0.447762        12.1842 
 232   0.0000       0.451895        12.2967 
 233   0.0000       0.452258        12.3066 
 234   0.0000       0.455160        12.3855 
 235   0.0000       0.458845        12.4858 
 236   0.0000       0.460823        12.5396 
 237   0.0000       0.464528        12.6404 
 238   0.0000       0.470732        12.8093 
 239   0.0000       0.472009        12.8440 
 240   0.0000       0.474356        12.9079 
 241   0.0000       0.475643        12.9429 
 242   0.0000       0.483778        13.1643 
 243   0.0000       0.484618        13.1871 
 244   0.0000       0.484978        13.1969 
 245   0.0000       0.491893        13.3851 
 246   0.0000       0.492835        13.4107 
 247   0.0000       0.503981        13.7140 
 248   0.0000       0.505574        13.7574 
 249   0.0000       0.508249        13.8302 
 250   0.0000       0.511741        13.9252 
 251   0.0000       0.516440        14.0531 
 252   0.0000       0.523227        14.2377 
 253   0.0000       0.531026        14.4500 
 254   0.0000       0.531456        14.4617 
 255   0.0000       0.534452        14.5432 
 256   0.0000       0.537387        14.6231 
 257   0.0000       0.539170        14.6716 
 258   0.0000       0.549658        14.9570 
 259   0.0000       0.554078        15.0772 
 260   0.0000       0.561276        15.2731 
 261   0.0000       0.562645        15.3103 
 262   0.0000       0.563881        15.3440 
 263   0.0000       0.577895        15.7253 
 264   0.0000       0.579598        15.7717 
 265   0.0000       0.587951        15.9990 
 266   0.0000       0.590358        16.0645 
 267   0.0000       0.597498        16.2588 
 268   0.0000       0.599396        16.3104 
 269   0.0000       0.607700        16.5364 
 270   0.0000       0.621218        16.9042 
 271   0.0000       0.625161        17.0115 
 272   0.0000       0.635105        17.2821 
 273   0.0000       0.642837        17.4925 
 274   0.0000       0.643024        17.4976 
 275   0.0000       0.653084        17.7713 
 276   0.0000       0.658960        17.9312 
 277   0.0000       0.661205        17.9923 
 278   0.0000       0.668719        18.1968 
 279   0.0000       0.670801        18.2534 
 280   0.0000       0.672772        18.3071 
 281   0.0000       0.675802        18.3895 
 282   0.0000       0.679474        18.4894 
 283   0.0000       0.686259        18.6741 
 284   0.0000       0.700297        19.0560 
 285   0.0000       0.707391        19.2491 
 286   0.0000       0.725040        19.7293 
 287   0.0000       0.728510        19.8238 
 288   0.0000       0.736929        20.0528 
 289   0.0000       0.761902        20.7324 
 290   0.0000       0.766009        20.8442 
 291   0.0000       0.770141        20.9566 
 292   0.0000       0.774019        21.0621 
 293   0.0000       0.791464        21.5368 
 294   0.0000       0.796311        21.6687 
 295   0.0000       0.808960        22.0129 
 296   0.0000       0.819969        22.3125 
 297   0.0000       0.834492        22.7077 
 298   0.0000       0.837225        22.7820 
 299   0.0000       0.839240        22.8369 
 300   0.0000       0.843112        22.9422 
 301   0.0000       0.849612        23.1191 
 302   0.0000       0.853467        23.2240 
 303   0.0000       0.856060        23.2946 
 304   0.0000       0.861706        23.4482 
 305   0.0000       0.865057        23.5394 
 306   0.0000       0.866177        23.5699 
 307   0.0000       0.870397        23.6847 
 308   0.0000       0.871295        23.7091 
 309   0.0000       0.884657        24.0727 
 310   0.0000       0.892035        24.2735 
 311   0.0000       0.896583        24.3973 
 312   0.0000       0.899699        24.4821 
 313   0.0000       0.903098        24.5746 
 314   0.0000       0.904133        24.6027 
 315   0.0000       0.912237        24.8232 
 316   0.0000       0.912331        24.8258 
 317   0.0000       0.915260        24.9055 
 318   0.0000       0.918576        24.9957 
 319   0.0000       0.926705        25.2169 
 320   0.0000       0.928624        25.2692 
 321   0.0000       0.931677        25.3522 
 322   0.0000       0.938133        25.5279 
 323   0.0000       0.939414        25.5628 
 324   0.0000       0.945608        25.7313 
 325   0.0000       0.949471        25.8364 
 326   0.0000       0.950573        25.8664 
 327   0.0000       0.961091        26.1526 
 328   0.0000       0.962184        26.1824 
 329   0.0000       0.966241        26.2928 
 330   0.0000       0.974480        26.5170 
 331   0.0000       0.977610        26.6021 
 332   0.0000       0.978605        26.6292 
 333   0.0000       0.981198        26.6997 
 334   0.0000       0.986083        26.8327 
 335   0.0000       0.991592        26.9826 
 336   0.0000       0.994986        27.0749 
 337   0.0000       0.997694        27.1486 
 338   0.0000       0.997838        27.1525 
 339   0.0000       0.999313        27.1927 
 340   0.0000       1.002047        27.2671 
 341   0.0000       1.003665        27.3111 
 342   0.0000       1.006083        27.3769 
 343   0.0000       1.008736        27.4491 
 344   0.0000       1.018169        27.7058 
 345   0.0000       1.024913        27.8893 
 346   0.0000       1.025409        27.9028 
 347   0.0000       1.026144        27.9228 
 348   0.0000       1.029028        28.0013 
 349   0.0000       1.030207        28.0334 
 350   0.0000       1.034252        28.1434 
 351   0.0000       1.042762        28.3750 
 352   0.0000       1.050441        28.5839 
 353   0.0000       1.059435        28.8287 
 354   0.0000       1.060406        28.8551 
 355   0.0000       1.060750        28.8645 
 356   0.0000       1.067768        29.0554 
 357   0.0000       1.071248        29.1501 
 358   0.0000       1.092256        29.7218 
 359   0.0000       1.094132        29.7728 
 360   0.0000       1.104844        30.0643 
 361   0.0000       1.106453        30.1081 
 362   0.0000       1.116075        30.3699 
 363   0.0000       1.117536        30.4097 
 364   0.0000       1.118629        30.4394 
 365   0.0000       1.130663        30.7669 
 366   0.0000       1.138425        30.9781 
 367   0.0000       1.141513        31.0622 
 368   0.0000       1.152107        31.3504 
 369   0.0000       1.153277        31.3823 
 370   0.0000       1.171072        31.8665 
 371   0.0000       1.173690        31.9377 
 372   0.0000       1.175538        31.9880 
 373   0.0000       1.180449        32.1216 
 374   0.0000       1.190328        32.3905 
 375   0.0000       1.191758        32.4294 
 376   0.0000       1.205146        32.7937 
 377   0.0000       1.207931        32.8695 
 378   0.0000       1.219575        33.1863 
 379   0.0000       1.227627        33.4054 
 380   0.0000       1.237834        33.6832 
 381   0.0000       1.241882        33.7933 
 382   0.0000       1.253402        34.1068 
 383   0.0000       1.272537        34.6275 
 384   0.0000       1.276366        34.7317 
 385   0.0000       1.276514        34.7357 
 386   0.0000       1.299924        35.3727 
 387   0.0000       1.304975        35.5102 
 388   0.0000       1.306636        35.5554 
 389   0.0000       1.313591        35.7446 
 390   0.0000       1.316057        35.8117 
 391   0.0000       1.319309        35.9002 
 392   0.0000       1.321829        35.9688 
 393   0.0000       1.327814        36.1317 
 394   0.0000       1.346489        36.6398 
 395   0.0000       1.352279        36.7974 
 396   0.0000       1.355813        36.8935 
 397   0.0000       1.358575        36.9687 
 398   0.0000       1.366931        37.1961 
 399   0.0000       1.376684        37.4615 
 400   0.0000       1.386644        37.7325 
 401   0.0000       1.391032        37.8519 
 402   0.0000       1.401677        38.1416 
 403   0.0000       1.408425        38.3252 
 404   0.0000       1.422473        38.7075 
 405   0.0000       1.426700        38.8225 
 406   0.0000       1.427191        38.8359 
 407   0.0000       1.431839        38.9623 
 408   0.0000       1.432025        38.9674 
 409   0.0000       1.441829        39.2342 
 410   0.0000       1.442968        39.2652 
 411   0.0000       1.445615        39.3372 
 412   0.0000       1.450647        39.4741 
 413   0.0000       1.452952        39.5368 
 414   0.0000       1.454808        39.5873 
 415   0.0000       1.455444        39.6046 
 416   0.0000       1.472577        40.0708 
 417   0.0000       1.476433        40.1758 
 418   0.0000       1.485935        40.4343 
 419   0.0000       1.493216        40.6325 
 420   0.0000       1.498384        40.7731 
 421   0.0000       1.501683        40.8629 
 422   0.0000       1.507184        41.0126 
 423   0.0000       1.509441        41.0740 
 424   0.0000       1.512458        41.1561 
 425   0.0000       1.515662        41.2433 
 426   0.0000       1.520748        41.3817 
 427   0.0000       1.537596        41.8401 
 428   0.0000       1.547420        42.1074 
 429   0.0000       1.561954        42.5029 
 430   0.0000       1.562441        42.5162 
 431   0.0000       1.562647        42.5218 
 432   0.0000       1.563303        42.5396 
 433   0.0000       1.565321        42.5946 
 434   0.0000       1.572878        42.8002 
 435   0.0000       1.584869        43.1265 
 436   0.0000       1.585686        43.1487 
 437   0.0000       1.589781        43.2601 
 438   0.0000       1.591123        43.2967 
 439   0.0000       1.597346        43.4660 
 440   0.0000       1.600169        43.5428 
 441   0.0000       1.604280        43.6547 
 442   0.0000       1.608995        43.7830 
 443   0.0000       1.620261        44.0895 
 444   0.0000       1.623678        44.1825 
 445   0.0000       1.635538        44.5053 
 446   0.0000       1.636108        44.5208 
 447   0.0000       1.640041        44.6278 
 448   0.0000       1.640472        44.6395 
 449   0.0000       1.641656        44.6717 
 450   0.0000       1.644714        44.7549 
 451   0.0000       1.656890        45.0863 
 452   0.0000       1.660741        45.1910 
 453   0.0000       1.663118        45.2557 
 454   0.0000       1.668124        45.3920 
 455   0.0000       1.682456        45.7820 
 456   0.0000       1.683081        45.7990 
 457   0.0000       1.684779        45.8452 
 458   0.0000       1.685586        45.8671 
 459   0.0000       1.687384        45.9161 
 460   0.0000       1.696151        46.1546 
 461   0.0000       1.696784        46.1718 
 462   0.0000       1.703146        46.3450 
 463   0.0000       1.705802        46.4172 
 464   0.0000       1.715645        46.6851 
 465   0.0000       1.720104        46.8064 
 466   0.0000       1.721999        46.8580 
 467   0.0000       1.722502        46.8717 
 468   0.0000       1.732921        47.1552 
 469   0.0000       1.738614        47.3101 
 470   0.0000       1.743035        47.4304 
 471   0.0000       1.764287        48.0087 
 472   0.0000       1.767072        48.0845 
 473   0.0000       1.772863        48.2421 
 474   0.0000       1.774089        48.2754 
 475   0.0000       1.776603        48.3438 
 476   0.0000       1.778091        48.3843 
 477   0.0000       1.787872        48.6505 
 478   0.0000       1.792180        48.7677 
 479   0.0000       1.793426        48.8016 
 480   0.0000       1.796466        48.8843 
 481   0.0000       1.806496        49.1573 
 482   0.0000       1.811412        49.2910 
 483   0.0000       1.817067        49.4449 
 484   0.0000       1.828690        49.7612 
 485   0.0000       1.834516        49.9197 
 486   0.0000       1.836901        49.9846 
 487   0.0000       1.838430        50.0262 
 488   0.0000       1.843137        50.1543 
 489   0.0000       1.855198        50.4825 
 490   0.0000       1.856011        50.5046 
 491   0.0000       1.860878        50.6371 
 492   0.0000       1.864700        50.7411 
 493   0.0000       1.874948        51.0199 
 494   0.0000       1.884020        51.2668 
 495   0.0000       1.918260        52.1985 
 496   0.0000       1.927554        52.4514 
 497   0.0000       1.935735        52.6740 
 498   0.0000       1.938027        52.7364 
 499   0.0000       1.945637        52.9435 
 500   0.0000       1.953411        53.1550 
 501   0.0000       1.972926        53.6860 
 502   0.0000       1.975261        53.7496 
 503   0.0000       1.975388        53.7530 
 504   0.0000       1.976028        53.7705 
 505   0.0000       2.013827        54.7990 
 506   0.0000       2.018556        54.9277 
 507   0.0000       2.025121        55.1063 
 508   0.0000       2.037102        55.4324 
 509   0.0000       2.040141        55.5151 
 510   0.0000       2.042617        55.5824 
 511   0.0000       2.045314        55.6558 
 512   0.0000       2.057618        55.9906 
 513   0.0000       2.078900        56.5697 
 514   0.0000       2.089270        56.8519 
 515   0.0000       2.100072        57.1459 
 516   0.0000       2.111513        57.4572 
 517   0.0000       2.112539        57.4851 
 518   0.0000       2.120916        57.7131 
 519   0.0000       2.135921        58.1214 
 520   0.0000       2.141515        58.2736 
 521   0.0000       2.155485        58.6537 
 522   0.0000       2.186323        59.4929 
 523   0.0000       2.191907        59.6448 
 524   0.0000       2.199829        59.8604 
 525   0.0000       2.201806        59.9142 
 526   0.0000       2.203403        59.9577 
 527   0.0000       2.203630        59.9638 
 528   0.0000       2.227740        60.6199 
 529   0.0000       2.228563        60.6423 
 530   0.0000       2.245901        61.1141 
 531   0.0000       2.252333        61.2891 
 532   0.0000       2.259836        61.4933 
 533   0.0000       2.265292        61.6417 
 534   0.0000       2.281867        62.0928 
 535   0.0000       2.308857        62.8272 
 536   0.0000       2.314006        62.9673 
 537   0.0000       2.319711        63.1225 
 538   0.0000       2.324572        63.2548 
 539   0.0000       2.325094        63.2690 
 540   0.0000       2.354371        64.0657 
 541   0.0000       2.375632        64.6442 
 542   0.0000       2.386876        64.9502 
 543   0.0000       2.392018        65.0901 
 544   0.0000       2.399710        65.2994 
 545   0.0000       2.402306        65.3701 
 546   0.0000       2.409239        65.5587 
 547   0.0000       2.413356        65.6708 
 548   0.0000       2.415565        65.7309 
 549   0.0000       2.417245        65.7766 
 550   0.0000       2.429609        66.1130 
 551   0.0000       2.443600        66.4937 
 552   0.0000       2.456189        66.8363 
 553   0.0000       2.459702        66.9319 
 554   0.0000       2.462873        67.0182 
 555   0.0000       2.468545        67.1725 
 556   0.0000       2.475117        67.3513 
 557   0.0000       2.481943        67.5371 
 558   0.0000       2.499544        68.0161 
 559   0.0000       2.509558        68.2885 
 560   0.0000       2.513367        68.3922 
 561   0.0000       2.513413        68.3934 
 562   0.0000       2.515149        68.4407 
 563   0.0000       2.523745        68.6746 
 564   0.0000       2.535325        68.9897 
 565   0.0000       2.544603        69.2422 
 566   0.0000       2.545556        69.2681 
 567   0.0000       2.559556        69.6491 
 568   0.0000       2.563109        69.7457 
 569   0.0000       2.568545        69.8937 
 570   0.0000       2.570857        69.9566 
 571   0.0000       2.579643        70.1956 
 572   0.0000       2.583646        70.3046 
 573   0.0000       2.585174        70.3461 
 574   0.0000       2.588754        70.4436 
[...]

 -----------------------------------------------------------
 Nucleus  56H : A:ISTP=    1 I=  0.5 P=533.5514 MHz/au**3
                Q:ISTP=    2 I=  1.0 Q=  0.0029 barn     
 -----------------------------------------------------------
 Solving for nuclear perturbation:
Forming RHS of the CP-SCF equations         ... 
Calc. nucleus orbit integrals (SHARK)       ... done

------------------------------------------------------------------------------
                           ORCA CP-SCF CALCULATION
------------------------------------------------------------------------------

Input orbitals are from        ... EPRII_i.gbw
Input Perturbation             ... EPRII_i.pin.tmp
Wavefunction output            ... EPRII_i.pout.tmp
Perturbation mode              ... Imaginary perturbation
Solver                         ... POPLE
Max. number of iterations      ... 64
Convergence tolerance          ... 1.000e-03
Integral handling              ... Direct
DFT GridXC                     ... 1
COSX GridX                     ... 1
COSX IntAccX                   ... 3.067
COSX Algorithm                 ... Auto
Number of perturbations        ... 3
Number of operators            ... 2
Orbital ranges used for CP-SCF:
 Operator 0:  Orbitals   0...104  to 105...712
 Operator 1:  Orbitals   0...103  to 104...712
Variables per perturbation     ... 127176
DFT calculation                         ... on
XC functional terms                     ... off
Hybrid DFT                              ... on
   Exchange mixing (SCF)                ...  0.200
   Exchange mixing (CP-SCF)             ...  0.200
   GGA exch. scaling(SCF)               ...  0.720
   GGA exch. scaling (CP-SCF)           ...  0.720
   GGA corr. scaling (SCF)              ...  0.810
   GGA corr. scaling (CP-SCF)           ...  0.810

CP-SCF GRID
-----------

General Integration Accuracy     IntAcc      ... 3.467
Radial Grid Type                 RadialGrid  ... OptM3 with GC (2021)
Angular Grid (max. ang.)         AngularGrid ... 1 (Lebedev-50)
Angular grid pruning method      GridPruning ... 4 (adaptive)
Weight generation scheme         WeightScheme... Becke
Basis function cutoff            BFCut       ... 1.0000e-10
Integration weight cutoff        WCut        ... 1.0000e-14
Angular grids for H and He will be reduced by one unit
Partially contracted basis set               ... off
Rotationally invariant grid construction     ... off

Total number of grid points                  ...    38985
Total number of batches                      ...      633
Average number of points per batch           ...       61
Average number of grid points per atom       ...      661

CP-SCF GRIDX
------------

General Integration Accuracy     IntAcc      ... 3.067
Radial Grid Type                 RadialGrid  ... OptM3 with GC (2021)
Angular Grid (max. ang.)         AngularGrid ... 1 (Lebedev-50)
Angular grid pruning method      GridPruning ... 4 (adaptive)
Weight generation scheme         WeightScheme... Becke
Basis function cutoff            BFCut       ... 1.0000e-10
Integration weight cutoff        WCut        ... 1.0000e-14
Angular grids for H and He will be reduced by one unit
Partially contracted basis set               ... on
Rotationally invariant grid construction     ... off

Total number of grid points                  ...    18241
Total number of batches                      ...      321
Average number of points per batch           ...       56
Average number of grid points per atom       ...      309

Memory available               ... 799.6 MB
Memory needed per perturbation ...  29.8 MB
Perturbations treated per batch... 3
Number of batches              ... 1
     CP-SCF ITERATION   0:   4.6110e-02 (   3.2 sec   0/  3 done)
     CP-SCF ITERATION   1:   2.0997e-03 (   3.2 sec   0/  3 done)
     CP-SCF ITERATION   2:   1.4362e-04 (   3.5 sec   3/  3 done)
                    *** THE CP-SCF HAS CONVERGED ***

Forming final perturbed densities           ... done
Transforming perturbed density to AO basis  ... done

 Raw HFC matrix (all values in MHz): 
 -----------------------------------
                -1.0358               0.5472              -0.0018
                 0.5469              -1.5045              -0.0018
                -0.0018              -0.0018              -2.5478

 A(FC)          -1.6965              -1.6965              -1.6965
 A(SD)           1.0208              -0.1696              -0.8512
 A(ORB+DIA)      0.0007               0.0008              -0.0002    A(PC) =   0.0005
 A(ORB)          0.0006               0.0007               0.0000    A(PC) =   0.0004
 A(DIA)          0.0001               0.0001              -0.0002    A(PC) =   0.0000
             ----------           ----------           ----------
 A(Tot)         -0.6750              -1.8653              -2.5478    A(iso)=   -1.6960
 Orientation: 
  X           0.8347755            0.5505900           -0.0007353
  Y           0.5505889           -0.8347755           -0.0013387
  Z          -0.0013509            0.0007127           -0.9999988

Notes:  (1) The A matrix conforms to the "SAI" spin Hamiltonian convention.
        (2) Tensor is right-handed.

 -----------------------------------------------------------
 Nucleus  57H : A:ISTP=    1 I=  0.5 P=533.5514 MHz/au**3
                Q:ISTP=    2 I=  1.0 Q=  0.0029 barn     
 -----------------------------------------------------------
 Solving for nuclear perturbation:
Forming RHS of the CP-SCF equations         ... 
Calc. nucleus orbit integrals (SHARK)       ... done

------------------------------------------------------------------------------
                           ORCA CP-SCF CALCULATION
------------------------------------------------------------------------------

Input orbitals are from        ... EPRII_i.gbw
Input Perturbation             ... EPRII_i.pin.tmp
Wavefunction output            ... EPRII_i.pout.tmp
Perturbation mode              ... Imaginary perturbation
Solver                         ... POPLE
Max. number of iterations      ... 64
Convergence tolerance          ... 1.000e-03
Integral handling              ... Direct
DFT GridXC                     ... 1
COSX GridX                     ... 1
COSX IntAccX                   ... 3.067
COSX Algorithm                 ... Auto
Number of perturbations        ... 3
Number of operators            ... 2
Orbital ranges used for CP-SCF:
 Operator 0:  Orbitals   0...104  to 105...712
 Operator 1:  Orbitals   0...103  to 104...712
Variables per perturbation     ... 127176
DFT calculation                         ... on
XC functional terms                     ... off
Hybrid DFT                              ... on
   Exchange mixing (SCF)                ...  0.200
   Exchange mixing (CP-SCF)             ...  0.200
   GGA exch. scaling(SCF)               ...  0.720
   GGA exch. scaling (CP-SCF)           ...  0.720
   GGA corr. scaling (SCF)              ...  0.810
   GGA corr. scaling (CP-SCF)           ...  0.810

CP-SCF GRID
-----------

General Integration Accuracy     IntAcc      ... 3.467
Radial Grid Type                 RadialGrid  ... OptM3 with GC (2021)
Angular Grid (max. ang.)         AngularGrid ... 1 (Lebedev-50)
Angular grid pruning method      GridPruning ... 4 (adaptive)
Weight generation scheme         WeightScheme... Becke
Basis function cutoff            BFCut       ... 1.0000e-10
Integration weight cutoff        WCut        ... 1.0000e-14
Angular grids for H and He will be reduced by one unit
Partially contracted basis set               ... off
Rotationally invariant grid construction     ... off

Total number of grid points                  ...    38985
Total number of batches                      ...      633
Average number of points per batch           ...       61
Average number of grid points per atom       ...      661

CP-SCF GRIDX
------------

General Integration Accuracy     IntAcc      ... 3.067
Radial Grid Type                 RadialGrid  ... OptM3 with GC (2021)
Angular Grid (max. ang.)         AngularGrid ... 1 (Lebedev-50)
Angular grid pruning method      GridPruning ... 4 (adaptive)
Weight generation scheme         WeightScheme... Becke
Basis function cutoff            BFCut       ... 1.0000e-10
Integration weight cutoff        WCut        ... 1.0000e-14
Angular grids for H and He will be reduced by one unit
Partially contracted basis set               ... on
Rotationally invariant grid construction     ... off

Total number of grid points                  ...    18241
Total number of batches                      ...      321
Average number of points per batch           ...       56
Average number of grid points per atom       ...      309

Memory available               ... 798.6 MB
Memory needed per perturbation ...  29.8 MB
Perturbations treated per batch... 3
Number of batches              ... 1
     CP-SCF ITERATION   0:   4.6012e-02 (   3.2 sec   0/  3 done)
     CP-SCF ITERATION   1:   1.9891e-03 (   3.3 sec   0/  3 done)
     CP-SCF ITERATION   2:   1.3645e-04 (   3.3 sec   3/  3 done)
                    *** THE CP-SCF HAS CONVERGED ***

Forming final perturbed densities           ... done
Transforming perturbed density to AO basis  ... done

 Raw HFC matrix (all values in MHz): 
 -----------------------------------
                -1.8412              -0.2130               0.0000
                -0.2125              -1.0251              -0.0022
                 0.0000              -0.0022              -2.2480

 A(FC)          -1.7051              -1.7051              -1.7051
 A(SD)           0.7320              -0.1891              -0.5428
 A(ORB+DIA)      0.0002               0.0009              -0.0001    A(PC) =   0.0003
 A(ORB)          0.0000               0.0008               0.0000    A(PC) =   0.0003
 A(DIA)          0.0001               0.0001              -0.0001    A(PC) =   0.0001
             ----------           ----------           ----------
 A(Tot)         -0.9729              -1.8933              -2.2480    A(iso)=   -1.7047
 Orientation: 
  X          -0.2382347            0.9712072           -0.0009064
  Y           0.9712062            0.2382327           -0.0019232
  Z          -0.0016519           -0.0013385           -0.9999977

Notes:  (1) The A matrix conforms to the "SAI" spin Hamiltonian convention.
        (2) Tensor is right-handed.

 -----------------------------------------------------------
 Nucleus  58H : A:ISTP=    1 I=  0.5 P=533.5514 MHz/au**3
                Q:ISTP=    2 I=  1.0 Q=  0.0029 barn     
 -----------------------------------------------------------
 Solving for nuclear perturbation:
Forming RHS of the CP-SCF equations         ... 
Calc. nucleus orbit integrals (SHARK)       ... done

------------------------------------------------------------------------------
                           ORCA CP-SCF CALCULATION
------------------------------------------------------------------------------

Input orbitals are from        ... EPRII_i.gbw
Input Perturbation             ... EPRII_i.pin.tmp
Wavefunction output            ... EPRII_i.pout.tmp
Perturbation mode              ... Imaginary perturbation
Solver                         ... POPLE
Max. number of iterations      ... 64
Convergence tolerance          ... 1.000e-03
Integral handling              ... Direct
DFT GridXC                     ... 1
COSX GridX                     ... 1
COSX IntAccX                   ... 3.067
COSX Algorithm                 ... Auto
Number of perturbations        ... 3
Number of operators            ... 2
Orbital ranges used for CP-SCF:
 Operator 0:  Orbitals   0...104  to 105...712
 Operator 1:  Orbitals   0...103  to 104...712
Variables per perturbation     ... 127176
DFT calculation                         ... on
XC functional terms                     ... off
Hybrid DFT                              ... on
   Exchange mixing (SCF)                ...  0.200
   Exchange mixing (CP-SCF)             ...  0.200
   GGA exch. scaling(SCF)               ...  0.720
   GGA exch. scaling (CP-SCF)           ...  0.720
   GGA corr. scaling (SCF)              ...  0.810
   GGA corr. scaling (CP-SCF)           ...  0.810

CP-SCF GRID
-----------

General Integration Accuracy     IntAcc      ... 3.467
Radial Grid Type                 RadialGrid  ... OptM3 with GC (2021)
Angular Grid (max. ang.)         AngularGrid ... 1 (Lebedev-50)
Angular grid pruning method      GridPruning ... 4 (adaptive)
Weight generation scheme         WeightScheme... Becke
Basis function cutoff            BFCut       ... 1.0000e-10
Integration weight cutoff        WCut        ... 1.0000e-14
Angular grids for H and He will be reduced by one unit
Partially contracted basis set               ... off
Rotationally invariant grid construction     ... off

Total number of grid points                  ...    38985
Total number of batches                      ...      633
Average number of points per batch           ...       61
Average number of grid points per atom       ...      661

CP-SCF GRIDX
------------

General Integration Accuracy     IntAcc      ... 3.067
Radial Grid Type                 RadialGrid  ... OptM3 with GC (2021)
Angular Grid (max. ang.)         AngularGrid ... 1 (Lebedev-50)
Angular grid pruning method      GridPruning ... 4 (adaptive)
Weight generation scheme         WeightScheme... Becke
Basis function cutoff            BFCut       ... 1.0000e-10
Integration weight cutoff        WCut        ... 1.0000e-14
Angular grids for H and He will be reduced by one unit
Partially contracted basis set               ... on
Rotationally invariant grid construction     ... off

Total number of grid points                  ...    18241
Total number of batches                      ...      321
Average number of points per batch           ...       56
Average number of grid points per atom       ...      309

Memory available               ... 797.7 MB
Memory needed per perturbation ...  29.8 MB
Perturbations treated per batch... 3
Number of batches              ... 1
     CP-SCF ITERATION   0:   4.1903e-02 (   3.1 sec   0/  3 done)
     CP-SCF ITERATION   1:   1.7282e-03 (   3.4 sec   1/  3 done)
     CP-SCF ITERATION   2:   9.3869e-05 (   2.9 sec   3/  3 done)
                    *** THE CP-SCF HAS CONVERGED ***

Forming final perturbed densities           ... done
Transforming perturbed density to AO basis  ... done

 Raw HFC matrix (all values in MHz): 
 -----------------------------------
                 1.2854               0.2425              -0.0004
                 0.2425               0.5036              -0.0002
                -0.0004              -0.0002               0.2943

 A(FC)           0.6945               0.6945               0.6945
 A(SD)          -0.4001              -0.2601               0.6602
 A(ORB+DIA)     -0.0000               0.0001              -0.0001    A(PC) =  -0.0000
 A(ORB)         -0.0000               0.0001              -0.0002    A(PC) =  -0.0000
 A(DIA)         -0.0000              -0.0000               0.0000    A(PC) =   0.0000
             ----------           ----------           ----------
 A(Tot)          0.2943               0.4345               1.3545    A(iso)=    0.6944
 Orientation: 
  X           0.0002864           -0.2740651           -0.9617111
  Y           0.0006122            0.9617110           -0.2740649
  Z           0.9999998           -0.0005103            0.0004433

Notes:  (1) The A matrix conforms to the "SAI" spin Hamiltonian convention.
        (2) Tensor is right-handed.


--------------------------------------------------------------------------------
----------------------------------------------------------------------------
                           ORCA EULER ANGLE PROGRAM
----------------------------------------------------------------------------

Only g-tensor available        -->  using g-tensor as reference tensor

Reference tensor               ...  g

g-tensor ordering              ...  |g_min> --> |gx>
                                    |g_mid> --> |gy>
                                    |g_max> --> |gz>

A- and EFG-tensor ordering     ...  the axes |Ax>, |Qx>, |Ay>, etc. are assigned
                                    such that the Euler rotation is minimal. You
                                    can find the respective eigenvalues as Ax,
                                    EFGx, Ay, etc. in the tables below.
                                    The relation of |Ax>, |Ay>,  etc. to Amin, Amid, etc.
                                    (as printed in the ORCA EPR/NMR CALCULATION Output)
                                    is obtained in the detailed printout.

Euler rotation around          ...  z - y - z
   First rotation              -->  by alpha around z
   Second rotation             -->  by beta around y'
   Third rotation              -->  by gamma around z''
   Positive / Negative angle   -->  clockwise / counterclockwise rotation

Plot EFG-tensors                    (-)
Plot HFC-tensors                    (-)
Detailed Printout                   (-)

-------------------------------------------------------------------------
          Euler rotation of hyperfine tensor to g-tensor
-------------------------------------------------------------------------

-------------------------------------------------------------------
 Atom  |   Alpha    Beta    Gamma   |   Ax       Ay       Az 
       |          [degrees]         |           [MHz]         
-------------------------------------------------------------------
  9H       90.6      8.2    -90.6     -16.43    -7.50   -19.79
 10H       90.0     11.1    -90.0       4.12     4.88     9.41
 12H      -90.0     41.5     90.0     -48.46   -20.02   -73.32
 14H       34.1     13.7    -15.5      68.13    77.65    69.60
 15H      145.1     13.1   -163.6      67.63    77.16    69.12
 17H      -20.7     24.6     53.5      -3.31    -3.14     2.95
 18H     -159.2     24.3    126.0      -3.30    -3.14     2.94
 20H      124.5     49.6   -149.8      -0.01     2.30     0.10
 21H       55.1     50.2    -29.7      -0.01     2.31     0.10
 23H      130.5     17.7   -169.6      23.98    24.58    27.65
 24H       49.5     17.6    -10.3      24.02    24.61    27.69
 26H       79.8     35.0    -92.5      -1.03     0.91    -0.90
 27H      100.0     34.9    -87.2      -1.03     0.91    -0.90
 29H      -76.2     25.6    110.5      -0.10    -0.14     0.82
 30H     -103.9     25.6     69.7      -0.10    -0.14     0.82
 32H      -96.3     42.5    101.1      -0.12    -0.10     0.38
 33H      -83.7     42.5     79.1      -0.12    -0.10     0.38
 35H      -92.4     34.2     89.8      -0.83    -0.84     0.71
 36H      -89.8     32.4     90.1      -0.13    -0.13     0.24
 43H      -90.2     39.2     90.2       0.46     0.29     0.82
 44H       90.2     16.4    -90.1      -0.16    -0.28    -0.02
 45H      -90.1     30.9     90.2       0.34     1.17    -0.01
 46H       90.1     28.2    -90.1       0.38     0.01     1.10
 47H      -90.2     26.3     90.3      -0.18    -0.03    -0.26
 54H      -90.2     37.6     90.2      -2.00    -0.58    -3.04
 55H      -90.1     44.6     90.1       0.35     1.13     0.60
 56H      -90.6      9.9     90.6      -2.55    -0.68    -1.87
 57H      -90.2     29.5     90.2      -2.25    -1.89    -0.97
 58H      -90.3     27.4     90.3       0.29     1.35     0.43
-------------------------------------------------------------------


Maximum memory used throughout the entire EPRNMR-calculation: 410.0 MB

Timings for individual modules:

Sum of individual times         ...    11413.001 sec (= 190.217 min)
GTO integral calculation        ...        7.526 sec (=   0.125 min)   0.1 %
Spin-Orbit-Coupling Matrices    ...       22.114 sec (=   0.369 min)   0.2 %
SCF iterations                  ...      135.500 sec (=   2.258 min)   1.2 %
EPR/NMR calculation             ...    11247.861 sec (= 187.464 min)  98.6 %
                             ****ORCA TERMINATED NORMALLY****
TOTAL RUN TIME: 0 days 3 hours 10 minutes 17 seconds 182 msec
