
                                 *****************
                                 * O   R   C   A *
                                 *****************

           --- An Ab Initio, DFT and Semiempirical electronic structure package ---

                  #######################################################
                  #                        -***-                        #
                  #          Department of theory and spectroscopy      #
                  #               Directorship: Frank Neese             #
                  #        Max Planck Institute fuer Kohlenforschung    #
                  #                Kaiser Wilhelm Platz 1               #
                  #                 D-45470 Muelheim/Ruhr               #
                  #                      Germany                        #
                  #                                                     #
                  #                  All rights reserved                #
                  #                        -***-                        #
                  #######################################################


                         Program Version 4.2.1 -  RELEASE  -


 With contributions from (in alphabetic order):
   Daniel Aravena         : Magnetic Suceptibility
   Michael Atanasov       : Ab Initio Ligand Field Theory (pilot matlab implementation)
   Alexander A. Auer      : GIAO ZORA, VPT2
   Ute Becker             : Parallelization
   Giovanni Bistoni       : ED, misc. LED, open-shell LED, HFLD
   Martin Brehm           : Molecular dynamics
   Dmytro Bykov           : SCF Hessian
   Vijay G. Chilkuri      : MRCI spin determinant printing, contributions to CSF-ICE
   Dipayan Datta          : RHF DLPNO-CCSD density
   Achintya Kumar Dutta   : EOM-CC, STEOM-CC
   Dmitry Ganyushin       : Spin-Orbit,Spin-Spin,Magnetic field MRCI
   Miquel Garcia          : C-PCM Hessian, Gaussian charge scheme
   Yang Guo               : DLPNO-NEVPT2, CIM, IAO-localization
   Andreas Hansen         : Spin unrestricted coupled pair/coupled cluster methods
   Benjamin Helmich-Paris : CASSCF linear response (MC-RPA)
   Lee Huntington         : MR-EOM, pCC
   Robert Izsak           : Overlap fitted RIJCOSX, COSX-SCS-MP3, EOM
   Christian Kollmar      : KDIIS, OOCD, Brueckner-CCSD(T), CCSD density
   Simone Kossmann        : Meta GGA functionals, TD-DFT gradient, OOMP2, MP2 Hessian
   Martin Krupicka        : AUTO-CI
   Lucas Lang             : DCDCAS
   Dagmar Lenk            : GEPOL surface, SMD
   Dimitrios Liakos       : Extrapolation schemes; Compound Job, initial MDCI parallelization
   Dimitrios Manganas     : Further ROCIS development; embedding schemes
   Dimitrios Pantazis     : SARC Basis sets
   Taras Petrenko         : DFT Hessian,TD-DFT gradient, ASA, ECA, R-Raman, ABS, FL, XAS/XES, NRVS
   Peter Pinski           : DLPNO-MP2, DLPNO-MP2 Gradient
   Christoph Reimann      : Effective Core Potentials
   Marius Retegan         : Local ZFS, SOC
   Christoph Riplinger    : Optimizer, TS searches, QM/MM, DLPNO-CCSD(T), (RO)-DLPNO pert. Triples
   Tobias Risthaus        : Range-separated hybrids, TD-DFT gradient, RPA, STAB
   Michael Roemelt        : Original ROCIS implementation
   Masaaki Saitow         : Open-shell DLPNO-CCSD energy and density
   Barbara Sandhoefer     : DKH picture change effects
   Avijit Sen             : IP-ROCIS
   Kantharuban Sivalingam : CASSCF convergence, NEVPT2, FIC-MRCI
   Bernardo de Souza      : ESD, SOC TD-DFT
   Georgi Stoychev        : AutoAux, RI-MP2 NMR
   Willem Van den Heuvel  : Paramagnetic NMR
   Boris Wezisla          : Elementary symmetry handling
   Frank Wennmohs         : Technical directorship


 We gratefully acknowledge several colleagues who have allowed us to
 interface, adapt or use parts of their codes:
   Stefan Grimme, W. Hujo, H. Kruse,             : VdW corrections, initial TS optimization,
                  C. Bannwarth                     DFT functionals, gCP, sTDA/sTD-DF
   Ed Valeev, F. Pavosevic, A. Kumar             : LibInt (2-el integral package), F12 methods
   Garnet Chan, S. Sharma, J. Yang, R. Olivares  : DMRG
   Ulf Ekstrom                                   : XCFun DFT Library
   Mihaly Kallay                                 : mrcc  (arbitrary order and MRCC methods)
   Andreas Klamt, Michael Diedenhofen            : otool_cosmo (COSMO solvation model)
   Jiri Pittner, Ondrej Demel                    : Mk-CCSD
   Frank Weinhold                                : gennbo (NPA and NBO analysis)
   Christopher J. Cramer and Donald G. Truhlar   : smd solvation model
   Lars Goerigk                                  : TD-DFT with DH, B97 family of functionals
   V. Asgeirsson, H. Jonsson                     : NEB implementation
   FAccTs GmbH                                   : IRC, NEB, NEB-TS, Multilevel, MM, QM/MM, CI optimization
   S Lehtola, MJT Oliveira, MAL Marques          : LibXC Library


 Your calculation uses the libint2 library for the computation of 2-el integrals
 For citations please refer to: http://libint.valeyev.net

 Your ORCA version has been built with support for libXC version: 4.2.3
 For citations please refer to: https://tddft.org/programs/libxc/

 This ORCA versions uses:
   CBLAS   interface :  Fast vector & matrix operations
   LAPACKE interface :  Fast linear algebra routines
   SCALAPACK package :  Parallel linear algebra routines




***************************************
The coordinates will be read from file: chain.xyz
***************************************


----- Orbital basis set information -----
Your calculation utilizes the basis: cc-pVDZ 
       H, B-Ne : Obtained from the ccRepo (grant-hill.group.shef.ac.uk/ccrepo) Feb. 2017
                 T. H. Dunning, Jr., J. Chem. Phys. 90, 1007 (1989)
            He : Obtained from the ccRepo (grant-hill.group.shef.ac.uk/ccrepo) Feb. 2017
                 D. E. Woon, T. H. Dunning, Jr., J. Chem. Phys. 100, 2975 (1994)
  Li-Be, Na-Mg : Obtained from the ccRepo (grant-hill.group.shef.ac.uk/ccrepo) Feb. 2017
                 B. P. Prascher, D. E. Woon, K. A. Peterson, T. H. Dunning, Jr., A. K. Wilson, Theor. Chem. Acc. 128, 69 (2011)
         Al-Ar : Obtained from the ccRepo (grant-hill.group.shef.ac.uk/ccrepo) Feb. 2017
                 D. E. Woon, T. H. Dunning, Jr., J. Chem. Phys. 98, 1358 (1993)
            Ca : Obtained from the Peterson Research Group Website (tyr0.chem.wsu.edu/~kipeters) Feb. 2017
                 J. Koput, K. A. Peterson, J. Phys. Chem. 106, 9595 (2002)
         Sc-Zn : Obtained from the ccRepo (grant-hill.group.shef.ac.uk/ccrepo) Feb. 2017
                 N. B. Balabanov, K. A. Peterson, J. Chem. Phys. 123, 064107 (2005)
                 N. B. Balabanov, K. A. Peterson, J. Chem. Phys. 125, 074110 (2006)
         Ga-Kr : Obtained from the ccRepo (grant-hill.group.shef.ac.uk/ccrepo) Feb. 2017
                 A. K. Wilson, D. E. Woon, K. A. Peterson, T. H. Dunning, Jr., J. Chem. Phys. 110, 7667 (1999)

================================================================================
                                        WARNINGS
                       Please study these warnings very carefully!
================================================================================


WARNING: your system is open-shell and RHF/RKS was chosen
  ===> : WILL SWITCH to UHF/UKS


WARNING: Geometry Optimization
  ===> : Switching off AutoStart
         For restart on a previous wavefunction, please use MOREAD

INFO   : the flag for use of LIBINT has been found!

================================================================================
                                       INPUT FILE
================================================================================
NAME = opt.inp
|  1> ! B3LYP cc-pVDZ OPT
|  2> %pal nprocs 16 end
|  3> *XYZFile 0 2 chain.xyz
|  4> 
|  5>                          ****END OF INPUT****
================================================================================

                       *****************************
                       * Geometry Optimization Run *
                       *****************************

Geometry optimization settings:
Update method            Update   .... BFGS
Choice of coordinates    CoordSys .... Z-matrix Internals
Initial Hessian          InHess   .... Almoef's Model

Convergence Tolerances:
Energy Change            TolE     ....  5.0000e-06 Eh
Max. Gradient            TolMAXG  ....  3.0000e-04 Eh/bohr
RMS Gradient             TolRMSG  ....  1.0000e-04 Eh/bohr
Max. Displacement        TolMAXD  ....  4.0000e-03 bohr
RMS Displacement         TolRMSD  ....  2.0000e-03 bohr
Strict Convergence                ....  False
------------------------------------------------------------------------------
                        ORCA OPTIMIZATION COORDINATE SETUP
------------------------------------------------------------------------------

The optimization will be done in new redundant internal coordinates
Making redundant internal coordinates   ...  (new redundants) done
Evaluating the initial hessian          ...  (Almloef) done
Evaluating the coordinates              ...  done
Calculating the B-matrix                .... done
Calculating the G-matrix                .... done
Diagonalizing the G-matrix              .... done
Small eigenvalue found = 6.266e-04
Small eigenvalue found = 7.676e-04
Small eigenvalue found = 1.805e-03
Small eigenvalue found = 3.617e-03
Small eigenvalue found = 7.579e-03
Small eigenvalue found = 1.235e-02
Small eigenvalue found = 1.764e-02
Small eigenvalue found = 1.889e-02
Small eigenvalue found = 2.053e-02
Small eigenvalue found = 2.579e-02
Small eigenvalue found = 2.731e-02
Small eigenvalue found = 2.987e-02
The first mode is                       ....  138
The number of degrees of freedom        ....  171

    -----------------------------------------------------------------
                    Redundant Internal Coordinates


    -----------------------------------------------------------------
         Definition                    Initial Value    Approx d2E/dq
    -----------------------------------------------------------------
      1. B(C   1,C   0)                  1.2174         1.177939   
      2. B(C   3,C   1)                  1.4275         0.544460   
      3. B(C   4,C   3)                  1.4429         0.514393   
      4. B(C   5,C   4)                  1.4228         0.553832   
      5. B(C   6,C   5)                  1.3979         0.606932   
      6. B(C   6,C   2)                  1.4289         0.541579   
      7. B(C   7,C   6)                  1.4312         0.537055   
      8. B(C   8,C   7)                  1.3965         0.610044   
      9. B(C   8,C   3)                  1.4056         0.589989   
     10. B(H   9,C   5)                  1.0901         0.359950   
     11. B(H  10,C   8)                  1.0898         0.360326   
     12. B(C  11,C   4)                  1.4131         0.573882   
     13. B(H  12,C  11)                  1.0936         0.355393   
     14. B(C  13,C  11)                  1.4992         0.418328   
     15. B(H  14,C  13)                  1.1100         0.334649   
     16. B(H  15,C  13)                  1.1099         0.334664   
     17. B(C  16,C  13)                  1.5339         0.368300   
     18. B(H  17,C  16)                  1.1056         0.339991   
     19. B(H  18,C  16)                  1.1056         0.339985   
     20. B(C  19,C  16)                  1.5295         0.374270   
     21. B(H  20,C  19)                  1.1040         0.342091   
     22. B(H  21,C  19)                  1.1040         0.342093   
     23. B(C  22,C   7)                  1.5146         0.395272   
     24. B(H  23,C  22)                  1.1066         0.338779   
     25. B(H  24,C  22)                  1.1066         0.338779   
     26. B(C  25,C  22)                  1.5308         0.372491   
     27. B(H  26,C  25)                  1.1060         0.339529   
     28. B(H  27,C  25)                  1.1060         0.339527   
     29. B(C  28,C  25)                  1.5331         0.369388   
     30. B(H  29,C  28)                  1.1063         0.339130   
     31. B(H  30,C  28)                  1.1063         0.339131   
     32. B(C  31,C  28)                  1.5303         0.373188   
     33. B(H  32,C  31)                  1.1039         0.342111   
     34. B(H  33,C  31)                  1.1040         0.342110   
     35. B(C  34,C   2)                  1.2220         1.157990   
     36. B(H  35,C  19)                  1.1018         0.344831   
     37. B(H  36,C  31)                  1.1020         0.344612   
     38. B(C  37,C  34)                  1.4282         0.542894   
     39. B(C  38,C  37)                  1.4120         0.576355   
     40. B(C  39,C  38)                  1.3946         0.614434   
     41. B(C  40,C  39)                  1.3995         0.603357   
     42. B(C  41,C  40)                  1.3996         0.603191   
     43. B(C  42,C  41)                  1.3943         0.614946   
     44. B(C  42,C  37)                  1.4121         0.576010   
     45. B(H  43,C  40)                  1.0927         0.356499   
     46. B(H  44,C  41)                  1.0924         0.356880   
     47. B(H  45,C  38)                  1.0914         0.358281   
     48. B(H  46,C  42)                  1.0917         0.357852   
     49. B(H  47,C  39)                  1.0927         0.356557   
     50. B(C  48,C   0)                  1.4282         0.542894   
     51. B(C  49,C  48)                  1.4120         0.576355   
     52. B(C  50,C  49)                  1.3946         0.614434   
     53. B(C  51,C  50)                  1.3995         0.603357   
     54. B(C  52,C  51)                  1.3996         0.603191   
     55. B(C  53,C  52)                  1.3943         0.614946   
     56. B(C  53,C  48)                  1.4121         0.576010   
     57. B(H  54,C  51)                  1.0927         0.356499   
     58. B(H  55,C  52)                  1.0924         0.356880   
     59. B(H  56,C  49)                  1.0914         0.358281   
     60. B(H  57,C  53)                  1.0917         0.357852   
     61. B(H  58,C  50)                  1.0927         0.356557   
     62. L(C   1,C   0,C  48,C  53, 2) 179.8689         0.476200   
     63. L(C   1,C   0,C  48,C  53, 1) 179.9911         0.476200   
     64. L(C   0,C   1,C   3,C   8, 2) 179.8146         0.476452   
     65. L(C   0,C   1,C   3,C   8, 1) 178.9806         0.476452   
     66. L(C   6,C   2,C  34,C   5, 2) 179.8842         0.474494   
     67. L(C   6,C   2,C  34,C   5, 1) 179.7252         0.474494   
     68. A(C   1,C   3,C   8)          118.8411         0.420325   
     69. A(C   1,C   3,C   4)          121.1029         0.410200   
     70. A(C   4,C   3,C   8)          120.0560         0.416092   
     71. A(C   3,C   4,C  11)          121.7021         0.414049   
     72. A(C   5,C   4,C  11)          121.8223         0.419530   
     73. A(C   3,C   4,C   5)          116.4756         0.411443   
     74. A(C   6,C   5,H   9)          118.1022         0.351615   
     75. A(C   4,C   5,C   6)          122.7236         0.423745   
     76. A(C   4,C   5,H   9)          119.1742         0.346229   
     77. A(C   2,C   6,C   7)          120.4624         0.412961   
     78. A(C   2,C   6,C   5)          119.2808         0.422055   
     79. A(C   5,C   6,C   7)          120.2569         0.421423   
     80. A(C   8,C   7,C  22)          122.8319         0.399501   
     81. A(C   6,C   7,C   8)          117.5581         0.421808   
     82. A(C   6,C   7,C  22)          119.6100         0.390673   
     83. A(C   3,C   8,H  10)          117.4261         0.349999   
     84. A(C   3,C   8,C   7)          122.9299         0.428965   
     85. A(C   7,C   8,H  10)          119.6440         0.351981   
     86. A(H  12,C  11,C  13)          117.8951         0.329705   
     87. A(C   4,C  11,C  13)          124.8918         0.399191   
     88. A(C   4,C  11,H  12)          117.2131         0.347561   
     89. A(H  15,C  13,C  16)          109.1739         0.319706   
     90. A(C  11,C  13,C  16)          113.4887         0.369564   
     91. A(H  14,C  13,C  16)          109.1731         0.319703   
     92. A(H  14,C  13,H  15)          104.6160         0.284254   
     93. A(C  11,C  13,H  15)          110.0045         0.326453   
     94. A(C  11,C  13,H  14)          110.0030         0.326451   
     95. A(H  17,C  16,H  18)          106.0306         0.285656   
     96. A(C  13,C  16,H  18)          108.9784         0.320531   
     97. A(C  13,C  16,H  17)          108.9771         0.320532   
     98. A(C  13,C  16,C  19)          113.1336         0.362585   
     99. A(H  18,C  16,C  19)          109.7349         0.321375   
    100. A(H  17,C  16,C  19)          109.7351         0.321376   
    101. A(H  20,C  19,H  35)          107.6207         0.286562   
    102. A(C  16,C  19,H  35)          111.4286         0.322121   
    103. A(H  20,C  19,H  21)          107.3407         0.286206   
    104. A(C  16,C  19,H  21)          111.3121         0.321700   
    105. A(C  16,C  19,H  20)          111.3123         0.321700   
    106. A(H  21,C  19,H  35)          107.6214         0.286563   
    107. A(H  24,C  22,C  25)          109.1974         0.320938   
    108. A(H  23,C  22,C  25)          109.1957         0.320938   
    109. A(C   7,C  22,C  25)          116.9193         0.366697   
    110. A(C   7,C  22,H  24)          108.1946         0.324075   
    111. A(C   7,C  22,H  23)          108.1942         0.324075   
    112. A(H  23,C  22,H  24)          104.4124         0.285339   
    113. A(H  27,C  25,C  28)          109.0337         0.320615   
    114. A(H  26,C  25,C  28)          109.0331         0.320615   
    115. A(C  22,C  25,C  28)          112.6395         0.362473   
    116. A(H  26,C  25,H  27)          106.2234         0.285536   
    117. A(C  22,C  25,H  27)          109.8506         0.321054   
    118. A(C  22,C  25,H  26)          109.8513         0.321054   
    119. A(H  30,C  28,C  31)          109.5505         0.321090   
    120. A(H  29,C  28,C  31)          109.5509         0.321090   
    121. A(C  25,C  28,C  31)          113.1564         0.362588   
    122. A(H  29,C  28,H  30)          105.8903         0.285431   
    123. A(C  25,C  28,H  30)          109.2167         0.320553   
    124. A(C  25,C  28,H  29)          109.2175         0.320553   
    125. A(H  32,C  31,H  33)          107.3517         0.286211   
    126. A(C  28,C  31,H  33)          111.2995         0.321550   
    127. A(C  28,C  31,H  32)          111.2994         0.321551   
    128. A(H  33,C  31,H  36)          107.5886         0.286536   
    129. A(H  32,C  31,H  36)          107.5890         0.286537   
    130. A(C  28,C  31,H  36)          111.5042         0.321934   
    131. L(C   2,C  34,C  37,C  42, 2) 179.8689         0.474706   
    132. L(C   2,C  34,C  37,C  42, 1) 179.9911         0.474706   
    133. A(C  38,C  37,C  42)          118.7739         0.422805   
    134. A(C  34,C  37,C  42)          120.5972         0.418317   
    135. A(C  34,C  37,C  38)          120.6290         0.418361   
    136. A(C  39,C  38,H  45)          120.5078         0.352069   
    137. A(C  37,C  38,H  45)          119.0941         0.348287   
    138. A(C  37,C  38,C  39)          120.3981         0.427720   
    139. A(C  40,C  39,H  47)          120.0180         0.350702   
    140. A(C  38,C  39,H  47)          119.6244         0.351782   
    141. A(C  38,C  39,C  40)          120.3576         0.431248   
    142. A(C  41,C  40,H  43)          120.1470         0.350676   
    143. A(C  39,C  40,H  43)          120.1433         0.350693   
    144. A(C  39,C  40,C  41)          119.7097         0.429821   
    145. A(C  42,C  41,H  44)          119.5888         0.351886   
    146. A(C  40,C  41,H  44)          120.0690         0.350740   
    147. A(C  40,C  41,C  42)          120.3422         0.431291   
    148. A(C  41,C  42,H  46)          120.4651         0.352047   
    149. A(C  37,C  42,H  46)          119.1165         0.348182   
    150. A(C  37,C  42,C  41)          120.4185         0.427738   
    151. A(C  49,C  48,C  53)          118.7739         0.422805   
    152. A(C   0,C  48,C  53)          120.5972         0.418317   
    153. A(C   0,C  48,C  49)          120.6290         0.418361   
    154. A(C  50,C  49,H  56)          120.5078         0.352069   
    155. A(C  48,C  49,H  56)          119.0941         0.348287   
    156. A(C  48,C  49,C  50)          120.3981         0.427720   
    157. A(C  51,C  50,H  58)          120.0180         0.350702   
    158. A(C  49,C  50,H  58)          119.6244         0.351782   
    159. A(C  49,C  50,C  51)          120.3576         0.431248   
    160. A(C  52,C  51,H  54)          120.1470         0.350676   
    161. A(C  50,C  51,H  54)          120.1433         0.350693   
    162. A(C  50,C  51,C  52)          119.7097         0.429821   
    163. A(C  53,C  52,H  55)          119.5888         0.351886   
    164. A(C  51,C  52,H  55)          120.0690         0.350740   
    165. A(C  51,C  52,C  53)          120.3422         0.431291   
    166. A(C  52,C  53,H  57)          120.4651         0.352047   
    167. A(C  48,C  53,H  57)          119.1165         0.348182   
    168. A(C  48,C  53,C  52)          120.4185         0.427738   
    169. D(C  11,C   4,C   3,C   8)   -179.9898         0.018038   
    170. D(C   5,C   4,C   3,C   1)   -179.9865         0.018038   
    171. D(C   5,C   4,C   3,C   8)      0.0104         0.018038   
    172. D(C  11,C   4,C   3,C   1)      0.0133         0.018038   
    173. D(C   6,C   5,C   4,C   3)     -0.0066         0.020993   
    174. D(H   9,C   5,C   4,C   3)    179.9968         0.020993   
    175. D(C   6,C   5,C   4,C  11)    179.9936         0.020993   
    176. D(H   9,C   5,C   4,C  11)     -0.0029         0.020993   
    177. D(C   7,C   6,C   5,C   4)      0.0030         0.025426   
    178. D(C   7,C   6,C   5,H   9)    179.9996         0.025426   
    179. D(C   2,C   6,C   5,C   4)   -179.9957         0.025426   
    180. D(C   2,C   6,C   5,H   9)      0.0008         0.025426   
    181. D(C  22,C   7,C   6,C   2)     -0.0023         0.019702   
    182. D(C   8,C   7,C   6,C   2)    179.9958         0.019702   
    183. D(C  22,C   7,C   6,C   5)    179.9990         0.019702   
    184. D(C   8,C   7,C   6,C   5)     -0.0029         0.019702   
    185. D(H  10,C   8,C   7,C   6)   -179.9976         0.025703   
    186. D(H  10,C   8,C   7,C  22)      0.0004         0.025703   
    187. D(C   3,C   8,C   7,C  22)   -179.9948         0.025703   
    188. D(H  10,C   8,C   3,C   4)    179.9935         0.023954   
    189. D(C   7,C   8,C   3,C   4)     -0.0112         0.023954   
    190. D(C   7,C   8,C   3,C   1)    179.9858         0.023954   
    191. D(C   3,C   8,C   7,C   6)      0.0071         0.025703   
    192. D(H  10,C   8,C   3,C   1)     -0.0096         0.023954   
    193. D(C  13,C  11,C   4,C   5)      0.0016         0.022605   
    194. D(H  12,C  11,C   4,C   5)   -179.9885         0.022605   
    195. D(C  13,C  11,C   4,C   3)   -179.9981         0.022605   
    196. D(H  12,C  11,C   4,C   3)      0.0117         0.022605   
    197. D(H  15,C  13,C  11,C   4)     57.3100         0.012943   
    198. D(H  14,C  13,C  11,C   4)    -57.4179         0.012943   
    199. D(H  14,C  13,C  11,H  12)    122.5721         0.012943   
    200. D(C  16,C  13,C  11,C   4)    179.9471         0.012943   
    201. D(H  15,C  13,C  11,H  12)   -122.7000         0.012943   
    202. D(C  16,C  13,C  11,H  12)     -0.0629         0.012943   
    203. D(C  19,C  16,C  13,C  11)    179.9965         0.010850   
    204. D(C  19,C  16,C  13,H  14)     56.9044         0.010850   
    205. D(H  18,C  16,C  13,H  15)   -179.2684         0.010850   
    206. D(H  18,C  16,C  13,H  14)    -65.4551         0.010850   
    207. D(H  18,C  16,C  13,C  11)     57.6370         0.010850   
    208. D(H  17,C  16,C  13,H  15)     65.4498         0.010850   
    209. D(H  17,C  16,C  13,H  14)    179.2631         0.010850   
    210. D(C  19,C  16,C  13,H  15)    -56.9089         0.010850   
    211. D(H  17,C  16,C  13,C  11)    -57.6448         0.010850   
    212. D(H  35,C  19,C  16,H  18)    -58.0619         0.011183   
    213. D(H  35,C  19,C  16,H  17)     58.0665         0.011183   
    214. D(H  35,C  19,C  16,C  13)   -179.9985         0.011183   
    215. D(H  21,C  19,C  16,H  18)     62.0832         0.011183   
    216. D(H  21,C  19,C  16,H  17)    178.2116         0.011183   
    217. D(H  21,C  19,C  16,C  13)    -59.8534         0.011183   
    218. D(H  20,C  19,C  16,H  18)   -178.2063         0.011183   
    219. D(H  20,C  19,C  16,H  17)    -62.0778         0.011183   
    220. D(H  20,C  19,C  16,C  13)     59.8572         0.011183   
    221. D(C  25,C  22,C   7,C   8)     -0.0037         0.011608   
    222. D(C  25,C  22,C   7,C   6)    179.9942         0.011608   
    223. D(H  24,C  22,C   7,C   8)   -123.7200         0.011608   
    224. D(H  24,C  22,C   7,C   6)     56.2779         0.011608   
    225. D(H  23,C  22,C   7,C   8)    123.7098         0.011608   
    226. D(H  23,C  22,C   7,C   6)    -56.2923         0.011608   
    227. D(H  27,C  25,C  22,H  23)    -64.9467         0.011083   
    228. D(H  27,C  25,C  22,C   7)     58.2540         0.011083   
    229. D(H  26,C  25,C  22,H  24)     64.9605         0.011083   
    230. D(H  26,C  25,C  22,H  23)    178.5571         0.011083   
    231. D(H  26,C  25,C  22,C   7)    -58.2422         0.011083   
    232. D(C  28,C  25,C  22,H  24)    -56.7913         0.011083   
    233. D(C  28,C  25,C  22,H  23)     56.8053         0.011083   
    234. D(C  28,C  25,C  22,C   7)   -179.9940         0.011083   
    235. D(H  27,C  25,C  22,H  24)   -178.5433         0.011083   
    236. D(C  31,C  28,C  25,H  27)    -57.7723         0.010910   
    237. D(C  31,C  28,C  25,C  22)   -179.9860         0.010910   
    238. D(H  30,C  28,C  25,H  27)    179.9165         0.010910   
    239. D(H  30,C  28,C  25,H  26)    -64.5115         0.010910   
    240. D(H  30,C  28,C  25,C  22)     57.7028         0.010910   
    241. D(H  29,C  28,C  25,H  27)     64.5400         0.010910   
    242. D(C  31,C  28,C  25,H  26)     57.7997         0.010910   
    243. D(H  29,C  28,C  25,H  26)   -179.8880         0.010910   
    244. D(H  29,C  28,C  25,C  22)    -57.6738         0.010910   
    245. D(H  36,C  31,C  28,H  30)    -57.8697         0.011122   
    246. D(H  36,C  31,C  28,H  29)     57.8793         0.011122   
    247. D(H  36,C  31,C  28,C  25)   -179.9945         0.011122   
    248. D(H  33,C  31,C  28,H  30)     62.2765         0.011122   
    249. D(H  33,C  31,C  28,H  29)    178.0255         0.011122   
    250. D(H  33,C  31,C  28,C  25)    -59.8484         0.011122   
    251. D(H  32,C  31,C  28,H  30)   -178.0162         0.011122   
    252. D(H  32,C  31,C  28,H  29)    -62.2672         0.011122   
    253. D(H  32,C  31,C  28,C  25)     59.8589         0.011122   
    254. D(C  42,C  37,C   6,C   7)      0.0469         0.001500   
    255. D(C  42,C  37,C   6,C   5)   -179.9719         0.001500   
    256. D(C  38,C  37,C   6,C   7)   -179.9764         0.001500   
    257. D(C  38,C  37,C   6,C   5)      0.0048         0.001500   
    258. D(H  45,C  38,C  37,C  42)   -179.9959         0.022809   
    259. D(H  45,C  38,C  37,C  34)      0.0019         0.022809   
    260. D(C  39,C  38,C  37,C  42)      0.0062         0.022809   
    261. D(C  39,C  38,C  37,C  34)   -179.9960         0.022809   
    262. D(H  47,C  39,C  38,H  45)     -0.0004         0.026096   
    263. D(H  47,C  39,C  38,C  37)    179.9975         0.026096   
    264. D(C  40,C  39,C  38,H  45)    179.9992         0.026096   
    265. D(C  40,C  39,C  38,C  37)     -0.0029         0.026096   
    266. D(H  43,C  40,C  39,H  47)     -0.0008         0.025111   
    267. D(H  43,C  40,C  39,C  38)    179.9997         0.025111   
    268. D(C  41,C  40,C  39,H  47)    179.9987         0.025111   
    269. D(C  41,C  40,C  39,C  38)     -0.0009         0.025111   
    270. D(H  44,C  41,C  40,H  43)      0.0000         0.025097   
    271. D(H  44,C  41,C  40,C  39)   -179.9995         0.025097   
    272. D(C  42,C  41,C  40,H  43)   -179.9992         0.025097   
    273. D(C  42,C  41,C  40,C  39)      0.0013         0.025097   
    274. D(H  46,C  42,C  41,H  44)      0.0005         0.026142   
    275. D(H  46,C  42,C  41,C  40)    179.9997         0.026142   
    276. D(C  37,C  42,C  41,H  44)   -179.9972         0.026142   
    277. D(C  37,C  42,C  41,C  40)      0.0020         0.026142   
    278. D(H  46,C  42,C  37,C  38)    179.9965         0.022781   
    279. D(H  46,C  42,C  37,C  34)     -0.0013         0.022781   
    280. D(C  41,C  42,C  37,C  38)     -0.0057         0.022781   
    281. D(C  41,C  42,C  37,C  34)    179.9965         0.022781   
    282. D(C  53,C  48,C   3,C   8)     -0.0041         0.001500   
    283. D(C  53,C  48,C   3,C   4)    179.9467         0.001500   
    284. D(C  49,C  48,C   3,C   8)    179.9882         0.001500   
    285. D(C  49,C  48,C   3,C   4)     -0.0610         0.001500   
    286. D(H  56,C  49,C  48,C  53)   -179.9959         0.022809   
    287. D(H  56,C  49,C  48,C   0)      0.0019         0.022809   
    288. D(C  50,C  49,C  48,C  53)      0.0062         0.022809   
    289. D(C  50,C  49,C  48,C   0)   -179.9960         0.022809   
    290. D(H  58,C  50,C  49,H  56)     -0.0004         0.026096   
    291. D(H  58,C  50,C  49,C  48)    179.9975         0.026096   
    292. D(C  51,C  50,C  49,H  56)    179.9992         0.026096   
    293. D(C  51,C  50,C  49,C  48)     -0.0029         0.026096   
    294. D(C  52,C  51,C  50,H  58)    179.9987         0.025111   
    295. D(C  52,C  51,C  50,C  49)     -0.0009         0.025111   
    296. D(H  54,C  51,C  50,H  58)     -0.0008         0.025111   
    297. D(H  54,C  51,C  50,C  49)    179.9997         0.025111   
    298. D(H  55,C  52,C  51,H  54)      0.0000         0.025097   
    299. D(H  55,C  52,C  51,C  50)   -179.9995         0.025097   
    300. D(C  53,C  52,C  51,H  54)   -179.9992         0.025097   
    301. D(C  53,C  52,C  51,C  50)      0.0013         0.025097   
    302. D(H  57,C  53,C  52,H  55)      0.0005         0.026142   
    303. D(H  57,C  53,C  52,C  51)    179.9997         0.026142   
    304. D(C  48,C  53,C  52,H  55)   -179.9972         0.026142   
    305. D(C  48,C  53,C  52,C  51)      0.0020         0.026142   
    306. D(H  57,C  53,C  48,C  49)    179.9965         0.022781   
    307. D(H  57,C  53,C  48,C   0)     -0.0013         0.022781   
    308. D(C  52,C  53,C  48,C  49)     -0.0057         0.022781   
    309. D(C  52,C  53,C  48,C   0)    179.9965         0.022781   
    -----------------------------------------------------------------

Number of atoms                         .... 59
Number of degrees of freedom            .... 309

         *************************************************************
         *                GEOMETRY OPTIMIZATION CYCLE   1            *
         *************************************************************
---------------------------------
CARTESIAN COORDINATES (ANGSTROEM)
---------------------------------
  C     -4.053777   -0.126952   -0.002099
  C     -2.838407   -0.056841   -0.000061
  C      2.840722    0.027371   -0.000063
  C     -1.412075    0.000000    0.000000
  C     -0.716480    1.264190   -0.003567
  C      0.705147    1.205967   -0.003473
  C      1.412075   -0.000000   -0.000000
  C      0.710264   -1.247301    0.003603
  C     -0.685546   -1.203273    0.003550
  H      1.275045    2.135245   -0.006151
  H     -1.254180   -2.132991    0.006277
  C     -1.411851    2.494397   -0.006978
  H     -2.504579    2.451198   -0.006609
  C     -0.763332    3.846066   -0.010827
  H     -0.092637    3.947896    0.867690
  H     -0.091272    3.942265   -0.888921
  C     -1.767217    5.005788   -0.015316
  H     -2.424919    4.908586   -0.898733
  H     -2.426367    4.914202    0.867626
  C     -1.097061    6.380644   -0.019137
  H     -0.456299    6.512209   -0.908437
  H     -0.457683    6.517822    0.870310
  C      1.490928   -2.545246    0.007318
  H      2.168953   -2.543154   -0.867251
  H      2.169183   -2.538019    0.881681
  C      0.678475   -3.842637    0.011205
  H      0.015182   -3.867764    0.895894
  H      0.015146   -3.873029   -0.873293
  C      1.564479   -5.093749    0.014919
  H      2.230810   -5.070715   -0.867942
  H      2.230475   -5.065692    0.897887
  C      0.764031   -6.397985    0.018484
  H      0.114261   -6.472133   -0.870902
  H      0.113803   -6.466994    0.907949
  C      4.062412    0.056642    0.001112
  H     -1.842628    7.191858   -0.022285
  H      1.426554   -7.278545    0.021203
  C      5.490257    0.090628    0.000875
  C      6.180507    1.322375   -0.002183
  C      7.574787    1.349941   -0.002485
  C      8.305824    0.156546    0.000304
  C      7.631571   -1.069911    0.003427
  C      6.237750   -1.107437    0.003743
  H      9.398258    0.182232    0.000052
  H      8.196361   -2.005027    0.005622
  H      5.607984    2.251525   -0.004339
  H      5.709768   -2.062972    0.006173
  H      8.096035    2.310289   -0.004908
  C     -5.479643   -0.209423   -0.002880
  C     -6.267962    0.961984   -0.006155
  C     -7.659852    0.875850   -0.006820
  C     -8.291218   -0.373143   -0.004309
  C     -7.519274   -1.540582   -0.001134
  C     -6.127031   -1.464412   -0.000436
  H     -9.382113   -0.436556   -0.004834
  H     -8.005991   -2.518610    0.000827
  H     -5.773052    1.934696   -0.008122
  H     -5.522945   -2.373749    0.002043
  H     -8.257617    1.790533   -0.009324

----------------------------
CARTESIAN COORDINATES (A.U.)
----------------------------
  NO LB      ZA    FRAG     MASS         X           Y           Z
   0 C     6.0000    0    12.011   -7.660529   -0.239905   -0.003967
   1 C     6.0000    0    12.011   -5.363812   -0.107413   -0.000115
   2 C     6.0000    0    12.011    5.368186    0.051724   -0.000118
   3 C     6.0000    0    12.011   -2.668435    0.000000    0.000000
   4 C     6.0000    0    12.011   -1.353951    2.388973   -0.006741
   5 C     6.0000    0    12.011    1.332535    2.278948   -0.006563
   6 C     6.0000    0    12.011    2.668435   -0.000000   -0.000000
   7 C     6.0000    0    12.011    1.342204   -2.357057    0.006809
   8 C     6.0000    0    12.011   -1.295495   -2.273856    0.006708
   9 H     1.0000    0     1.008    2.409486    4.035028   -0.011623
  10 H     1.0000    0     1.008   -2.370058   -4.030768    0.011863
  11 C     6.0000    0    12.011   -2.668011    4.713727   -0.013186
  12 H     1.0000    0     1.008   -4.732968    4.632093   -0.012489
  13 C     6.0000    0    12.011   -1.442489    7.268012   -0.020461
  14 H     1.0000    0     1.008   -0.175058    7.460443    1.639697
  15 H     1.0000    0     1.008   -0.172479    7.449801   -1.679818
  16 C     6.0000    0    12.011   -3.339557    9.459569   -0.028943
  17 H     1.0000    0     1.008   -4.582433    9.275883   -1.698359
  18 H     1.0000    0     1.008   -4.585169    9.286496    1.639576
  19 C     6.0000    0    12.011   -2.073144   12.057669   -0.036164
  20 H     1.0000    0     1.008   -0.862281   12.306291   -1.716698
  21 H     1.0000    0     1.008   -0.864896   12.316899    1.644647
  22 C     6.0000    0    12.011    2.817445   -4.809817    0.013829
  23 H     1.0000    0     1.008    4.098728   -4.805865   -1.638867
  24 H     1.0000    0     1.008    4.099162   -4.796161    1.666136
  25 C     6.0000    0    12.011    1.282132   -7.261532    0.021175
  26 H     1.0000    0     1.008    0.028690   -7.309015    1.692994
  27 H     1.0000    0     1.008    0.028622   -7.318964   -1.650285
  28 C     6.0000    0    12.011    2.956437   -9.625791    0.028194
  29 H     1.0000    0     1.008    4.215620   -9.582263   -1.640172
  30 H     1.0000    0     1.008    4.214987   -9.572771    1.696761
  31 C     6.0000    0    12.011    1.443809  -12.090440    0.034929
  32 H     1.0000    0     1.008    0.215923  -12.230559   -1.645766
  33 H     1.0000    0     1.008    0.215057  -12.220847    1.715775
  34 C     6.0000    0    12.011    7.676847    0.107038    0.002101
  35 H     1.0000    0     1.008   -3.482062   13.590643   -0.042112
  36 H     1.0000    0     1.008    2.695797  -13.754458    0.040067
  37 C     6.0000    0    12.011   10.375082    0.171262    0.001654
  38 C     6.0000    0    12.011   11.679465    2.498926   -0.004125
  39 C     6.0000    0    12.011   14.314273    2.551018   -0.004695
  40 C     6.0000    0    12.011   15.695732    0.295829    0.000574
  41 C     6.0000    0    12.011   14.421579   -2.021839    0.006476
  42 C     6.0000    0    12.011   11.787640   -2.092752    0.007073
  43 H     1.0000    0     1.008   17.760134    0.344369    0.000097
  44 H     1.0000    0     1.008   15.488877   -3.788953    0.010624
  45 H     1.0000    0     1.008   10.597555    4.254765   -0.008200
  46 H     1.0000    0     1.008   10.789897   -3.898452    0.011664
  47 H     1.0000    0     1.008   15.299289    4.365813   -0.009275
  48 C     6.0000    0    12.011  -10.355024   -0.395753   -0.005442
  49 C     6.0000    0    12.011  -11.844732    1.817887   -0.011631
  50 C     6.0000    0    12.011  -14.475022    1.655117   -0.012887
  51 C     6.0000    0    12.011  -15.668132   -0.705138   -0.008143
  52 C     6.0000    0    12.011  -14.209368   -2.911279   -0.002144
  53 C     6.0000    0    12.011  -11.578410   -2.767337   -0.000825
  54 H     1.0000    0     1.008  -17.729624   -0.824971   -0.009135
  55 H     1.0000    0     1.008  -15.129131   -4.759483    0.001564
  56 H     1.0000    0     1.008  -10.909487    3.656045   -0.015348
  57 H     1.0000    0     1.008  -10.436854   -4.485736    0.003860
  58 H     1.0000    0     1.008  -15.604635    3.383617   -0.017620

--------------------------------
INTERNAL COORDINATES (ANGSTROEM)
--------------------------------
 C      0   0   0     0.000000000000     0.00000000     0.00000000
 C      1   0   0     1.217392470582     0.00000000     0.00000000
 C      2   1   0     5.679752963687   177.54607720     0.00000000
 C      2   1   3     1.427464505149   178.97621794     2.99963510
 C      4   2   1     1.442928070223   121.10286550   174.59303099
 C      5   4   2     1.422818824737   116.47555861   180.01351870
 C      6   5   4     1.397896704357   122.72360086     0.00000000
 C      7   6   5     1.431192192834   120.25686957     0.00000000
 C      8   7   6     1.396504371977   117.55808616     0.00000000
 H      6   5   4     1.090113555056   119.17417614   179.99683428
 H      9   8   7     1.089829173835   119.64399638   180.00238649
 C      5   4   2     1.413138545271   121.70211267     0.00000000
 H     12   5   4     1.093581925344   117.21314763     0.00000000
 C     12   5   4     1.499200209599   124.89176202   180.00185948
 H     14  12   5     1.109953048544   110.00297230   302.58205191
 H     14  12   5     1.109940547340   110.00449968    57.30995039
 C     14  12   5     1.533871088064   113.48874380   179.94709852
 H     17  14  12     1.105642327347   108.97709710   302.35515780
 H     17  14  12     1.105646453906   108.97838880    57.63698718
 C     17  14  12     1.529493706834   113.13361841   179.99645650
 H     20  17  14     1.103965442477   111.31232748    59.85716262
 H     20  17  14     1.103964319518   111.31214928   300.14658965
 C      8   7   6     1.514632035793   119.61003517   179.99900748
 H     23   8   7     1.106614014656   108.19417338   303.70774111
 H     23   8   7     1.106613646962   108.19460153    56.27794340
 C     23   8   7     1.530790478999   116.91930227   179.99422223
 H     26  23   8     1.106012206564   109.85126418   301.75776308
 H     26  23   8     1.106014025335   109.85058152    58.25398971
 C     26  23   8     1.533068080698   112.63950720   180.00598029
 H     29  26  23     1.106332316533   109.21751774   302.32623329
 H     29  26  23     1.106331717588   109.21671269    57.70277577
 C     29  26  23     1.530281894141   113.15643718   180.01397700
 H     32  29  26     1.103949495708   111.29937665    59.85893773
 H     32  29  26     1.103950469317   111.29950483   300.15162615
 C      3   2   1     1.222042068414   179.47413902   183.77205691
 H     20  17  14     1.101793819120   111.42857485   180.00149976
 H     32  29  26     1.101966721252   111.50416375   180.00547988
 C     35   3   7     1.428248905329   179.93479554   250.24704663
 C     38  35   3     1.411968105477   120.62899538    97.78477538
 C     39  38  35     1.394552497814   120.39812503   180.00399053
 C     40  39  38     1.399504890172   120.35761798     0.00000000
 C     41  40  39     1.399579438475   119.70970105     0.00000000
 C     42  41  40     1.394325704504   120.34224004     0.00000000
 H     41  40  39     1.092736117191   120.14328910   179.99965762
 H     42  41  40     1.092444691415   120.06899561   180.00053560
 H     39  38  35     1.091378451337   119.09412132     0.00000000
 H     43  42  41     1.091704794863   120.46505892   179.99973724
 H     40  39  38     1.092691217998   119.62435687   179.99746329
 C      1   2   4     1.428248899789   179.93479560    87.59035024
 C     49   1   2     1.411968098687   120.62899552    97.78474792
 C     50  49   1     1.394552503295   120.39812532   180.00399078
 C     51  50  49     1.399504880205   120.35761782     0.00000000
 C     52  51  50     1.399579445450   119.70970067     0.00000000
 C     53  52  51     1.394325696527   120.34224055     0.00000000
 H     52  51  50     1.092736118462   120.14328900   179.99965767
 H     53  52  51     1.092444702747   120.06899509   180.00053559
 H     50  49   1     1.091378461690   119.09412153     0.00000000
 H     54  53  52     1.091704790968   120.46505913   179.99973809
 H     51  50  49     1.092691209963   119.62435666   179.99746348

---------------------------
INTERNAL COORDINATES (A.U.)
---------------------------
 C      0   0   0     0.000000000000     0.00000000     0.00000000
 C      1   0   0     2.300538366897     0.00000000     0.00000000
 C      2   1   0    10.733177609696   177.54607720     0.00000000
 C      2   1   3     2.697516980625   178.97621794     2.99963510
 C      4   2   1     2.726738883669   121.10286550   174.59303099
 C      5   4   2     2.688737916941   116.47555861   180.01351870
 C      6   5   4     2.641641934746   122.72360086     0.00000000
 C      7   6   5     2.704561289463   120.25686957     0.00000000
 C      8   7   6     2.639010807860   117.55808616     0.00000000
 H      6   5   4     2.060016073931   119.17417614   179.99683428
 H      9   8   7     2.059478671305   119.64399638   180.00238649
 C      5   4   2     2.670444839850   121.70211267     0.00000000
 H     12   5   4     2.066570343906   117.21314763     0.00000000
 C     12   5   4     2.833077816059   124.89176202   180.00185948
 H     14  12   5     2.097507283260   110.00297230   302.58205191
 H     14  12   5     2.097483659407   110.00449968    57.30995039
 C     14  12   5     2.898596281180   113.48874380   179.94709852
 H     17  14  12     2.089361200757   108.97709710   302.35515780
 H     17  14  12     2.089368998823   108.97838880    57.63698718
 C     17  14  12     2.890324229472   113.13361841   179.99645650
 H     20  17  14     2.086192347595   111.31232748    59.85716262
 H     20  17  14     2.086190225510   111.31214928   300.14658965
 C      8   7   6     2.862239741312   119.61003517   179.99900748
 H     23   8   7     2.091197423659   108.19417338   303.70774111
 H     23   8   7     2.091196728817   108.19460153    56.27794340
 C     23   8   7     2.892774773723   116.91930227   179.99422223
 H     26  23   8     2.090060171181   109.85126418   301.75776308
 H     26  23   8     2.090063608160   109.85058152    58.25398971
 C     26  23   8     2.897078817176   112.63950720   180.00598029
 H     29  26  23     2.090665091354   109.21751774   302.32623329
 H     29  26  23     2.090663959512   109.21671269    57.70277577
 C     29  26  23     2.891813687624   113.15643718   180.01397700
 H     32  29  26     2.086162212568   111.29937665    59.85893773
 H     32  29  26     2.086164052422   111.29950483   300.15162615
 C      3   2   1     2.309324833432   179.47413902   183.77205691
 H     20  17  14     2.082088574184   111.42857485   180.00149976
 H     32  29  26     2.082415311862   111.50416375   180.00547988
 C     35   3   7     2.698999282144   179.93479554   250.24704663
 C     38  35   3     2.668233029183   120.62899538    97.78477538
 C     39  38  35     2.635322300244   120.39812503   180.00399053
 C     40  39  38     2.644680965509   120.35761798     0.00000000
 C     41  40  39     2.644821841385   119.70970105     0.00000000
 C     42  41  40     2.634893722999   120.34224004     0.00000000
 H     41  40  39     2.064971998136   120.14328910   179.99965762
 H     42  41  40     2.064421283230   120.06899561   180.00053560
 H     39  38  35     2.062406381490   119.09412132     0.00000000
 H     43  42  41     2.063023081379   120.46505892   179.99973724
 H     40  39  38     2.064887150957   119.62435687   179.99746329
 C      1   2   4     2.698999271676   179.93479560    87.59035024
 C     49   1   2     2.668233016352   120.62899552    97.78474792
 C     50  49   1     2.635322310602   120.39812532   180.00399078
 C     51  50  49     2.644680946674   120.35761782     0.00000000
 C     52  51  50     2.644821854567   119.70970067     0.00000000
 C     53  52  51     2.634893707925   120.34224055     0.00000000
 H     52  51  50     2.064972000537   120.14328900   179.99965767
 H     53  52  51     2.064421304644   120.06899509   180.00053559
 H     50  49   1     2.062406401054   119.09412153     0.00000000
 H     54  53  52     2.063023074019   120.46505913   179.99973809
 H     51  50  49     2.064887135773   119.62435666   179.99746348

---------------------
BASIS SET INFORMATION
---------------------
There are 2 groups of distinct atoms

 Group   1 Type C   : 17s4p1d contracted to 3s2p1d pattern {881/31/1}
 Group   2 Type H   : 4s1p contracted to 2s1p pattern {31/1}

Atom   0C    basis set group =>   1
Atom   1C    basis set group =>   1
Atom   2C    basis set group =>   1
Atom   3C    basis set group =>   1
Atom   4C    basis set group =>   1
Atom   5C    basis set group =>   1
Atom   6C    basis set group =>   1
Atom   7C    basis set group =>   1
Atom   8C    basis set group =>   1
Atom   9H    basis set group =>   2
Atom  10H    basis set group =>   2
Atom  11C    basis set group =>   1
Atom  12H    basis set group =>   2
Atom  13C    basis set group =>   1
Atom  14H    basis set group =>   2
Atom  15H    basis set group =>   2
Atom  16C    basis set group =>   1
Atom  17H    basis set group =>   2
Atom  18H    basis set group =>   2
Atom  19C    basis set group =>   1
Atom  20H    basis set group =>   2
Atom  21H    basis set group =>   2
Atom  22C    basis set group =>   1
Atom  23H    basis set group =>   2
Atom  24H    basis set group =>   2
Atom  25C    basis set group =>   1
Atom  26H    basis set group =>   2
Atom  27H    basis set group =>   2
Atom  28C    basis set group =>   1
Atom  29H    basis set group =>   2
Atom  30H    basis set group =>   2
Atom  31C    basis set group =>   1
Atom  32H    basis set group =>   2
Atom  33H    basis set group =>   2
Atom  34C    basis set group =>   1
Atom  35H    basis set group =>   2
Atom  36H    basis set group =>   2
Atom  37C    basis set group =>   1
Atom  38C    basis set group =>   1
Atom  39C    basis set group =>   1
Atom  40C    basis set group =>   1
Atom  41C    basis set group =>   1
Atom  42C    basis set group =>   1
Atom  43H    basis set group =>   2
Atom  44H    basis set group =>   2
Atom  45H    basis set group =>   2
Atom  46H    basis set group =>   2
Atom  47H    basis set group =>   2
Atom  48C    basis set group =>   1
Atom  49C    basis set group =>   1
Atom  50C    basis set group =>   1
Atom  51C    basis set group =>   1
Atom  52C    basis set group =>   1
Atom  53C    basis set group =>   1
Atom  54H    basis set group =>   2
Atom  55H    basis set group =>   2
Atom  56H    basis set group =>   2
Atom  57H    basis set group =>   2
Atom  58H    basis set group =>   2


           ************************************************************
           *        Program running with 16 parallel MPI-processes    *
           *              working on a common directory               *
           ************************************************************
------------------------------------------------------------------------------
                           ORCA GTO INTEGRAL CALCULATION
------------------------------------------------------------------------------

                         BASIS SET STATISTICS AND STARTUP INFO

 # of primitive gaussian shells          ...  805
 # of primitive gaussian functions       ... 1223
 # of contracted shells                  ...  267
 # of contracted basis functions         ...  565
 Highest angular momentum                ...    2
 Maximum contraction depth               ...    8
 Integral package used                   ... LIBINT
 Integral threshhold            Thresh   ...  2.500e-11
 Primitive cut-off              TCut     ...  2.500e-12


------------------------------ INTEGRAL EVALUATION ----------------------------


 * One electron integrals 
 Pre-screening matrix                    ... done
 Shell pair data                         ... done (   0.011 sec)



           ************************************************************
           *        Program running with 16 parallel MPI-processes    *
           *              working on a common directory               *
           ************************************************************
-------------------------------------------------------------------------------
                                 ORCA SCF
-------------------------------------------------------------------------------

------------
SCF SETTINGS
------------
Hamiltonian:
 Density Functional     Method          .... DFT(GTOs)
 Exchange Functional    Exchange        .... B88
   X-Alpha parameter    XAlpha          ....  0.666667
   Becke's b parameter  XBeta           ....  0.004200
 Correlation Functional Correlation     .... LYP
 LDA part of GGA corr.  LDAOpt          .... VWN-5
 Gradients option       PostSCFGGA      .... off
 Hybrid DFT is turned on
   Fraction HF Exchange ScalHFX         ....  0.200000
   Scaling of DF-GGA-X  ScalDFX         ....  0.720000
   Scaling of DF-GGA-C  ScalDFC         ....  0.810000
   Scaling of DF-LDA-C  ScalLDAC        ....  1.000000
   Perturbative correction              ....  0.000000
   Density functional embedding theory  .... OFF
   NL short-range parameter             ....  4.800000


General Settings:
 Integral files         IntName         .... opt
 Hartree-Fock type      HFTyp           .... UHF
 Total Charge           Charge          ....    0
 Multiplicity           Mult            ....    2
 Number of Electrons    NEL             ....  209
 Basis Dimension        Dim             ....  565
 Nuclear Repulsion      ENuc            ....   2364.6120520964 Eh

Convergence Acceleration:
 DIIS                   CNVDIIS         .... on
   Start iteration      DIISMaxIt       ....    12
   Startup error        DIISStart       ....  0.200000
   # of expansion vecs  DIISMaxEq       ....     5
   Bias factor          DIISBfac        ....   1.050
   Max. coefficient     DIISMaxC        ....  10.000
 Newton-Raphson         CNVNR           .... off
 SOSCF                  CNVSOSCF        .... off
 Level Shifting         CNVShift        .... on
   Level shift para.    LevelShift      ....    0.2500
   Turn off err/grad.   ShiftErr        ....    0.0010
 Zerner damping         CNVZerner       .... off
 Static damping         CNVDamp         .... on
   Fraction old density DampFac         ....    0.7000
   Max. Damping (<1)    DampMax         ....    0.9800
   Min. Damping (>=0)   DampMin         ....    0.0000
   Turn off err/grad.   DampErr         ....    0.1000
 Fernandez-Rico         CNVRico         .... off

SCF Procedure:
 Maximum # iterations   MaxIter         ....   125
 SCF integral mode      SCFMode         .... Direct
   Integral package                     .... LIBINT
 Reset frequency        DirectResetFreq ....    20
 Integral Threshold     Thresh          ....  2.500e-11 Eh
 Primitive CutOff       TCut            ....  2.500e-12 Eh

Convergence Tolerance:
 Convergence Check Mode ConvCheckMode   .... Total+1el-Energy
 Convergence forced     ConvForced      .... 0
 Energy Change          TolE            ....  1.000e-08 Eh
 1-El. energy change                    ....  1.000e-05 Eh
 DIIS Error             TolErr          ....  5.000e-07


Diagonalization of the overlap matrix:
Smallest eigenvalue                        ... 4.668e-05
Time for diagonalization                   ...    0.076 sec
Threshold for overlap eigenvalues          ... 1.000e-08
Number of eigenvalues below threshold      ... 0
Time for construction of square roots      ...    0.075 sec
Total time needed                          ...    0.153 sec

-------------------
DFT GRID GENERATION
-------------------

General Integration Accuracy     IntAcc      ...  4.340
Radial Grid Type                 RadialGrid  ... Gauss-Chebyshev
Angular Grid (max. acc.)         AngularGrid ... Lebedev-110
Angular grid pruning method      GridPruning ... 3 (G Style)
Weight generation scheme         WeightScheme... Becke
Basis function cutoff            BFCut       ...    1.0000e-11
Integration weight cutoff        WCut        ...    1.0000e-14
Grids for H and He will be reduced by one unit

# of grid points (after initial pruning)     ...  72706 (   0.0 sec)
# of grid points (after weights+screening)   ...  64744 (   0.2 sec)
nearest neighbour list constructed           ...    0.0 sec
Grid point re-assignment to atoms done       ...    0.0 sec
Grid point division into batches done        ...    0.1 sec
Reduced shell lists constructed in    0.2 sec

Total number of grid points                  ...    64744
Total number of batches                      ...     1038
Average number of points per batch           ...       62
Average number of grid points per atom       ...     1097
Average number of shells per batch           ...   117.86 (44.14%)
Average number of basis functions per batch  ...   238.20 (42.16%)
Average number of large shells per batch     ...    69.58 (59.03%)
Average number of large basis fcns per batch ...   147.33 (61.85%)
Maximum spatial batch extension              ...   3.49,  6.78, 28.59 au
Average spatial batch extension              ...   0.11,  0.14,  0.26 au

Time for grid setup =    0.567 sec

------------------------------
INITIAL GUESS: MODEL POTENTIAL
------------------------------
Loading Hartree-Fock densities                     ... done
Calculating cut-offs                               ... done
Setting up the integral package                    ... done
Initializing the effective Hamiltonian             ... done
Starting the Coulomb interaction                   ... done (   0.3 sec)
Reading the grid                                   ... done
Mapping shells                                     ... done
Starting the XC term evaluation                    ... done (   0.2 sec)
  promolecular density results
     # of electrons  =    209.017421174
     EX              =   -162.721679917
     EC              =     -6.909487966
     EX+EC           =   -169.631167882
Transforming the Hamiltonian                       ... done (   0.0 sec)
Diagonalizing the Hamiltonian                      ... done (   0.1 sec)
Back transforming the eigenvectors                 ... done (   0.0 sec)
Now organizing SCF variables                       ... done
                      ------------------
                      INITIAL GUESS DONE (   1.6 sec)
                      ------------------
--------------
SCF ITERATIONS
--------------
ITER       Energy         Delta-E        Max-DP      RMS-DP      [F,P]     Damp
               ***  Starting incremental Fock matrix formation  ***
  0  -1159.1962394649   0.000000000000 0.07129389  0.00082125  0.1734828 0.7000
  1  -1159.4764254777  -0.280186012772 0.06294780  0.00066341  0.0913393 0.7000
                               ***Turning on DIIS***
  2  -1159.6044372476  -0.128011769918 0.13253148  0.00130571  0.0349140 0.0000
  3  -1159.7881080491  -0.183670801478 0.02884909  0.00034504  0.0496699 0.0000
  4  -1159.8331327073  -0.045024658211 0.01828675  0.00015722  0.0096257 0.0000
  5  -1159.8359511360  -0.002818428699 0.00439332  0.00003536  0.0024990 0.0000
  6  -1159.8363342982  -0.000383162238 0.00305731  0.00001798  0.0013911 0.0000
  7  -1159.8364790927  -0.000144794437 0.00218077  0.00001176  0.0010301 0.0000
  8  -1159.8365580214  -0.000078928789 0.00345847  0.00002269  0.0007602 0.0000
  9  -1159.8366537458  -0.000095724341 0.00089844  0.00000636  0.0006984 0.0000
 10  -1159.8366668223  -0.000013076500 0.00105753  0.00000622  0.0006145 0.0000
 11  -1159.8366756518  -0.000008829469 0.00046642  0.00000262  0.0001366 0.0000
 12  -1159.8366778968  -0.000002245073 0.00022034  0.00000132  0.0000420 0.0000
 13  -1159.8366787424  -0.000000845558 0.00019943  0.00000120  0.0000344 0.0000
 14  -1159.8366793321  -0.000000589754 0.00014535  0.00000094  0.0000275 0.0000
 15  -1159.8366796805  -0.000000348382 0.00012203  0.00000087  0.0000193 0.0000
 16  -1159.8366799134  -0.000000232860 0.00008375  0.00000064  0.0000129 0.0000
 17  -1159.8366800318  -0.000000118414 0.00004915  0.00000040  0.0000123 0.0000
 18  -1159.8366800818  -0.000000050041 0.00005066  0.00000043  0.0000077 0.0000
 19  -1159.8366801180  -0.000000036165 0.00002844  0.00000025  0.0000032 0.0000
               *** Restarting incremental Fock matrix formation ***
                                   *** Resetting DIIS ***
 20  -1159.8366801358  -0.000000017776 0.00001152  0.00000012  0.0000031 0.0000
 21  -1159.8366801596  -0.000000023860 0.00000403  0.00000003  0.0000084 0.0000
                 **** Energy Check signals convergence ****

               *****************************************************
               *                     SUCCESS                       *
               *           SCF CONVERGED AFTER  22 CYCLES          *
               *****************************************************

Setting up the final grid:

General Integration Accuracy     IntAcc      ...  4.670
Radial Grid Type                 RadialGrid  ... Gauss-Chebyshev
Angular Grid (max. acc.)         AngularGrid ... Lebedev-302
Angular grid pruning method      GridPruning ... 3 (G Style)
Weight generation scheme         WeightScheme... Becke
Basis function cutoff            BFCut       ...    1.0000e-11
Integration weight cutoff        WCut        ...    1.0000e-14
Grids for H and He will be reduced by one unit

# of grid points (after initial pruning)     ... 284786 (   0.0 sec)
# of grid points (after weights+screening)   ... 248712 (   0.7 sec)
nearest neighbour list constructed           ...    0.0 sec
Grid point re-assignment to atoms done       ...    0.1 sec
Grid point division into batches done        ...    0.9 sec
Reduced shell lists constructed in    1.3 sec

Total number of grid points                  ...   248712
Total number of batches                      ...     3919
Average number of points per batch           ...       63
Average number of grid points per atom       ...     4215
Average number of shells per batch           ...   108.32 (40.57%)
Average number of basis functions per batch  ...   218.32 (38.64%)
Average number of large shells per batch     ...    63.10 (58.25%)
Average number of large basis fcns per batch ...   132.79 (60.82%)
Maximum spatial batch extension              ...   6.14,  8.43, 15.31 au
Average spatial batch extension              ...   0.09,  0.10,  0.12 au

Final grid set up in    2.2 sec
Final integration                            ... done (   0.8 sec)
Change in XC energy                          ...     0.001370323
Integrated number of electrons               ...   208.999949687
Previous integrated no of electrons          ...   209.015873353

----------------
TOTAL SCF ENERGY
----------------

Total Energy       :        -1159.83530984 Eh          -31560.72330 eV

Components:
Nuclear Repulsion  :         2364.61205210 Eh           64344.36514 eV
Electronic Energy  :        -3524.44736194 Eh          -95905.08844 eV
One Electron Energy:        -6264.12177673 Eh         -170455.41933 eV
Two Electron Energy:         2739.67441479 Eh           74550.33089 eV

Virial components:
Potential Energy   :        -2311.75701182 Eh          -62906.10638 eV
Kinetic Energy     :         1151.92170198 Eh           31345.38308 eV
Virial Ratio       :            2.00686992


DFT components:
N(Alpha)           :      104.999981284349 electrons
N(Beta)            :      103.999968402899 electrons
N(Total)           :      208.999949687248 electrons
E(X)               :     -131.494113460840 Eh       
E(C)               :       -8.161373949187 Eh       
E(XC)              :     -139.655487410026 Eh       
DFET-embed. en.    :        0.000000000000 Eh       

---------------
SCF CONVERGENCE
---------------

  Last Energy change         ...   -6.0913e-09  Tolerance :   1.0000e-08
  Last MAX-Density change    ...    4.4643e-06  Tolerance :   1.0000e-07
  Last RMS-Density change    ...    4.5965e-08  Tolerance :   5.0000e-09
  Last DIIS Error            ...    1.5470e-06  Tolerance :   5.0000e-07

             **** THE GBW FILE WAS UPDATED (opt.gbw) ****
             **** DENSITY FILE WAS UPDATED (opt.scfp) ****
             **** ENERGY FILE WAS UPDATED (opt.en.tmp) ****
----------------------
UHF SPIN CONTAMINATION
----------------------

Warning: in a DFT calculation there is little theoretical justification to 
         calculate <S**2> as in Hartree-Fock theory. We will do it anyways
         but you should keep in mind that the values have only limited relevance

Expectation value of <S**2>     :     0.787516
Ideal value S*(S+1) for S=0.5   :     0.750000
Deviation                       :     0.037516

             **** THE GBW FILE WAS UPDATED (opt.gbw) ****
             **** DENSITY FILE WAS UPDATED (opt.scfp) ****
----------------
ORBITAL ENERGIES
----------------
                 SPIN UP ORBITALS
  NO   OCC          E(Eh)            E(eV) 
   0   1.0000     -10.215754      -277.9848 
   1   1.0000     -10.214117      -277.9403 
   2   1.0000     -10.212570      -277.8982 
   3   1.0000     -10.210338      -277.8374 
   4   1.0000     -10.201038      -277.5844 
   5   1.0000     -10.196688      -277.4660 
   6   1.0000     -10.196491      -277.4606 
   7   1.0000     -10.196314      -277.4558 
   8   1.0000     -10.195501      -277.4337 
   9   1.0000     -10.195378      -277.4303 
  10   1.0000     -10.195059      -277.4217 
  11   1.0000     -10.194944      -277.4185 
  12   1.0000     -10.194759      -277.4135 
  13   1.0000     -10.194256      -277.3998 
  14   1.0000     -10.193546      -277.3805 
  15   1.0000     -10.193379      -277.3759 
  16   1.0000     -10.192995      -277.3655 
  17   1.0000     -10.191677      -277.3296 
  18   1.0000     -10.188620      -277.2464 
  19   1.0000     -10.188206      -277.2352 
  20   1.0000     -10.187657      -277.2202 
  21   1.0000     -10.186612      -277.1918 
  22   1.0000     -10.186572      -277.1907 
  23   1.0000     -10.186473      -277.1880 
  24   1.0000     -10.184332      -277.1298 
  25   1.0000     -10.184033      -277.1216 
  26   1.0000     -10.181969      -277.0655 
  27   1.0000     -10.181551      -277.0541 
  28   1.0000     -10.177111      -276.9333 
  29   1.0000     -10.175785      -276.8972 
  30   1.0000      -0.872587       -23.7443 
  31   1.0000      -0.862735       -23.4762 
  32   1.0000      -0.861590       -23.4451 
  33   1.0000      -0.819192       -22.2914 
  34   1.0000      -0.798520       -21.7288 
  35   1.0000      -0.796320       -21.6690 
  36   1.0000      -0.781847       -21.2751 
  37   1.0000      -0.772784       -21.0285 
  38   1.0000      -0.765739       -20.8368 
  39   1.0000      -0.750439       -20.4205 
  40   1.0000      -0.749347       -20.3908 
  41   1.0000      -0.737857       -20.0781 
  42   1.0000      -0.726475       -19.7684 
  43   1.0000      -0.709820       -19.3152 
  44   1.0000      -0.697007       -18.9665 
  45   1.0000      -0.656096       -17.8533 
  46   1.0000      -0.645335       -17.5605 
  47   1.0000      -0.622948       -16.9513 
  48   1.0000      -0.613211       -16.6863 
  49   1.0000      -0.608790       -16.5660 
  50   1.0000      -0.608398       -16.5553 
  51   1.0000      -0.607351       -16.5269 
  52   1.0000      -0.590262       -16.0619 
  53   1.0000      -0.579745       -15.7757 
  54   1.0000      -0.560858       -15.2617 
  55   1.0000      -0.540012       -14.6945 
  56   1.0000      -0.534493       -14.5443 
  57   1.0000      -0.506693       -13.7878 
  58   1.0000      -0.502988       -13.6870 
  59   1.0000      -0.479858       -13.0576 
  60   1.0000      -0.478674       -13.0254 
  61   1.0000      -0.474364       -12.9081 
  62   1.0000      -0.470608       -12.8059 
  63   1.0000      -0.462089       -12.5741 
  64   1.0000      -0.457230       -12.4419 
  65   1.0000      -0.455922       -12.4063 
  66   1.0000      -0.436585       -11.8801 
  67   1.0000      -0.434801       -11.8316 
  68   1.0000      -0.430492       -11.7143 
  69   1.0000      -0.428274       -11.6539 
  70   1.0000      -0.425852       -11.5880 
  71   1.0000      -0.423794       -11.5320 
  72   1.0000      -0.422610       -11.4998 
  73   1.0000      -0.421582       -11.4718 
  74   1.0000      -0.411535       -11.1984 
  75   1.0000      -0.397994       -10.8300 
  76   1.0000      -0.397312       -10.8114 
  77   1.0000      -0.383798       -10.4437 
  78   1.0000      -0.381042       -10.3687 
  79   1.0000      -0.377910       -10.2834 
  80   1.0000      -0.374503       -10.1908 
  81   1.0000      -0.364926        -9.9301 
  82   1.0000      -0.361416        -9.8346 
  83   1.0000      -0.359386        -9.7794 
  84   1.0000      -0.355170        -9.6647 
  85   1.0000      -0.353347        -9.6151 
  86   1.0000      -0.350014        -9.5244 
  87   1.0000      -0.348924        -9.4947 
  88   1.0000      -0.339979        -9.2513 
  89   1.0000      -0.332482        -9.0473 
  90   1.0000      -0.331907        -9.0317 
  91   1.0000      -0.330719        -8.9993 
  92   1.0000      -0.327589        -8.9141 
  93   1.0000      -0.323714        -8.8087 
  94   1.0000      -0.321829        -8.7574 
  95   1.0000      -0.305696        -8.3184 
  96   1.0000      -0.278018        -7.5653 
  97   1.0000      -0.271730        -7.3942 
  98   1.0000      -0.267741        -7.2856 
  99   1.0000      -0.267184        -7.2705 
 100   1.0000      -0.258062        -7.0222 
 101   1.0000      -0.257434        -7.0051 
 102   1.0000      -0.235974        -6.4212 
 103   1.0000      -0.208413        -5.6712 
 104   1.0000      -0.169904        -4.6233 
 105   0.0000      -0.063333        -1.7234 
 106   0.0000      -0.026912        -0.7323 
 107   0.0000      -0.009678        -0.2633 
 108   0.0000      -0.008890        -0.2419 
 109   0.0000       0.005535         0.1506 
 110   0.0000       0.018760         0.5105 
 111   0.0000       0.043418         1.1815 
 112   0.0000       0.052720         1.4346 
 113   0.0000       0.054289         1.4773 
 114   0.0000       0.056158         1.5281 
 115   0.0000       0.062393         1.6978 
 116   0.0000       0.063856         1.7376 
 117   0.0000       0.078471         2.1353 
 118   0.0000       0.079046         2.1509 
 119   0.0000       0.081131         2.2077 
 120   0.0000       0.089719         2.4414 
 121   0.0000       0.090785         2.4704 
 122   0.0000       0.095902         2.6096 
 123   0.0000       0.101071         2.7503 
 124   0.0000       0.101902         2.7729 
 125   0.0000       0.103948         2.8286 
 126   0.0000       0.114106         3.1050 
 127   0.0000       0.118222         3.2170 
 128   0.0000       0.121371         3.3027 
 129   0.0000       0.125924         3.4266 
 130   0.0000       0.130711         3.5568 
 131   0.0000       0.134842         3.6692 
 132   0.0000       0.138635         3.7725 
 133   0.0000       0.143973         3.9177 
 134   0.0000       0.145656         3.9635 
 135   0.0000       0.148461         4.0398 
 136   0.0000       0.156230         4.2512 
 137   0.0000       0.156559         4.2602 
 138   0.0000       0.159975         4.3531 
 139   0.0000       0.161311         4.3895 
 140   0.0000       0.163907         4.4601 
 141   0.0000       0.168365         4.5814 
 142   0.0000       0.173767         4.7285 
 143   0.0000       0.174795         4.7564 
 144   0.0000       0.181278         4.9328 
 145   0.0000       0.200070         5.4442 
 146   0.0000       0.205252         5.5852 
 147   0.0000       0.213500         5.8096 
 148   0.0000       0.217736         5.9249 
 149   0.0000       0.218915         5.9570 
 150   0.0000       0.219262         5.9664 
 151   0.0000       0.224842         6.1183 
 152   0.0000       0.226405         6.1608 
 153   0.0000       0.244101         6.6423 
 154   0.0000       0.248444         6.7605 
 155   0.0000       0.268434         7.3045 
 156   0.0000       0.276588         7.5264 
 157   0.0000       0.279273         7.5994 
 158   0.0000       0.280617         7.6360 
 159   0.0000       0.288363         7.8468 
 160   0.0000       0.292857         7.9690 
 161   0.0000       0.293144         7.9769 
 162   0.0000       0.308353         8.3907 
 163   0.0000       0.314487         8.5576 
 164   0.0000       0.315016         8.5720 
 165   0.0000       0.321911         8.7596 
 166   0.0000       0.332048         9.0355 
 167   0.0000       0.343410         9.3447 
 168   0.0000       0.362718         9.8701 
 169   0.0000       0.364757         9.9255 
 170   0.0000       0.372671        10.1409 
 171   0.0000       0.382176        10.3995 
 172   0.0000       0.396235        10.7821 
 173   0.0000       0.408932        11.1276 
 174   0.0000       0.411375        11.1941 
 175   0.0000       0.412520        11.2252 
 176   0.0000       0.419093        11.4041 
 177   0.0000       0.419739        11.4217 
 178   0.0000       0.428780        11.6677 
 179   0.0000       0.435477        11.8499 
 180   0.0000       0.439994        11.9728 
 181   0.0000       0.441587        12.0162 
 182   0.0000       0.445868        12.1327 
 183   0.0000       0.451317        12.2809 
 184   0.0000       0.452830        12.3221 
 185   0.0000       0.454853        12.3772 
 186   0.0000       0.461471        12.5573 
 187   0.0000       0.470173        12.7940 
 188   0.0000       0.473892        12.8953 
 189   0.0000       0.475301        12.9336 
 190   0.0000       0.476214        12.9584 
 191   0.0000       0.476300        12.9608 
 192   0.0000       0.479121        13.0376 
 193   0.0000       0.484886        13.1944 
 194   0.0000       0.490144        13.3375 
 195   0.0000       0.499300        13.5866 
 196   0.0000       0.499969        13.6048 
 197   0.0000       0.504342        13.7238 
 198   0.0000       0.507738        13.8162 
 199   0.0000       0.508648        13.8410 
 200   0.0000       0.509742        13.8708 
 201   0.0000       0.510175        13.8826 
 202   0.0000       0.513329        13.9684 
 203   0.0000       0.514241        13.9932 
 204   0.0000       0.516318        14.0497 
 205   0.0000       0.517000        14.0683 
 206   0.0000       0.517121        14.0716 
 207   0.0000       0.518014        14.0959 
 208   0.0000       0.521496        14.1906 
 209   0.0000       0.525158        14.2903 
 210   0.0000       0.529065        14.3966 
 211   0.0000       0.540597        14.7104 
 212   0.0000       0.548749        14.9322 
 213   0.0000       0.556972        15.1560 
 214   0.0000       0.560271        15.2458 
 215   0.0000       0.572512        15.5789 
 216   0.0000       0.579552        15.7704 
 217   0.0000       0.581456        15.8222 
 218   0.0000       0.585365        15.9286 
 219   0.0000       0.588132        16.0039 
 220   0.0000       0.591383        16.0924 
 221   0.0000       0.593993        16.1634 
 222   0.0000       0.600915        16.3517 
 223   0.0000       0.605700        16.4819 
 224   0.0000       0.608989        16.5714 
 225   0.0000       0.619568        16.8593 
 226   0.0000       0.620522        16.8852 
 227   0.0000       0.627142        17.0654 
 228   0.0000       0.632563        17.2129 
 229   0.0000       0.634030        17.2528 
 230   0.0000       0.637025        17.3343 
 231   0.0000       0.639696        17.4070 
 232   0.0000       0.639779        17.4093 
 233   0.0000       0.641630        17.4596 
 234   0.0000       0.645125        17.5547 
 235   0.0000       0.645557        17.5665 
 236   0.0000       0.650823        17.7098 
 237   0.0000       0.654966        17.8225 
 238   0.0000       0.658895        17.9294 
 239   0.0000       0.661587        18.0027 
 240   0.0000       0.662269        18.0213 
 241   0.0000       0.663051        18.0425 
 242   0.0000       0.665830        18.1182 
 243   0.0000       0.668988        18.2041 
 244   0.0000       0.672126        18.2895 
 245   0.0000       0.676227        18.4011 
 246   0.0000       0.677038        18.4232 
 247   0.0000       0.680636        18.5210 
 248   0.0000       0.683221        18.5914 
 249   0.0000       0.687232        18.7005 
 250   0.0000       0.687392        18.7049 
 251   0.0000       0.689189        18.7538 
 252   0.0000       0.690941        18.8015 
 253   0.0000       0.695523        18.9261 
 254   0.0000       0.700878        19.0719 
 255   0.0000       0.705355        19.1937 
 256   0.0000       0.711515        19.3613 
 257   0.0000       0.717190        19.5157 
 258   0.0000       0.719694        19.5839 
 259   0.0000       0.721636        19.6367 
 260   0.0000       0.726305        19.7638 
 261   0.0000       0.736146        20.0315 
 262   0.0000       0.736311        20.0360 
 263   0.0000       0.743696        20.2370 
 264   0.0000       0.745718        20.2920 
 265   0.0000       0.764222        20.7955 
 266   0.0000       0.765952        20.8426 
 267   0.0000       0.768009        20.8986 
 268   0.0000       0.780273        21.2323 
 269   0.0000       0.786090        21.3906 
 270   0.0000       0.791973        21.5507 
 271   0.0000       0.797848        21.7105 
 272   0.0000       0.813160        22.1272 
 273   0.0000       0.815096        22.1799 
 274   0.0000       0.831552        22.6277 
 275   0.0000       0.833911        22.6919 
 276   0.0000       0.847229        23.0543 
 277   0.0000       0.853369        23.2214 
 278   0.0000       0.863777        23.5046 
 279   0.0000       0.866671        23.5833 
 280   0.0000       0.867519        23.6064 
 281   0.0000       0.881789        23.9947 
 282   0.0000       0.886810        24.1313 
 283   0.0000       0.900972        24.5167 
 284   0.0000       0.902139        24.5484 
 285   0.0000       0.908227        24.7141 
 286   0.0000       0.908424        24.7195 
 287   0.0000       0.913335        24.8531 
 288   0.0000       0.914489        24.8845 
 289   0.0000       0.924197        25.1487 
 290   0.0000       0.934463        25.4280 
 291   0.0000       0.936959        25.4960 
 292   0.0000       0.948899        25.8209 
 293   0.0000       0.952321        25.9140 
 294   0.0000       0.958791        26.0900 
 295   0.0000       0.964363        26.2417 
 296   0.0000       0.975572        26.5467 
 297   0.0000       0.977408        26.5966 
 298   0.0000       0.979248        26.6467 
 299   0.0000       0.987274        26.8651 
 300   0.0000       0.992821        27.0160 
 301   0.0000       0.994860        27.0715 
 302   0.0000       1.001246        27.2453 
 303   0.0000       1.002985        27.2926 
 304   0.0000       1.003150        27.2971 
 305   0.0000       1.011323        27.5195 
 306   0.0000       1.021243        27.7894 
 307   0.0000       1.024820        27.8868 
 308   0.0000       1.028449        27.9855 
 309   0.0000       1.032072        28.0841 
 310   0.0000       1.035220        28.1698 
 311   0.0000       1.043640        28.3989 
 312   0.0000       1.046685        28.4818 
 313   0.0000       1.048747        28.5378 
 314   0.0000       1.051940        28.6247 
 315   0.0000       1.059138        28.8206 
 316   0.0000       1.060428        28.8557 
 317   0.0000       1.070574        29.1318 
 318   0.0000       1.092871        29.7385 
 319   0.0000       1.093945        29.7677 
 320   0.0000       1.110992        30.2316 
 321   0.0000       1.111115        30.2350 
 322   0.0000       1.118213        30.4281 
 323   0.0000       1.124187        30.5907 
 324   0.0000       1.136098        30.9148 
 325   0.0000       1.146313        31.1928 
 326   0.0000       1.156169        31.4610 
 327   0.0000       1.169802        31.8319 
 328   0.0000       1.181684        32.1553 
 329   0.0000       1.188900        32.3516 
 330   0.0000       1.199217        32.6323 
 331   0.0000       1.206525        32.8312 
 332   0.0000       1.209250        32.9054 
 333   0.0000       1.213249        33.0142 
 334   0.0000       1.218217        33.1494 
 335   0.0000       1.220105        33.2007 
 336   0.0000       1.226122        33.3645 
 337   0.0000       1.229025        33.4435 
 338   0.0000       1.232860        33.5478 
 339   0.0000       1.252859        34.0920 
 340   0.0000       1.276405        34.7328 
 341   0.0000       1.279242        34.8100 
 342   0.0000       1.294046        35.2128 
 343   0.0000       1.299874        35.3714 
 344   0.0000       1.302630        35.4464 
 345   0.0000       1.314400        35.7667 
 346   0.0000       1.317213        35.8432 
 347   0.0000       1.329176        36.1687 
 348   0.0000       1.337464        36.3942 
 349   0.0000       1.358956        36.9791 
 350   0.0000       1.369875        37.2762 
 351   0.0000       1.380454        37.5641 
 352   0.0000       1.387131        37.7458 
 353   0.0000       1.388160        37.7738 
 354   0.0000       1.391714        37.8705 
 355   0.0000       1.403951        38.2034 
 356   0.0000       1.415860        38.5275 
 357   0.0000       1.416995        38.5584 
 358   0.0000       1.424060        38.7506 
 359   0.0000       1.425144        38.7801 
 360   0.0000       1.426334        38.8125 
 361   0.0000       1.440080        39.1866 
 362   0.0000       1.452841        39.5338 
 363   0.0000       1.459651        39.7191 
 364   0.0000       1.463931        39.8356 
 365   0.0000       1.476907        40.1887 
 366   0.0000       1.478266        40.2257 
 367   0.0000       1.480135        40.2765 
 368   0.0000       1.481414        40.3113 
 369   0.0000       1.484832        40.4043 
 370   0.0000       1.485611        40.4255 
 371   0.0000       1.493508        40.6404 
 372   0.0000       1.496187        40.7133 
 373   0.0000       1.497810        40.7575 
 374   0.0000       1.508977        41.0614 
 375   0.0000       1.514849        41.2211 
[...]
      pz      :    -0.000176  p :    -0.000579
      px      :    -0.000333
      py      :    -0.000071
 16 C s       :     0.000138  s :     0.000138
      pz      :     0.001064  p :     0.001543
      px      :     0.000317
      py      :     0.000162
      dz2     :    -0.000059  d :    -0.000504
      dxz     :     0.000152
      dyz     :    -0.000127
      dx2y2   :    -0.000402
      dxy     :    -0.000069
 17 H s       :     0.000146  s :     0.000146
      pz      :     0.000034  p :     0.000171
      px      :     0.000080
      py      :     0.000057
 18 H s       :     0.000142  s :     0.000142
      pz      :     0.000033  p :     0.000170
      px      :     0.000080
      py      :     0.000057
 19 C s       :    -0.000173  s :    -0.000173
      pz      :     0.000398  p :     0.000032
      px      :    -0.000058
      py      :    -0.000308
      dz2     :    -0.000004  d :     0.000115
      dxz     :     0.000013
      dyz     :     0.000116
      dx2y2   :     0.000008
      dxy     :    -0.000019
 20 H s       :     0.000211  s :     0.000211
      pz      :     0.000001  p :     0.000038
      px      :     0.000018
      py      :     0.000019
 21 H s       :     0.000211  s :     0.000211
      pz      :     0.000001  p :     0.000038
      px      :     0.000017
      py      :     0.000019
 22 C s       :    -0.001160  s :    -0.001160
      pz      :    -0.000331  p :    -0.005165
      px      :    -0.002177
      py      :    -0.002657
      dz2     :     0.000149  d :     0.008434
      dxz     :     0.004733
      dyz     :     0.003042
      dx2y2   :     0.000211
      dxy     :     0.000299
 23 H s       :     0.007942  s :     0.007942
      pz      :    -0.000075  p :    -0.000189
      px      :    -0.000143
      py      :     0.000029
 24 H s       :     0.007951  s :     0.007951
      pz      :    -0.000075  p :    -0.000189
      px      :    -0.000143
      py      :     0.000029
 25 C s       :     0.000037  s :     0.000037
      pz      :     0.000019  p :     0.000191
      px      :     0.000099
      py      :     0.000073
      dz2     :    -0.000014  d :    -0.000071
      dxz     :     0.000117
      dyz     :    -0.000025
      dx2y2   :    -0.000100
      dxy     :    -0.000048
 26 H s       :     0.000032  s :     0.000032
      pz      :     0.000007  p :     0.000019
      px      :     0.000010
      py      :     0.000002
 27 H s       :     0.000032  s :     0.000032
      pz      :     0.000007  p :     0.000019
      px      :     0.000010
      py      :     0.000002
 28 C s       :    -0.000047  s :    -0.000047
      pz      :     0.000175  p :     0.000067
      px      :    -0.000024
      py      :    -0.000084
      dz2     :    -0.000002  d :     0.000000
      dxz     :    -0.000003
      dyz     :     0.000012
      dx2y2   :    -0.000001
      dxy     :    -0.000007
 29 H s       :     0.000072  s :     0.000072
      pz      :     0.000001  p :     0.000019
      px      :     0.000006
      py      :     0.000013
 30 H s       :     0.000072  s :     0.000072
      pz      :     0.000001  p :     0.000019
      px      :     0.000006
      py      :     0.000013
 31 C s       :    -0.000009  s :    -0.000009
      pz      :    -0.000001  p :    -0.000045
      px      :    -0.000013
      py      :    -0.000032
      dz2     :    -0.000000  d :     0.000017
      dxz     :     0.000011
      dyz     :     0.000007
      dx2y2   :    -0.000003
      dxy     :     0.000001
 32 H s       :     0.000017  s :     0.000017
      pz      :    -0.000000  p :    -0.000001
      px      :    -0.000000
      py      :    -0.000001
 33 H s       :     0.000017  s :     0.000017
      pz      :    -0.000000  p :    -0.000001
      px      :    -0.000000
      py      :    -0.000001
 34 C s       :    -0.001155  s :    -0.001155
      pz      :    -0.029806  p :    -0.035095
      px      :    -0.000533
      py      :    -0.004756
      dz2     :     0.000124  d :     0.001875
      dxz     :     0.001358
      dyz     :     0.000000
      dx2y2   :     0.000147
      dxy     :     0.000246
 35 H s       :    -0.000130  s :    -0.000130
      pz      :     0.000032  p :     0.000021
      px      :     0.000003
      py      :    -0.000015
 36 H s       :    -0.000004  s :    -0.000004
      pz      :    -0.000000  p :    -0.000003
      px      :    -0.000001
      py      :    -0.000002
 37 C s       :     0.000436  s :     0.000436
      pz      :     0.005815  p :     0.006871
      px      :     0.000756
      py      :     0.000299
      dz2     :    -0.000039  d :    -0.002316
      dxz     :    -0.001709
      dyz     :    -0.000178
      dx2y2   :    -0.000116
      dxy     :    -0.000275
 38 C s       :    -0.000346  s :    -0.000346
      pz      :    -0.008283  p :    -0.008812
      px      :    -0.000266
      py      :    -0.000264
      dz2     :     0.000034  d :     0.000474
      dxz     :     0.000211
      dyz     :     0.000131
      dx2y2   :     0.000050
      dxy     :     0.000049
 39 C s       :     0.000192  s :     0.000192
      pz      :     0.003771  p :     0.004160
      px      :     0.000222
      py      :     0.000166
      dz2     :    -0.000019  d :    -0.000838
      dxz     :    -0.000574
      dyz     :    -0.000174
      dx2y2   :    -0.000034
      dxy     :    -0.000037
 40 C s       :    -0.000308  s :    -0.000308
      pz      :    -0.008833  p :    -0.009270
      px      :    -0.000201
      py      :    -0.000236
      dz2     :     0.000039  d :     0.000332
      dxz     :     0.000041
      dyz     :     0.000192
      dx2y2   :     0.000031
      dxy     :     0.000029
 41 C s       :     0.000192  s :     0.000192
      pz      :     0.003766  p :     0.004154
      px      :     0.000218
      py      :     0.000171
      dz2     :    -0.000019  d :    -0.000838
      dxz     :    -0.000547
      dyz     :    -0.000201
      dx2y2   :    -0.000035
      dxy     :    -0.000036
 42 C s       :    -0.000345  s :    -0.000345
      pz      :    -0.008279  p :    -0.008804
      px      :    -0.000271
      py      :    -0.000254
      dz2     :     0.000033  d :     0.000474
      dxz     :     0.000222
      dyz     :     0.000120
      dx2y2   :     0.000053
      dxy     :     0.000045
 43 H s       :     0.000279  s :     0.000279
      pz      :    -0.000270  p :    -0.000313
      px      :    -0.000038
      py      :    -0.000005
 44 H s       :    -0.000121  s :    -0.000121
      pz      :     0.000109  p :     0.000133
      px      :     0.000010
      py      :     0.000014
 45 H s       :     0.000258  s :     0.000258
      pz      :    -0.000224  p :    -0.000268
      px      :    -0.000013
      py      :    -0.000031
 46 H s       :     0.000250  s :     0.000250
      pz      :    -0.000224  p :    -0.000268
      px      :    -0.000012
      py      :    -0.000032
 47 H s       :    -0.000121  s :    -0.000121
      pz      :     0.000109  p :     0.000133
      px      :     0.000010
      py      :     0.000015
 48 C s       :    -0.000946  s :    -0.000946
      pz      :    -0.012498  p :    -0.014804
      px      :    -0.001616
      py      :    -0.000690
      dz2     :     0.000083  d :     0.005090
      dxz     :     0.003866
      dyz     :     0.000427
      dx2y2   :     0.000255
      dxy     :     0.000459
 49 C s       :     0.000778  s :     0.000778
      pz      :     0.019497  p :     0.020652
      px      :     0.000599
      py      :     0.000556
      dz2     :    -0.000081  d :    -0.001059
      dxz     :    -0.000517
      dyz     :    -0.000238
      dx2y2   :    -0.000125
      dxy     :    -0.000098
 50 C s       :    -0.000458  s :    -0.000458
      pz      :    -0.008830  p :    -0.009762
      px      :    -0.000514
      py      :    -0.000418
      dz2     :     0.000044  d :     0.002015
      dxz     :     0.001255
      dyz     :     0.000550
      dx2y2   :     0.000084
      dxy     :     0.000081
 51 C s       :     0.000745  s :     0.000745
      pz      :     0.021411  p :     0.022465
      px      :     0.000486
      py      :     0.000568
      dz2     :    -0.000094  d :    -0.000781
      dxz     :    -0.000093
      dyz     :    -0.000450
      dx2y2   :    -0.000073
      dxy     :    -0.000072
 52 C s       :    -0.000458  s :    -0.000458
      pz      :    -0.008821  p :    -0.009754
      px      :    -0.000544
      py      :    -0.000388
      dz2     :     0.000044  d :     0.002017
      dxz     :     0.001429
      dyz     :     0.000378
      dx2y2   :     0.000080
      dxy     :     0.000087
 53 C s       :     0.000774  s :     0.000774
      pz      :     0.019537  p :     0.020700
      px      :     0.000567
      py      :     0.000596
      dz2     :    -0.000081  d :    -0.001059
      dxz     :    -0.000449
      dyz     :    -0.000305
      dx2y2   :    -0.000109
      dxy     :    -0.000115
 54 H s       :    -0.000677  s :    -0.000677
      pz      :     0.000660  p :     0.000765
      px      :     0.000093
      py      :     0.000012
 55 H s       :     0.000280  s :     0.000280
      pz      :    -0.000255  p :    -0.000313
      px      :    -0.000023
      py      :    -0.000035
 56 H s       :    -0.000609  s :    -0.000609
      pz      :     0.000531  p :     0.000633
      px      :     0.000025
      py      :     0.000077
 57 H s       :    -0.000615  s :    -0.000615
      pz      :     0.000533  p :     0.000635
      px      :     0.000034
      py      :     0.000068
 58 H s       :     0.000279  s :     0.000279
      pz      :    -0.000256  p :    -0.000313
      px      :    -0.000025
      py      :    -0.000033


                      *****************************
                      * MAYER POPULATION ANALYSIS *
                      *****************************

  NA   - Mulliken gross atomic population
  ZA   - Total nuclear charge
  QA   - Mulliken gross atomic charge
  VA   - Mayer's total valence
  BVA  - Mayer's bonded valence
  FA   - Mayer's free valence

  ATOM       NA         ZA         QA         VA         BVA        FA
  0 C      5.8607     6.0000     0.1393     2.6347     2.6288     0.0060
  1 C      5.7188     6.0000     0.2812     2.4848     2.4826     0.0022
  2 C      5.7320     6.0000     0.2680     2.5387     2.5382     0.0006
  3 C      6.1781     6.0000    -0.1781     3.7478     3.7137     0.0341
  4 C      5.9321     6.0000     0.0679     4.1489     4.1338     0.0151
  5 C      6.0246     6.0000    -0.0246     3.8697     3.8352     0.0345
  6 C      6.1446     6.0000    -0.1446     3.8200     3.8130     0.0070
  7 C      6.0902     6.0000    -0.0902     4.1589     4.1223     0.0367
  8 C      5.9863     6.0000     0.0137     3.9031     3.8952     0.0080
  9 H      1.0519     1.0000    -0.0519     1.0036     1.0035     0.0001
 10 H      1.0530     1.0000    -0.0530     1.0038     1.0038     0.0000
 11 C      6.1019     6.0000    -0.1019     3.9313     3.5660     0.3653
 12 H      1.0231     1.0000    -0.0231     1.0087     1.0075     0.0013
 13 C      5.9657     6.0000     0.0343     4.0092     4.0078     0.0014
 14 H      0.9711     1.0000     0.0289     0.9631     0.9620     0.0011
 15 H      0.9710     1.0000     0.0290     0.9631     0.9620     0.0011
 16 C      6.0410     6.0000    -0.0410     4.1325     4.1325     0.0000
 17 H      0.9879     1.0000     0.0121     0.9644     0.9644     0.0000
 18 H      0.9877     1.0000     0.0123     0.9644     0.9644     0.0000
 19 C      5.9942     6.0000     0.0058     4.0144     4.0144     0.0000
 20 H      0.9828     1.0000     0.0172     0.9777     0.9777     0.0000
 21 H      0.9828     1.0000     0.0172     0.9776     0.9776     0.0000
 22 C      5.9629     6.0000     0.0371     4.0307     4.0305     0.0002
 23 H      0.9665     1.0000     0.0335     0.9693     0.9692     0.0001
 24 H      0.9666     1.0000     0.0334     0.9693     0.9692     0.0001
 25 C      6.0362     6.0000    -0.0362     4.1123     4.1123     0.0000
 26 H      0.9831     1.0000     0.0169     0.9636     0.9636     0.0000
 27 H      0.9831     1.0000     0.0169     0.9636     0.9636     0.0000
 28 C      6.0241     6.0000    -0.0241     4.1143     4.1143     0.0000
 29 H      0.9945     1.0000     0.0055     0.9679     0.9679     0.0000
 30 H      0.9946     1.0000     0.0054     0.9678     0.9678     0.0000
 31 C      5.9966     6.0000     0.0034     4.0163     4.0163     0.0000
 32 H      0.9830     1.0000     0.0170     0.9776     0.9776     0.0000
 33 H      0.9830     1.0000     0.0170     0.9777     0.9777     0.0000
 34 C      5.8691     6.0000     0.1309     2.6640     2.6627     0.0013
 35 H      0.9851     1.0000     0.0149     0.9741     0.9741     0.0000
 36 H      0.9878     1.0000     0.0122     0.9743     0.9743     0.0000
 37 C      6.2578     6.0000    -0.2578     3.9242     3.9242     0.0001
 38 C      5.9678     6.0000     0.0322     3.9959     3.9958     0.0001
 39 C      5.9585     6.0000     0.0415     4.0023     4.0023     0.0000
 40 C      5.9742     6.0000     0.0258     3.9985     3.9984     0.0001
 41 C      5.9564     6.0000     0.0436     4.0006     4.0006     0.0000
 42 C      5.9725     6.0000     0.0275     3.9961     3.9960     0.0001
 43 H      1.0228     1.0000    -0.0228     0.9691     0.9691     0.0000
 44 H      1.0282     1.0000    -0.0282     0.9688     0.9688     0.0000
 45 H      1.0404     1.0000    -0.0404     0.9842     0.9842     0.0000
 46 H      1.0394     1.0000    -0.0394     0.9836     0.9836     0.0000
 47 H      1.0284     1.0000    -0.0284     0.9689     0.9689     0.0000
 48 C      6.2611     6.0000    -0.2611     3.9255     3.9253     0.0003
 49 C      5.9775     6.0000     0.0225     3.9979     3.9974     0.0005
 50 C      5.9549     6.0000     0.0451     3.9989     3.9988     0.0001
 51 C      5.9745     6.0000     0.0255     3.9975     3.9969     0.0006
 52 C      5.9596     6.0000     0.0404     4.0033     4.0032     0.0001
 53 C      5.9665     6.0000     0.0335     3.9932     3.9927     0.0005
 54 H      1.0236     1.0000    -0.0236     0.9690     0.9690     0.0000
 55 H      1.0293     1.0000    -0.0293     0.9690     0.9690     0.0000
 56 H      1.0387     1.0000    -0.0387     0.9818     0.9818     0.0000
 57 H      1.0413     1.0000    -0.0413     0.9844     0.9844     0.0000
 58 H      1.0286     1.0000    -0.0286     0.9687     0.9687     0.0000

  Mayer bond orders larger than 0.100000
B(  0-C ,  1-C ) :   1.7231 B(  0-C , 48-C ) :   0.9383 B(  1-C ,  3-C ) :   0.8792 
B(  1-C , 48-C ) :  -0.1842 B(  2-C ,  6-C ) :   0.8796 B(  2-C , 34-C ) :   1.7635 
B(  2-C , 37-C ) :  -0.1778 B(  3-C ,  4-C ) :   1.2801 B(  3-C ,  8-C ) :   1.3928 
B(  4-C ,  5-C ) :   1.2940 B(  4-C , 11-C ) :   1.3813 B(  5-C ,  6-C ) :   1.4426 
B(  5-C ,  9-H ) :   0.9200 B(  6-C ,  7-C ) :   1.3455 B(  7-C ,  8-C ) :   1.4307 
B(  7-C , 22-C ) :   1.0970 B(  8-C , 10-H ) :   0.9217 B( 11-C , 12-H ) :   0.8995 
B( 11-C , 13-C ) :   1.0830 B( 13-C , 14-H ) :   0.9120 B( 13-C , 15-H ) :   0.9120 
B( 13-C , 16-C ) :   1.0717 B( 16-C , 17-H ) :   0.9441 B( 16-C , 18-H ) :   0.9440 
B( 16-C , 19-C ) :   1.1060 B( 19-C , 20-H ) :   0.9653 B( 19-C , 21-H ) :   0.9653 
B( 19-C , 35-H ) :   0.9611 B( 22-C , 23-H ) :   0.8961 B( 22-C , 24-H ) :   0.8961 
B( 22-C , 25-C ) :   1.1027 B( 25-C , 26-H ) :   0.9295 B( 25-C , 27-H ) :   0.9295 
B( 25-C , 28-C ) :   1.0740 B( 28-C , 29-H ) :   0.9415 B( 28-C , 30-H ) :   0.9415 
B( 28-C , 31-C ) :   1.1043 B( 31-C , 32-H ) :   0.9664 B( 31-C , 33-H ) :   0.9664 
B( 31-C , 36-H ) :   0.9625 B( 34-C , 37-C ) :   0.9359 B( 37-C , 38-C ) :   1.4403 
B( 37-C , 42-C ) :   1.4374 B( 38-C , 39-C ) :   1.4728 B( 38-C , 45-H ) :   0.9403 
B( 39-C , 40-C ) :   1.4449 B( 39-C , 47-H ) :   0.9377 B( 40-C , 41-C ) :   1.4431 
B( 40-C , 43-H ) :   0.9442 B( 41-C , 42-C ) :   1.4729 B( 41-C , 44-H ) :   0.9377 
B( 42-C , 46-H ) :   0.9406 B( 48-C , 49-C ) :   1.4366 B( 48-C , 53-C ) :   1.4357 
B( 49-C , 50-C ) :   1.4735 B( 49-C , 56-H ) :   0.9410 B( 50-C , 51-C ) :   1.4410 
B( 50-C , 58-H ) :   0.9378 B( 51-C , 52-C ) :   1.4439 B( 51-C , 54-H ) :   0.9440 
B( 52-C , 53-C ) :   1.4747 B( 52-C , 55-H ) :   0.9378 B( 53-C , 57-H ) :   0.9403 


-------
TIMINGS
-------

Total SCF time: 0 days 0 hours 1 min 9 sec 

Total time                  ....      69.234 sec
Sum of individual times     ....      67.434 sec  ( 97.4%)

Fock matrix formation       ....      61.224 sec  ( 88.4%)
  XC integration            ....       2.460 sec  (  4.0% of F)
    Basis function eval.    ....       0.466 sec  ( 19.0% of XC)
    Density eval.           ....       0.428 sec  ( 17.4% of XC)
    XC-Functional eval.     ....       0.073 sec  (  3.0% of XC)
    XC-Potential eval.      ....       0.489 sec  ( 19.9% of XC)
Diagonalization             ....       1.775 sec  (  2.6%)
Density matrix formation    ....       0.099 sec  (  0.1%)
Population analysis         ....       0.348 sec  (  0.5%)
Initial guess               ....       0.321 sec  (  0.5%)
Orbital Transformation      ....       0.000 sec  (  0.0%)
Orbital Orthonormalization  ....       0.229 sec  (  0.3%)
DIIS solution               ....       0.926 sec  (  1.3%)
Grid generation             ....       2.741 sec  (  4.0%)

-------------------------   --------------------
FINAL SINGLE POINT ENERGY     -1159.835440099764
-------------------------   --------------------

                                *** OPTIMIZATION RUN DONE ***

                            ***************************************
                            *     ORCA property calculations      *
                            ***************************************

                                    ---------------------
                                    Active property flags
                                    ---------------------
   (+) Dipole Moment


------------------------------------------------------------------------------
                       ORCA ELECTRIC PROPERTIES CALCULATION
------------------------------------------------------------------------------

Dipole Moment Calculation                       ... on
Quadrupole Moment Calculation                   ... off
Polarizability Calculation                      ... off
GBWName                                         ... opt.gbw
Electron density file                           ... opt.scfp
The origin for moment calculation is the CENTER OF MASS  = (-0.025826, -0.090715 -0.000961)

-------------
DIPOLE MOMENT
-------------
                                X             Y             Z
Electronic contribution:     -0.52397       2.19608      -0.00016
Nuclear contribution   :      0.65582      -2.17487      -0.00019
                        -----------------------------------------
Total Dipole Moment    :      0.13185       0.02121      -0.00035
                        -----------------------------------------
Magnitude (a.u.)       :      0.13355
Magnitude (Debye)      :      0.33945



--------------------
Rotational spectrum 
--------------------
 
Rotational constants in cm-1:     0.005983     0.001991     0.001497 
Rotational constants in MHz :   179.375312    59.697017    44.878219 

 Dipole components along the rotational axes: 
x,y,z [a.u.] :     0.130286     0.029336    -0.000343 
x,y,z [Debye]:     0.331160     0.074566    -0.000872 

 

Timings for individual modules:

Sum of individual times         ...      922.215 sec (=  15.370 min)
GTO integral calculation        ...       14.190 sec (=   0.237 min)   1.5 %
SCF iterations                  ...      705.177 sec (=  11.753 min)  76.5 %
SCF Gradient evaluation         ...      196.332 sec (=   3.272 min)  21.3 %
Geometry relaxation             ...        6.515 sec (=   0.109 min)   0.7 %
                             ****ORCA TERMINATED NORMALLY****
TOTAL RUN TIME: 0 days 0 hours 15 minutes 28 seconds 561 msec
