
                                 *****************
                                 * O   R   C   A *
                                 *****************

                                            #,                                       
                                            ###                                      
                                            ####                                     
                                            #####                                    
                                            ######                                   
                                           ########,                                 
                                     ,,################,,,,,                         
                               ,,#################################,,                 
                          ,,##########################################,,             
                       ,#########################################, ''#####,          
                    ,#############################################,,   '####,        
                  ,##################################################,,,,####,       
                ,###########''''           ''''###############################       
              ,#####''   ,,,,##########,,,,          '''####'''          '####       
            ,##' ,,,,###########################,,,                        '##       
           ' ,,###''''                  '''############,,,                           
         ,,##''                                '''############,,,,        ,,,,,,###''
      ,#''                                            '''#######################'''  
     '                                                          ''''####''''         
             ,#######,   #######,   ,#######,      ##                                
            ,#'     '#,  ##    ##  ,#'     '#,    #''#        ######   ,####,        
            ##       ##  ##   ,#'  ##            #'  '#       #        #'  '#        
            ##       ##  #######   ##           ,######,      #####,   #    #        
            '#,     ,#'  ##    ##  '#,     ,#' ,#      #,         ##   #,  ,#        
             '#######'   ##     ##  '#######'  #'      '#     #####' # '####'        



                  #######################################################
                  #                        -***-                        #
                  #          Department of theory and spectroscopy      #
                  #    Directorship and core code : Frank Neese         #
                  #        Max Planck Institute fuer Kohlenforschung    #
                  #                Kaiser Wilhelm Platz 1               #
                  #                 D-45470 Muelheim/Ruhr               #
                  #                      Germany                        #
                  #                                                     #
                  #                  All rights reserved                #
                  #                        -***-                        #
                  #######################################################


                         Program Version 5.0.4 -  RELEASE  -


 With contributions from (in alphabetic order):
   Daniel Aravena         : Magnetic Suceptibility
   Michael Atanasov       : Ab Initio Ligand Field Theory (pilot matlab implementation)
   Alexander A. Auer      : GIAO ZORA, VPT2 properties, NMR spectrum
   Ute Becker             : Parallelization
   Giovanni Bistoni       : ED, misc. LED, open-shell LED, HFLD
   Martin Brehm           : Molecular dynamics
   Dmytro Bykov           : SCF Hessian
   Vijay G. Chilkuri      : MRCI spin determinant printing, contributions to CSF-ICE
   Dipayan Datta          : RHF DLPNO-CCSD density
   Achintya Kumar Dutta   : EOM-CC, STEOM-CC
   Dmitry Ganyushin       : Spin-Orbit,Spin-Spin,Magnetic field MRCI
   Miquel Garcia          : C-PCM and meta-GGA Hessian, CC/C-PCM, Gaussian charge scheme
   Yang Guo               : DLPNO-NEVPT2, F12-NEVPT2, CIM, IAO-localization
   Andreas Hansen         : Spin unrestricted coupled pair/coupled cluster methods
   Benjamin Helmich-Paris : MC-RPA, TRAH-SCF, COSX integrals
   Lee Huntington         : MR-EOM, pCC
   Robert Izsak           : Overlap fitted RIJCOSX, COSX-SCS-MP3, EOM
   Marcus Kettner         : VPT2
   Christian Kollmar      : KDIIS, OOCD, Brueckner-CCSD(T), CCSD density, CASPT2, CASPT2-K
   Simone Kossmann        : Meta GGA functionals, TD-DFT gradient, OOMP2, MP2 Hessian
   Martin Krupicka        : Initial AUTO-CI
   Lucas Lang             : DCDCAS
   Marvin Lechner         : AUTO-CI (C++ implementation), FIC-MRCC
   Dagmar Lenk            : GEPOL surface, SMD
   Dimitrios Liakos       : Extrapolation schemes; Compound Job, initial MDCI parallelization
   Dimitrios Manganas     : Further ROCIS development; embedding schemes
   Dimitrios Pantazis     : SARC Basis sets
   Anastasios Papadopoulos: AUTO-CI, single reference methods and gradients
   Taras Petrenko         : DFT Hessian,TD-DFT gradient, ASA, ECA, R-Raman, ABS, FL, XAS/XES, NRVS
   Peter Pinski           : DLPNO-MP2, DLPNO-MP2 Gradient
   Christoph Reimann      : Effective Core Potentials
   Marius Retegan         : Local ZFS, SOC
   Christoph Riplinger    : Optimizer, TS searches, QM/MM, DLPNO-CCSD(T), (RO)-DLPNO pert. Triples
   Tobias Risthaus        : Range-separated hybrids, TD-DFT gradient, RPA, STAB
   Michael Roemelt        : Original ROCIS implementation
   Masaaki Saitow         : Open-shell DLPNO-CCSD energy and density
   Barbara Sandhoefer     : DKH picture change effects
   Avijit Sen             : IP-ROCIS
   Kantharuban Sivalingam : CASSCF convergence, NEVPT2, FIC-MRCI
   Bernardo de Souza      : ESD, SOC TD-DFT
   Georgi Stoychev        : AutoAux, RI-MP2 NMR, DLPNO-MP2 response
   Willem Van den Heuvel  : Paramagnetic NMR
   Boris Wezisla          : Elementary symmetry handling
   Frank Wennmohs         : Technical directorship


 We gratefully acknowledge several colleagues who have allowed us to
 interface, adapt or use parts of their codes:
   Stefan Grimme, W. Hujo, H. Kruse, P. Pracht,  : VdW corrections, initial TS optimization,
                  C. Bannwarth, S. Ehlert          DFT functionals, gCP, sTDA/sTD-DF
   Ed Valeev, F. Pavosevic, A. Kumar             : LibInt (2-el integral package), F12 methods
   Garnet Chan, S. Sharma, J. Yang, R. Olivares  : DMRG
   Ulf Ekstrom                                   : XCFun DFT Library
   Mihaly Kallay                                 : mrcc  (arbitrary order and MRCC methods)
   Jiri Pittner, Ondrej Demel                    : Mk-CCSD
   Frank Weinhold                                : gennbo (NPA and NBO analysis)
   Christopher J. Cramer and Donald G. Truhlar   : smd solvation model
   Lars Goerigk                                  : TD-DFT with DH, B97 family of functionals
   V. Asgeirsson, H. Jonsson                     : NEB implementation
   FAccTs GmbH                                   : IRC, NEB, NEB-TS, DLPNO-Multilevel, CI-OPT
                                                   MM, QMMM, 2- and 3-layer-ONIOM, Crystal-QMMM,
                                                   LR-CPCM, SF, NACMEs, symmetry and pop. for TD-DFT,
                                                   nearIR, NL-DFT gradient (VV10), updates on ESD,
                                                   ML-optimized integration grids
   S Lehtola, MJT Oliveira, MAL Marques          : LibXC Library
   Liviu Ungur et al                             : ANISO software


 Your calculation uses the libint2 library for the computation of 2-el integrals
 For citations please refer to: http://libint.valeyev.net

 Your ORCA version has been built with support for libXC version: 5.1.0
 For citations please refer to: https://tddft.org/programs/libxc/

 This ORCA versions uses:
   CBLAS   interface :  Fast vector & matrix operations
   LAPACKE interface :  Fast linear algebra routines
   SCALAPACK package :  Parallel linear algebra routines
   Shared memory     :  Shared parallel matrices
   BLAS/LAPACK       :  OpenBLAS 0.3.15  USE64BITINT DYNAMIC_ARCH NO_AFFINITY SkylakeX SINGLE_THREADED
        Core in use  :  SkylakeX
   Copyright (c) 2011-2014, The OpenBLAS Project




***************************************
The coordinates will be read from file: model.xyz
***************************************


================================================================================

----- Orbital basis set information -----
Your calculation utilizes the basis: cc-pVDZ 
       H, B-Ne : Obtained from the ccRepo (grant-hill.group.shef.ac.uk/ccrepo) Feb. 2017
                 T. H. Dunning, Jr., J. Chem. Phys. 90, 1007 (1989)
            He : Obtained from the ccRepo (grant-hill.group.shef.ac.uk/ccrepo) Feb. 2017
                 D. E. Woon, T. H. Dunning, Jr., J. Chem. Phys. 100, 2975 (1994)
  Li-Be, Na-Mg : Obtained from the ccRepo (grant-hill.group.shef.ac.uk/ccrepo) Feb. 2017
                 B. P. Prascher, D. E. Woon, K. A. Peterson, T. H. Dunning, Jr., A. K. Wilson, Theor. Chem. Acc. 128, 69 (2011)
         Al-Ar : Obtained from the ccRepo (grant-hill.group.shef.ac.uk/ccrepo) Feb. 2017
                 D. E. Woon, T. H. Dunning, Jr., J. Chem. Phys. 98, 1358 (1993)
            Ca : Obtained from the Peterson Research Group Website (tyr0.chem.wsu.edu/~kipeters) Feb. 2017
                 J. Koput, K. A. Peterson, J. Phys. Chem. 106, 9595 (2002)
         Sc-Zn : Obtained from the ccRepo (grant-hill.group.shef.ac.uk/ccrepo) Feb. 2017
                 N. B. Balabanov, K. A. Peterson, J. Chem. Phys. 123, 064107 (2005)
                 N. B. Balabanov, K. A. Peterson, J. Chem. Phys. 125, 074110 (2006)
         Ga-Kr : Obtained from the ccRepo (grant-hill.group.shef.ac.uk/ccrepo) Feb. 2017
                 A. K. Wilson, D. E. Woon, K. A. Peterson, T. H. Dunning, Jr., J. Chem. Phys. 110, 7667 (1999)

----- AuxJ basis set information -----
Your calculation utilizes the auxiliary basis: def2/J
   F. Weigend, Phys. Chem. Chem. Phys. 8, 1057 (2006).

================================================================================
                                        WARNINGS
                       Please study these warnings very carefully!
================================================================================


WARNING: your system is open-shell and RHF/RKS was chosen
  ===> : WILL SWITCH to UHF/UKS


WARNING: Geometry Optimization
  ===> : Switching off AutoStart
         For restart on a previous wavefunction, please use MOREAD

INFO   : the flag for use of the SHARK integral package has been found!

================================================================================
                                       INPUT FILE
================================================================================
NAME = opt.inp
|  1> ! B3LYP cc-pVDZ OPT
|  2> %pal nprocs 16 end
|  3> *XYZFile 0 2 model.xyz
|  4> 
|  5>                          ****END OF INPUT****
================================================================================

                       *****************************
                       * Geometry Optimization Run *
                       *****************************

Geometry optimization settings:
Update method            Update   .... BFGS
Choice of coordinates    CoordSys .... Z-matrix Internals
Initial Hessian          InHess   .... Almoef's Model

Convergence Tolerances:
Energy Change            TolE     ....  5.0000e-06 Eh
Max. Gradient            TolMAXG  ....  3.0000e-04 Eh/bohr
RMS Gradient             TolRMSG  ....  1.0000e-04 Eh/bohr
Max. Displacement        TolMAXD  ....  4.0000e-03 bohr
RMS Displacement         TolRMSD  ....  2.0000e-03 bohr
Strict Convergence                ....  False
------------------------------------------------------------------------------
                        ORCA OPTIMIZATION COORDINATE SETUP
------------------------------------------------------------------------------

The optimization will be done in new redundant internal coordinates
Making redundant internal coordinates   ...  (new redundants) done
Evaluating the initial hessian          ...  (Almloef) done
Evaluating the coordinates              ...  done
Calculating the B-matrix                .... done
Calculating the G-matrix                .... done
Diagonalizing the G-matrix              .... done
Small eigenvalue found = 6.263e-04
Small eigenvalue found = 7.674e-04
Small eigenvalue found = 1.806e-03
Small eigenvalue found = 3.615e-03
Small eigenvalue found = 7.579e-03
Small eigenvalue found = 1.235e-02
Small eigenvalue found = 1.765e-02
Small eigenvalue found = 1.890e-02
Small eigenvalue found = 2.053e-02
Small eigenvalue found = 2.580e-02
Small eigenvalue found = 2.732e-02
Small eigenvalue found = 2.983e-02
The first mode is                       ....  138
The number of degrees of freedom        ....  171

    -----------------------------------------------------------------
                    Redundant Internal Coordinates


    -----------------------------------------------------------------
         Definition                    Initial Value    Approx d2E/dq
    -----------------------------------------------------------------
      1. B(C   1,C   0)                  1.2242         1.148943   
      2. B(C   3,C   1)                  1.4203         0.558882   
      3. B(C   4,C   3)                  1.4460         0.508583   
      4. B(C   5,C   4)                  1.4232         0.553131   
      5. B(C   6,C   5)                  1.3972         0.608471   
      6. B(C   6,C   2)                  1.4284         0.542648   
      7. B(C   7,C   6)                  1.4328         0.533982   
      8. B(C   8,C   7)                  1.3946         0.614314   
      9. B(C   8,C   3)                  1.4090         0.582597   
     10. B(H   9,C   5)                  1.0901         0.359917   
     11. B(H  10,C   8)                  1.0898         0.360302   
     12. B(C  11,C   4)                  1.4113         0.577867   
     13. B(H  12,C  11)                  1.0935         0.355476   
     14. B(C  13,C  11)                  1.4994         0.418030   
     15. B(H  14,C  13)                  1.1099         0.334750   
     16. B(H  15,C  13)                  1.1099         0.334758   
     17. B(C  16,C  13)                  1.5339         0.368294   
     18. B(H  17,C  16)                  1.1057         0.339900   
     19. B(H  18,C  16)                  1.1057         0.339892   
     20. B(C  19,C  16)                  1.5295         0.374263   
     21. B(H  20,C  19)                  1.1039         0.342124   
     22. B(H  21,C  19)                  1.1039         0.342129   
     23. B(C  22,C   7)                  1.5147         0.395220   
     24. B(H  23,C  22)                  1.1066         0.338779   
     25. B(H  24,C  22)                  1.1066         0.338772   
     26. B(C  25,C  22)                  1.5307         0.372581   
     27. B(H  26,C  25)                  1.1060         0.339529   
     28. B(H  27,C  25)                  1.1060         0.339529   
     29. B(C  28,C  25)                  1.5331         0.369363   
     30. B(H  29,C  28)                  1.1063         0.339137   
     31. B(H  30,C  28)                  1.1063         0.339135   
     32. B(C  31,C  28)                  1.5303         0.373178   
     33. B(H  32,C  31)                  1.1040         0.342095   
     34. B(H  33,C  31)                  1.1040         0.342091   
     35. B(C  34,C   2)                  1.2222         1.157243   
     36. B(H  35,C  19)                  1.1018         0.344813   
     37. B(H  36,C  31)                  1.1020         0.344596   
     38. B(C  37,C  34)                  1.4282         0.543068   
     39. B(C  38,C  37)                  1.4120         0.576247   
     40. B(C  39,C  38)                  1.3944         0.614680   
     41. B(C  40,C  39)                  1.3995         0.603394   
     42. B(C  41,C  40)                  1.3995         0.603278   
     43. B(C  42,C  41)                  1.3944         0.614816   
     44. B(C  42,C  37)                  1.4121         0.576060   
     45. B(H  43,C  40)                  1.0928         0.356378   
     46. B(H  44,C  41)                  1.0927         0.356551   
     47. B(H  45,C  38)                  1.0916         0.357959   
     48. B(H  46,C  42)                  1.0917         0.357798   
     49. B(H  47,C  39)                  1.0928         0.356475   
     50. B(C  48,C   0)                  1.4263         0.546819   
     51. B(C  49,C  48)                  1.4129         0.574429   
     52. B(C  50,C  49)                  1.3942         0.615284   
     53. B(C  51,C  50)                  1.3997         0.603026   
     54. B(C  52,C  51)                  1.3997         0.602963   
     55. B(C  53,C  52)                  1.3941         0.615482   
     56. B(C  53,C  48)                  1.4129         0.574372   
     57. B(H  54,C  51)                  1.0928         0.356379   
     58. B(H  55,C  52)                  1.0928         0.356400   
     59. B(H  56,C  49)                  1.0917         0.357829   
     60. B(H  57,C  53)                  1.0916         0.358029   
     61. B(H  58,C  50)                  1.0927         0.356579   
     62. L(C   1,C   0,C  48,C  53, 2) 179.8828         0.474650   
     63. L(C   1,C   0,C  48,C  53, 1) 179.7793         0.474650   
     64. L(C   0,C   1,C   3,C   8, 2) 179.8412         0.476559   
     65. L(C   0,C   1,C   3,C   8, 1) 178.8833         0.476559   
     66. L(C   6,C   2,C  34,C   5, 2) 179.8984         0.474610   
     67. L(C   6,C   2,C  34,C   5, 1) 179.7399         0.474610   
     68. A(C   1,C   3,C   8)          118.9654         0.421341   
     69. A(C   1,C   3,C   4)          121.2838         0.411277   
     70. A(C   4,C   3,C   8)          119.7507         0.414322   
     71. A(C   3,C   4,C  11)          121.7120         0.413723   
     72. A(C   5,C   4,C  11)          121.7157         0.419953   
     73. A(C   3,C   4,C   5)          116.5724         0.410523   
     74. A(C   6,C   5,H   9)          118.0770         0.351760   
     75. A(C   4,C   5,C   6)          122.7881         0.423841   
     76. A(C   4,C   5,H   9)          119.1349         0.346150   
     77. A(C   2,C   6,C   7)          120.5055         0.412684   
     78. A(C   2,C   6,C   5)          119.2978         0.422394   
     79. A(C   5,C   6,C   7)          120.1968         0.421182   
     80. A(C   8,C   7,C  22)          122.8691         0.399982   
     81. A(C   6,C   7,C   8)          117.6241         0.421901   
     82. A(C   6,C   7,C  22)          119.5069         0.390273   
     83. A(C   3,C   8,H  10)          117.3196         0.349251   
     84. A(C   3,C   8,C   7)          123.0680         0.428532   
     85. A(C   7,C   8,H  10)          119.6124         0.352393   
     86. A(H  12,C  11,C  13)          117.8263         0.329679   
     87. A(C   4,C  11,C  13)          124.9983         0.399627   
     88. A(C   4,C  11,H  12)          117.1754         0.347980   
     89. A(H  15,C  13,C  16)          109.1602         0.319719   
     90. A(C  11,C  13,C  16)          113.4710         0.369518   
     91. A(H  14,C  13,C  16)          109.1581         0.319718   
     92. A(H  14,C  13,H  15)          104.6370         0.284280   
     93. A(C  11,C  13,H  15)          110.0199         0.326430   
     94. A(C  11,C  13,H  14)          110.0159         0.326429   
     95. A(H  17,C  16,H  18)          106.0552         0.285632   
     96. A(C  13,C  16,H  18)          108.9738         0.320516   
     97. A(C  13,C  16,H  17)          108.9711         0.320517   
     98. A(C  13,C  16,C  19)          113.1537         0.362583   
     99. A(H  18,C  16,C  19)          109.7181         0.321360   
    100. A(H  17,C  16,C  19)          109.7183         0.321361   
    101. A(H  20,C  19,H  35)          107.6236         0.286564   
    102. A(C  16,C  19,H  35)          111.4358         0.322117   
    103. A(H  20,C  19,H  21)          107.3426         0.286215   
    104. A(C  16,C  19,H  21)          111.3044         0.321705   
    105. A(C  16,C  19,H  20)          111.3043         0.321704   
    106. A(H  21,C  19,H  35)          107.6256         0.286565   
    107. A(H  24,C  22,C  25)          109.1967         0.320949   
    108. A(H  23,C  22,C  25)          109.1893         0.320951   
    109. A(C   7,C  22,C  25)          116.9509         0.366704   
    110. A(C   7,C  22,H  24)          108.1881         0.324067   
    111. A(C   7,C  22,H  23)          108.1827         0.324068   
    112. A(H  23,C  22,H  24)          104.4012         0.285338   
    113. A(H  27,C  25,C  28)          109.0337         0.320611   
    114. A(H  26,C  25,C  28)          109.0388         0.320611   
    115. A(C  22,C  25,C  28)          112.6337         0.362483   
    116. A(H  26,C  25,H  27)          106.2319         0.285536   
    117. A(C  22,C  25,H  27)          109.8447         0.321067   
    118. A(C  22,C  25,H  26)          109.8498         0.321067   
    119. A(H  30,C  28,C  31)          109.5462         0.321090   
    120. A(H  29,C  28,C  31)          109.5453         0.321090   
    121. A(C  25,C  28,C  31)          113.1701         0.362582   
    122. A(H  29,C  28,H  30)          105.8873         0.285433   
    123. A(C  25,C  28,H  30)          109.2167         0.320551   
    124. A(C  25,C  28,H  29)          109.2155         0.320551   
    125. A(H  32,C  31,H  33)          107.3568         0.286206   
    126. A(C  28,C  31,H  33)          111.3001         0.321546   
    127. A(C  28,C  31,H  32)          111.2997         0.321547   
    128. A(H  33,C  31,H  36)          107.5850         0.286532   
    129. A(H  32,C  31,H  36)          107.5859         0.286532   
    130. A(C  28,C  31,H  36)          111.5048         0.321931   
    131. L(C   2,C  34,C  37,C  38, 2) 180.1154         0.474677   
    132. L(C   2,C  34,C  37,C  38, 1) 179.8990         0.474677   
    133. A(C  38,C  37,C  42)          118.7535         0.422797   
    134. A(C  34,C  37,C  42)          120.6225         0.418347   
    135. A(C  34,C  37,C  38)          120.6241         0.418371   
    136. A(C  39,C  38,H  45)          120.4784         0.352039   
    137. A(C  37,C  38,H  45)          119.1138         0.348223   
    138. A(C  37,C  38,C  39)          120.4078         0.427736   
    139. A(C  40,C  39,H  47)          120.0261         0.350692   
    140. A(C  38,C  39,H  47)          119.6075         0.351792   
    141. A(C  38,C  39,C  40)          120.3664         0.431284   
    142. A(C  41,C  40,H  43)          120.1623         0.350665   
    143. A(C  39,C  40,H  43)          120.1389         0.350676   
    144. A(C  39,C  40,C  41)          119.6988         0.429836   
    145. A(C  42,C  41,H  44)          119.6059         0.351818   
    146. A(C  40,C  41,H  44)          120.0518         0.350693   
    147. A(C  40,C  41,C  42)          120.3424         0.431286   
    148. A(C  41,C  42,H  46)          120.4518         0.352026   
    149. A(C  37,C  42,H  46)          119.1170         0.348178   
    150. A(C  37,C  42,C  41)          120.4312         0.427728   
    151. A(C  49,C  48,C  53)          118.6725         0.422337   
    152. A(C   0,C  48,C  53)          120.5806         0.418641   
    153. A(C   0,C  48,C  49)          120.7470         0.418649   
    154. A(C  50,C  49,H  56)          120.4067         0.352076   
    155. A(C  48,C  49,H  56)          119.1277         0.348017   
    156. A(C  48,C  49,C  50)          120.4656         0.427569   
    157. A(C  51,C  50,H  58)          120.0577         0.350673   
    158. A(C  49,C  50,H  58)          119.5795         0.351868   
    159. A(C  49,C  50,C  51)          120.3627         0.431313   
    160. A(C  52,C  51,H  54)          120.1390         0.350634   
    161. A(C  50,C  51,H  54)          120.1931         0.350640   
    162. A(C  50,C  51,C  52)          119.6678         0.429749   
    163. A(C  53,C  52,H  55)          119.5961         0.351857   
    164. A(C  51,C  52,H  55)          120.0054         0.350638   
    165. A(C  51,C  52,C  53)          120.3985         0.431330   
    166. A(C  52,C  53,H  57)          120.4731         0.352129   
    167. A(C  48,C  53,H  57)          119.0941         0.348044   
    168. A(C  48,C  53,C  52)          120.4328         0.427586   
    169. D(C  11,C   4,C   3,C   8)   -179.9741         0.017626   
    170. D(C   5,C   4,C   3,C   1)   -179.9809         0.017626   
    171. D(C   5,C   4,C   3,C   8)      0.0137         0.017626   
    172. D(C  11,C   4,C   3,C   1)      0.0313         0.017626   
    173. D(C   6,C   5,C   4,C   3)     -0.0090         0.020938   
    174. D(H   9,C   5,C   4,C   3)    179.9971         0.020938   
    175. D(C   6,C   5,C   4,C  11)    179.9788         0.020938   
    176. D(H   9,C   5,C   4,C  11)     -0.0151         0.020938   
    177. D(C   7,C   6,C   5,C   4)      0.0049         0.025563   
    178. D(C   7,C   6,C   5,H   9)    179.9990         0.025563   
    179. D(C   2,C   6,C   5,C   4)   -179.9966         0.025563   
    180. D(C   2,C   6,C   5,H   9)     -0.0026         0.025563   
    181. D(C  22,C   7,C   6,C   2)     -0.0168         0.019470   
    182. D(C   8,C   7,C   6,C   2)    179.9963         0.019470   
    183. D(C  22,C   7,C   6,C   5)    179.9816         0.019470   
    184. D(C   8,C   7,C   6,C   5)     -0.0053         0.019470   
    185. D(H  10,C   8,C   7,C   6)    179.9964         0.026085   
    186. D(H  10,C   8,C   7,C  22)      0.0100         0.026085   
    187. D(C   3,C   8,C   7,C  22)   -179.9758         0.026085   
    188. D(H  10,C   8,C   3,C   4)    179.9987         0.023329   
    189. D(C   7,C   8,C   3,C   4)     -0.0152         0.023329   
    190. D(C   7,C   8,C   3,C   1)    179.9795         0.023329   
    191. D(C   3,C   8,C   7,C   6)      0.0107         0.026085   
    192. D(H  10,C   8,C   3,C   1)     -0.0066         0.023329   
    193. D(C  13,C  11,C   4,C   5)     -0.0030         0.022934   
    194. D(H  12,C  11,C   4,C   5)   -179.9774         0.022934   
    195. D(C  13,C  11,C   4,C   3)    179.9841         0.022934   
    196. D(H  12,C  11,C   4,C   3)      0.0098         0.022934   
    197. D(H  15,C  13,C  11,C   4)     57.3313         0.012925   
    198. D(H  14,C  13,C  11,C   4)    -57.4380         0.012925   
    199. D(H  14,C  13,C  11,H  12)    122.5362         0.012925   
    200. D(C  16,C  13,C  11,C   4)    179.9495         0.012925   
    201. D(H  15,C  13,C  11,H  12)   -122.6945         0.012925   
    202. D(C  16,C  13,C  11,H  12)     -0.0763         0.012925   
    203. D(C  19,C  16,C  13,C  11)    179.9893         0.010849   
    204. D(C  19,C  16,C  13,H  14)     56.9041         0.010849   
    205. D(H  18,C  16,C  13,H  15)   -179.2670         0.010849   
    206. D(H  18,C  16,C  13,H  14)    -65.4441         0.010849   
    207. D(H  18,C  16,C  13,C  11)     57.6411         0.010849   
    208. D(H  17,C  16,C  13,H  15)     65.4277         0.010849   
    209. D(H  17,C  16,C  13,H  14)    179.2506         0.010849   
    210. D(C  19,C  16,C  13,H  15)    -56.9188         0.010849   
    211. D(H  17,C  16,C  13,C  11)    -57.6642         0.010849   
    212. D(H  35,C  19,C  16,H  18)    -58.0686         0.011182   
    213. D(H  35,C  19,C  16,H  17)     58.0703         0.011182   
    214. D(H  35,C  19,C  16,C  13)    179.9992         0.011182   
    215. D(H  21,C  19,C  16,H  18)     62.0815         0.011182   
    216. D(H  21,C  19,C  16,H  17)    178.2204         0.011182   
    217. D(H  21,C  19,C  16,C  13)    -59.8507         0.011182   
    218. D(H  20,C  19,C  16,H  18)   -178.2162         0.011182   
    219. D(H  20,C  19,C  16,H  17)    -62.0773         0.011182   
    220. D(H  20,C  19,C  16,C  13)     59.8516         0.011182   
    221. D(C  25,C  22,C   7,C   8)      0.0316         0.011605   
    222. D(C  25,C  22,C   7,C   6)   -179.9546         0.011605   
    223. D(H  24,C  22,C   7,C   8)   -123.7015         0.011605   
    224. D(H  24,C  22,C   7,C   6)     56.3123         0.011605   
    225. D(H  23,C  22,C   7,C   8)    123.7502         0.011605   
    226. D(H  23,C  22,C   7,C   6)    -56.2360         0.011605   
    227. D(H  27,C  25,C  22,H  23)    -64.9663         0.011088   
    228. D(H  27,C  25,C  22,C   7)     58.2372         0.011088   
    229. D(H  26,C  25,C  22,H  24)     64.9520         0.011088   
    230. D(H  26,C  25,C  22,H  23)    178.5315         0.011088   
    231. D(H  26,C  25,C  22,C   7)    -58.2650         0.011088   
    232. D(C  28,C  25,C  22,H  24)    -56.8020         0.011088   
    233. D(C  28,C  25,C  22,H  23)     56.7775         0.011088   
    234. D(C  28,C  25,C  22,C   7)    179.9810         0.011088   
    235. D(H  27,C  25,C  22,H  24)   -178.5458         0.011088   
    236. D(C  31,C  28,C  25,H  27)    -57.7753         0.010908   
    237. D(C  31,C  28,C  25,C  22)   -179.9776         0.010908   
    238. D(H  30,C  28,C  25,H  27)    179.9097         0.010908   
    239. D(H  30,C  28,C  25,H  26)    -64.5052         0.010908   
    240. D(H  30,C  28,C  25,C  22)     57.7073         0.010908   
    241. D(H  29,C  28,C  25,H  27)     64.5378         0.010908   
    242. D(C  31,C  28,C  25,H  26)     57.8098         0.010908   
    243. D(H  29,C  28,C  25,H  26)   -179.8771         0.010908   
    244. D(H  29,C  28,C  25,C  22)    -57.6646         0.010908   
    245. D(H  36,C  31,C  28,H  30)    -57.8630         0.011121   
    246. D(H  36,C  31,C  28,H  29)     57.8769         0.011121   
    247. D(H  36,C  31,C  28,C  25)   -179.9941         0.011121   
    248. D(H  33,C  31,C  28,H  30)     62.2794         0.011121   
    249. D(H  33,C  31,C  28,H  29)    178.0193         0.011121   
    250. D(H  33,C  31,C  28,C  25)    -59.8517         0.011121   
    251. D(H  32,C  31,C  28,H  30)   -178.0062         0.011121   
    252. D(H  32,C  31,C  28,H  29)    -62.2664         0.011121   
    253. D(H  32,C  31,C  28,C  25)     59.8626         0.011121   
    254. D(C  42,C  37,C   6,C   7)     -0.4352         0.001500   
    255. D(C  42,C  37,C   6,C   5)    179.5513         0.001500   
    256. D(C  38,C  37,C   6,C   7)    179.5395         0.001500   
    257. D(C  38,C  37,C   6,C   5)     -0.4740         0.001500   
    258. D(H  45,C  38,C  37,C  42)    179.9897         0.022800   
    259. D(H  45,C  38,C  37,C  34)     -0.0069         0.022800   
    260. D(C  39,C  38,C  37,C  42)      0.0037         0.022800   
    261. D(C  39,C  38,C  37,C  34)   -179.9929         0.022800   
    262. D(H  47,C  39,C  38,H  45)      0.0031         0.026118   
    263. D(H  47,C  39,C  38,C  37)    179.9889         0.026118   
    264. D(C  40,C  39,C  38,H  45)   -179.9880         0.026118   
    265. D(C  40,C  39,C  38,C  37)     -0.0021         0.026118   
    266. D(H  43,C  40,C  39,H  47)      0.0103         0.025114   
    267. D(H  43,C  40,C  39,C  38)   -179.9987         0.025114   
    268. D(C  41,C  40,C  39,H  47)   -179.9913         0.025114   
    269. D(C  41,C  40,C  39,C  38)     -0.0003         0.025114   
    270. D(H  44,C  41,C  40,H  43)      0.0074         0.025104   
    271. D(H  44,C  41,C  40,C  39)   -179.9910         0.025104   
    272. D(C  42,C  41,C  40,H  43)    179.9995         0.025104   
    273. D(C  42,C  41,C  40,C  39)      0.0011         0.025104   
    274. D(H  46,C  42,C  41,H  44)      0.0042         0.026130   
    275. D(H  46,C  42,C  41,C  40)   -179.9880         0.026130   
    276. D(C  37,C  42,C  41,H  44)    179.9926         0.026130   
    277. D(C  37,C  42,C  41,C  40)      0.0005         0.026130   
    278. D(H  46,C  42,C  37,C  38)    179.9858         0.022785   
    279. D(H  46,C  42,C  37,C  34)     -0.0177         0.022785   
    280. D(C  41,C  42,C  37,C  38)     -0.0028         0.022785   
    281. D(C  41,C  42,C  37,C  34)    179.9937         0.022785   
    282. D(C  53,C  48,C   3,C   8)      0.6582         0.001500   
    283. D(C  53,C  48,C   3,C   4)   -179.3853         0.001500   
    284. D(C  49,C  48,C   3,C   8)   -179.3500         0.001500   
    285. D(C  49,C  48,C   3,C   4)      0.6065         0.001500   
    286. D(H  56,C  49,C  48,C  53)   -179.9788         0.022650   
    287. D(H  56,C  49,C  48,C   0)      0.0239         0.022650   
    288. D(C  50,C  49,C  48,C  53)      0.0026         0.022650   
    289. D(C  50,C  49,C  48,C   0)   -179.9947         0.022650   
    290. D(H  58,C  50,C  49,H  56)     -0.0096         0.026172   
    291. D(H  58,C  50,C  49,C  48)   -179.9908         0.026172   
    292. D(C  51,C  50,C  49,H  56)    179.9820         0.026172   
    293. D(C  51,C  50,C  49,C  48)      0.0008         0.026172   
    294. D(C  52,C  51,C  50,H  58)    179.9892         0.025082   
    295. D(C  52,C  51,C  50,C  49)     -0.0024         0.025082   
    296. D(H  54,C  51,C  50,H  58)     -0.0054         0.025082   
    297. D(H  54,C  51,C  50,C  49)   -179.9970         0.025082   
    298. D(H  55,C  52,C  51,H  54)     -0.0160         0.025077   
    299. D(H  55,C  52,C  51,C  50)    179.9894         0.025077   
    300. D(C  53,C  52,C  51,H  54)    179.9951         0.025077   
    301. D(C  53,C  52,C  51,C  50)      0.0006         0.025077   
    302. D(H  57,C  53,C  52,H  55)     -0.0030         0.026190   
    303. D(H  57,C  53,C  52,C  51)    179.9858         0.026190   
    304. D(C  48,C  53,C  52,H  55)   -179.9860         0.026190   
    305. D(C  48,C  53,C  52,C  51)      0.0029         0.026190   
    306. D(H  57,C  53,C  48,C  49)   -179.9876         0.022645   
    307. D(H  57,C  53,C  48,C   0)      0.0096         0.022645   
    308. D(C  52,C  53,C  48,C  49)     -0.0044         0.022645   
    309. D(C  52,C  53,C  48,C   0)    179.9928         0.022645   
    -----------------------------------------------------------------

Number of atoms                         .... 59
Number of degrees of freedom            .... 309

         *************************************************************
         *                GEOMETRY OPTIMIZATION CYCLE   1            *
         *************************************************************
---------------------------------
CARTESIAN COORDINATES (ANGSTROEM)
---------------------------------
  C     -4.059408   -0.122213   -0.002174
  C     -2.837336   -0.050494   -0.000179
  C      2.839203    0.027272    0.000510
  C     -1.418074    0.005066    0.000148
  C     -0.716102    1.269265   -0.002866
  C      0.705740    1.207940   -0.002662
  C      1.411057    0.001829    0.000453
  C      0.705866   -1.245361    0.003520
  C     -0.688004   -1.200077    0.003370
  H      1.277031    2.136393   -0.004922
  H     -1.257013   -2.129589    0.005595
  C     -1.405585    2.500624   -0.005602
  H     -2.498389    2.461116   -0.005185
  C     -0.754044    3.851057   -0.008468
  H     -0.083548    3.951220    0.870291
  H     -0.081893    3.946772   -0.886448
  C     -1.755767    5.012656   -0.012321
  H     -2.413289    4.917358   -0.896170
  H     -2.415159    4.921675    0.870597
  C     -1.083525    6.386501   -0.014965
  H     -0.442337    6.517574   -0.903998
  H     -0.444160    6.521890    0.874729
  C      1.486166   -2.543568    0.006452
  H      2.164723   -2.540582   -0.867702
  H      2.164063   -2.537147    0.881106
  C      0.674082   -3.841117    0.008575
  H      0.010558   -3.867439    0.893056
  H      0.011127   -3.870579   -0.876232
  C      1.560547   -5.091929    0.011000
  H      2.227183   -5.067476   -0.871585
  H      2.226256   -5.064736    0.894207
  C      0.760876   -6.396654    0.012590
  H      0.111515   -6.470081   -0.877169
  H      0.110397   -6.467238    0.901767
  C      4.061115    0.054591    0.001636
  H     -1.827769    7.198951   -0.017720
  H      1.423925   -7.276837    0.014424
  C      5.488861    0.089015    0.001505
  C      6.178651    1.321015   -0.011309
  C      7.572806    1.349364   -0.011531
  C      8.304688    0.156569    0.000994
  C      7.631098   -1.070145    0.013804
  C      6.237240   -1.108406    0.014112
  H      9.397194    0.183123    0.000796
  H      8.196790   -2.004959    0.023768
  H      5.605954    2.250294   -0.021264
  H      5.709962   -2.064326    0.024292
  H      8.093261    2.310162   -0.021708
  C     -5.482915   -0.211234   -0.002975
  C     -6.279610    0.955478   -0.019872
  C     -7.670625    0.861632   -0.020449
  C     -8.295228   -0.390821   -0.004263
  C     -7.516015   -1.553428    0.012521
  C     -6.124425   -1.470007    0.013201
  H     -9.385790   -0.461156   -0.004809
  H     -7.997918   -2.534163    0.025380
  H     -5.791674    1.932007   -0.032786
  H     -5.515560   -2.375894    0.026514
  H     -8.272734    1.773348   -0.033778

----------------------------
CARTESIAN COORDINATES (A.U.)
----------------------------
  NO LB      ZA    FRAG     MASS         X           Y           Z
   0 C     6.0000    0    12.011   -7.671170   -0.230949   -0.004109
   1 C     6.0000    0    12.011   -5.361787   -0.095419   -0.000338
   2 C     6.0000    0    12.011    5.365316    0.051536    0.000964
   3 C     6.0000    0    12.011   -2.679772    0.009573    0.000279
   4 C     6.0000    0    12.011   -1.353236    2.398563   -0.005417
   5 C     6.0000    0    12.011    1.333655    2.282677   -0.005030
   6 C     6.0000    0    12.011    2.666512    0.003456    0.000857
   7 C     6.0000    0    12.011    1.333893   -2.353391    0.006651
   8 C     6.0000    0    12.011   -1.300140   -2.267817    0.006367
   9 H     1.0000    0     1.008    2.413238    4.037197   -0.009301
  10 H     1.0000    0     1.008   -2.375410   -4.024339    0.010573
  11 C     6.0000    0    12.011   -2.656170    4.725495   -0.010586
  12 H     1.0000    0     1.008   -4.721271    4.650835   -0.009798
  13 C     6.0000    0    12.011   -1.424937    7.277443   -0.016001
  14 H     1.0000    0     1.008   -0.157883    7.466724    1.644611
  15 H     1.0000    0     1.008   -0.154755    7.458318   -1.675143
  16 C     6.0000    0    12.011   -3.317918    9.472546   -0.023284
  17 H     1.0000    0     1.008   -4.560456    9.292460   -1.693515
  18 H     1.0000    0     1.008   -4.563989    9.300618    1.645189
  19 C     6.0000    0    12.011   -2.047566   12.068738   -0.028280
  20 H     1.0000    0     1.008   -0.835896   12.316431   -1.708309
  21 H     1.0000    0     1.008   -0.839341   12.324586    1.652998
  22 C     6.0000    0    12.011    2.808446   -4.806647    0.012192
  23 H     1.0000    0     1.008    4.090733   -4.801005   -1.639719
  24 H     1.0000    0     1.008    4.089487   -4.794513    1.665050
  25 C     6.0000    0    12.011    1.273831   -7.258660    0.016205
  26 H     1.0000    0     1.008    0.019952   -7.308401    1.687632
  27 H     1.0000    0     1.008    0.021026   -7.314335   -1.655839
  28 C     6.0000    0    12.011    2.949007   -9.622351    0.020788
  29 H     1.0000    0     1.008    4.208767   -9.576141   -1.647057
  30 H     1.0000    0     1.008    4.207014   -9.570964    1.689806
  31 C     6.0000    0    12.011    1.437847  -12.087924    0.023792
  32 H     1.0000    0     1.008    0.210733  -12.226682   -1.657609
  33 H     1.0000    0     1.008    0.208620  -12.221308    1.704093
  34 C     6.0000    0    12.011    7.674394    0.103162    0.003091
  35 H     1.0000    0     1.008   -3.453983   13.604046   -0.033487
  36 H     1.0000    0     1.008    2.690828  -13.751228    0.027257
  37 C     6.0000    0    12.011   10.372444    0.168215    0.002843
  38 C     6.0000    0    12.011   11.675958    2.496357   -0.021370
  39 C     6.0000    0    12.011   14.310530    2.549928   -0.021790
  40 C     6.0000    0    12.011   15.693587    0.295872    0.001879
  41 C     6.0000    0    12.011   14.420686   -2.022280    0.026086
  42 C     6.0000    0    12.011   11.786675   -2.094584    0.026669
  43 H     1.0000    0     1.008   17.758123    0.346052    0.001505
  44 H     1.0000    0     1.008   15.489689   -3.788824    0.044915
  45 H     1.0000    0     1.008   10.593717    4.252440   -0.040184
  46 H     1.0000    0     1.008   10.790264   -3.901011    0.045906
  47 H     1.0000    0     1.008   15.294046    4.365574   -0.041023
  48 C     6.0000    0    12.011  -10.361208   -0.399175   -0.005622
  49 C     6.0000    0    12.011  -11.866744    1.805593   -0.037552
  50 C     6.0000    0    12.011  -14.495380    1.628249   -0.038643
  51 C     6.0000    0    12.011  -15.675710   -0.738545   -0.008055
  52 C     6.0000    0    12.011  -14.203210   -2.935554    0.023661
  53 C     6.0000    0    12.011  -11.573485   -2.777910    0.024947
  54 H     1.0000    0     1.008  -17.736573   -0.871458   -0.009088
  55 H     1.0000    0     1.008  -15.113875   -4.788874    0.047961
  56 H     1.0000    0     1.008  -10.944677    3.650965   -0.061957
  57 H     1.0000    0     1.008  -10.422898   -4.489789    0.050104
  58 H     1.0000    0     1.008  -15.633201    3.351142   -0.063831

--------------------------------
INTERNAL COORDINATES (ANGSTROEM)
--------------------------------
 C      0   0   0     0.000000000000     0.00000000     0.00000000
 C      1   0   0     1.224177129800     0.00000000     0.00000000
 C      2   1   0     5.677070947225   177.42478506     0.00000000
 C      2   1   3     1.420348184851   178.88028577     2.18456320
 C      4   2   1     1.446020013271   121.28381404   175.74467207
 C      5   4   2     1.423163751429   116.57238858   180.01905613
 C      6   5   4     1.397207188516   122.78808755     0.00000000
 C      7   6   5     1.432754504484   120.19676775     0.00000000
 C      8   7   6     1.394605523987   117.62405120     0.00000000
 H      6   5   4     1.090138589729   119.13486737   179.99706087
 H      9   8   7     1.089847419171   119.61239772   179.99644926
 C      5   4   2     1.411254905955   121.71195836     0.03125966
 H     12   5   4     1.093518417307   117.17539963     0.00000000
 C     12   5   4     1.499393743752   124.99825165   179.98414614
 H     14  12   5     1.109870994803   110.01587267   302.56197747
 H     14  12   5     1.109863916218   110.01987203    57.33132334
 C     14  12   5     1.533875385248   113.47101452   179.94951282
 H     17  14  12     1.105715039870   108.97108716   302.33577277
 H     17  14  12     1.105721170211   108.97378173    57.64110808
 C     17  14  12     1.529498843401   113.15365703   179.98927490
 H     20  17  14     1.103939576264   111.30429523    59.85160565
 H     20  17  14     1.103935252226   111.30442352   300.14929645
 C      8   7   6     1.514667739137   119.50687896   179.98162105
 H     23   8   7     1.106613815466   108.18266048   303.76401508
 H     23   8   7     1.106619488523   108.18808133    56.31232131
 C     23   8   7     1.530724957932   116.95094416   180.04535526
 H     26  23   8     1.106012335103   109.84984507   301.73500471
 H     26  23   8     1.106012017420   109.84466317    58.23717894
 C     26  23   8     1.533086534890   112.63365430   179.98102664
 H     29  26  23     1.106326619511   109.21554481   302.33542034
 H     29  26  23     1.106327747116   109.21670915    57.70731293
 C     29  26  23     1.530289170176   113.17012177   180.02235752
 H     32  29  26     1.103962309690   111.29973343    59.86263315
 H     32  29  26     1.103965935167   111.30012344   300.14827235
 C      3   2   1     1.222217654462   179.50196511   183.35548301
 H     20  17  14     1.101808501874   111.43578936   179.99915654
 H     32  29  26     1.101979365955   111.50475953   180.00590481
 C     35   3   7     1.428161597767   179.88403587   318.97794840
 C     38  35   3     1.412018936918   120.62406831    29.43316501
 C     39  38  35     1.394443499305   120.40781375   180.00710298
 C     40  39  38     1.399488254418   120.36637333     0.00000000
 C     41  40  39     1.399540592333   119.69878181     0.00000000
 C     42  41  40     1.394383326731   120.34235250     0.00000000
 H     41  40  39     1.092828173976   120.13892845   180.00129787
 H     42  41  40     1.092696410913   120.05177221   180.00897912
 H     39  38  35     1.091623100406   119.11382209     0.00000000
 H     43  42  41     1.091745697488   120.45182331   180.01203973
 H     40  39  38     1.092753765764   119.60748598   179.98890516
 C      1   2   4     1.426288003056   179.77183891    19.67209066
 C     49   1   2     1.412878990788   120.74697173   165.21235295
 C     50  49   1     1.394176332077   120.46564516   180.00534014
 C     51  50  49     1.399654005723   120.36272996     0.00000000
 C     52  51  50     1.399682519696   119.66783989     0.00000000
 C     53  52  51     1.394088738255   120.39851265     0.00000000
 H     52  51  50     1.092827639962   120.19312748   180.00300388
 H     53  52  51     1.092811054348   120.00542106   179.98939860
 H     50  49   1     1.091722467245   119.12769771     0.02392820
 H     54  53  52     1.091570091699   120.47310401   179.98582600
 H     51  50  49     1.092674874219   119.57953899   180.00918265

---------------------------
INTERNAL COORDINATES (A.U.)
---------------------------
 C      0   0   0     0.000000000000     0.00000000     0.00000000
 C      1   0   0     2.313359514733     0.00000000     0.00000000
 C      2   1   0    10.728109333097   177.42478506     0.00000000
 C      2   1   3     2.684069084181   178.88028577     2.18456320
 C      4   2   1     2.732581809251   121.28381404   175.74467207
 C      5   4   2     2.689389733925   116.57238858   180.01905613
 C      6   5   4     2.640338938642   122.78808755     0.00000000
 C      7   6   5     2.707513630617   120.19676775     0.00000000
 C      8   7   6     2.635422505189   117.62405120     0.00000000
 H      6   5   4     2.060063382606   119.13486737   179.99706087
 H      9   8   7     2.059513149994   119.61239772   179.99644926
 C      5   4   2     2.666885277407   121.71195836     0.03125966
 H     12   5   4     2.066450331109   117.17539963     0.00000000
 C     12   5   4     2.833443542607   124.99825165   179.98414614
 H     14  12   5     2.097352224161   110.01587267   302.56197747
 H     14  12   5     2.097338847573   110.01987203    57.33132334
 C     14  12   5     2.898604401681   113.47101452   179.94951282
 H     17  14  12     2.089498607513   108.97108716   302.33577277
 H     17  14  12     2.089510192178   108.97378173    57.64110808
 C     17  14  12     2.890333936177   113.15365703   179.98927490
 H     20  17  14     2.086143467537   111.30429523    59.85160565
 H     20  17  14     2.086135296288   111.30442352   300.14929645
 C      8   7   6     2.862307210855   119.50687896   179.98162105
 H     23   8   7     2.091197047244   108.18266048   303.76401508
 H     23   8   7     2.091207767768   108.18808133    56.31232131
 C     23   8   7     2.892650956849   116.95094416   180.04535526
 H     26  23   8     2.090060414083   109.84984507   301.73500471
 H     26  23   8     2.090059813750   109.84466317    58.23717894
 C     26  23   8     2.897113690544   112.63365430   179.98102664
 H     29  26  23     2.090654325543   109.21554481   302.33542034
 H     29  26  23     2.090656456408   109.21670915    57.70731293
 C     29  26  23     2.891827437339   113.17012177   180.02235752
 H     32  29  26     2.086186427485   111.29973343    59.86263315
 H     32  29  26     2.086193278644   111.30012344   300.14827235
 C      3   2   1     2.309656642977   179.50196511   183.35548301
 H     20  17  14     2.082116320567   111.43578936   179.99915654
 H     32  29  26     2.082439206887   111.50475953   180.00590481
 C     35   3   7     2.698834294762   179.88403587   318.97794840
 C     38  35   3     2.668329086685   120.62406831    29.43316501
 C     39  38  35     2.635116322913   120.40781375   180.00710298
 C     40  39  38     2.644649528490   120.36637333     0.00000000
 C     41  40  39     2.644748432815   119.69878181     0.00000000
 C     42  41  40     2.635002613229   120.34235250     0.00000000
 H     41  40  39     2.065145960249   120.13892845   180.00129787
 H     42  41  40     2.064896964144   120.05177221   180.00897912
 H     39  38  35     2.062868701230   119.11382209     0.00000000
 H     43  42  41     2.063100376140   120.45182331   180.01203973
 H     40  39  38     2.065005349105   119.60748598   179.98890516
 C      1   2   4     2.695293713874   179.77183891    19.67209066
 C     49   1   2     2.669954352960   120.74697173   165.21235295
 C     50  49   1     2.634611450020   120.46564516   180.00534014
 C     51  50  49     2.644962753063   120.36272996     0.00000000
 C     52  51  50     2.645016636662   119.66783989     0.00000000
 C     53  52  51     2.634445921686   120.39851265     0.00000000
 H     52  51  50     2.065144951107   120.19312748   180.00300388
 H     53  52  51     2.065113608840   120.00542106   179.98939860
 H     50  49   1     2.063056477342   119.12769771     0.02392820
 H     54  53  52     2.062768529291   120.47310401   179.98582600
 H     51  50  49     2.064856265691   119.57953899   180.00918265

---------------------
BASIS SET INFORMATION
---------------------
There are 2 groups of distinct atoms

 Group   1 Type C   : 17s4p1d contracted to 3s2p1d pattern {881/31/1}
 Group   2 Type H   : 4s1p contracted to 2s1p pattern {31/1}

Atom   0C    basis set group =>   1
Atom   1C    basis set group =>   1
Atom   2C    basis set group =>   1
Atom   3C    basis set group =>   1
Atom   4C    basis set group =>   1
Atom   5C    basis set group =>   1
Atom   6C    basis set group =>   1
Atom   7C    basis set group =>   1
Atom   8C    basis set group =>   1
Atom   9H    basis set group =>   2
Atom  10H    basis set group =>   2
Atom  11C    basis set group =>   1
Atom  12H    basis set group =>   2
Atom  13C    basis set group =>   1
Atom  14H    basis set group =>   2
Atom  15H    basis set group =>   2
Atom  16C    basis set group =>   1
Atom  17H    basis set group =>   2
Atom  18H    basis set group =>   2
Atom  19C    basis set group =>   1
Atom  20H    basis set group =>   2
Atom  21H    basis set group =>   2
Atom  22C    basis set group =>   1
Atom  23H    basis set group =>   2
Atom  24H    basis set group =>   2
Atom  25C    basis set group =>   1
Atom  26H    basis set group =>   2
Atom  27H    basis set group =>   2
Atom  28C    basis set group =>   1
Atom  29H    basis set group =>   2
Atom  30H    basis set group =>   2
Atom  31C    basis set group =>   1
Atom  32H    basis set group =>   2
Atom  33H    basis set group =>   2
Atom  34C    basis set group =>   1
Atom  35H    basis set group =>   2
Atom  36H    basis set group =>   2
Atom  37C    basis set group =>   1
Atom  38C    basis set group =>   1
Atom  39C    basis set group =>   1
Atom  40C    basis set group =>   1
Atom  41C    basis set group =>   1
Atom  42C    basis set group =>   1
Atom  43H    basis set group =>   2
Atom  44H    basis set group =>   2
Atom  45H    basis set group =>   2
Atom  46H    basis set group =>   2
Atom  47H    basis set group =>   2
Atom  48C    basis set group =>   1
Atom  49C    basis set group =>   1
Atom  50C    basis set group =>   1
Atom  51C    basis set group =>   1
Atom  52C    basis set group =>   1
Atom  53C    basis set group =>   1
Atom  54H    basis set group =>   2
Atom  55H    basis set group =>   2
Atom  56H    basis set group =>   2
Atom  57H    basis set group =>   2
Atom  58H    basis set group =>   2
---------------------------------
AUXILIARY/J BASIS SET INFORMATION
---------------------------------
There are 2 groups of distinct atoms

 Group   1 Type C   : 12s5p4d2f1g contracted to 6s4p3d1f1g pattern {711111/2111/211/2/1}
 Group   2 Type H   : 5s2p1d contracted to 3s1p1d pattern {311/2/1}

Atom   0C    basis set group =>   1
Atom   1C    basis set group =>   1
Atom   2C    basis set group =>   1
Atom   3C    basis set group =>   1
Atom   4C    basis set group =>   1
Atom   5C    basis set group =>   1
Atom   6C    basis set group =>   1
Atom   7C    basis set group =>   1
Atom   8C    basis set group =>   1
Atom   9H    basis set group =>   2
Atom  10H    basis set group =>   2
Atom  11C    basis set group =>   1
Atom  12H    basis set group =>   2
Atom  13C    basis set group =>   1
Atom  14H    basis set group =>   2
Atom  15H    basis set group =>   2
Atom  16C    basis set group =>   1
Atom  17H    basis set group =>   2
Atom  18H    basis set group =>   2
Atom  19C    basis set group =>   1
Atom  20H    basis set group =>   2
Atom  21H    basis set group =>   2
Atom  22C    basis set group =>   1
Atom  23H    basis set group =>   2
Atom  24H    basis set group =>   2
Atom  25C    basis set group =>   1
Atom  26H    basis set group =>   2
Atom  27H    basis set group =>   2
Atom  28C    basis set group =>   1
Atom  29H    basis set group =>   2
Atom  30H    basis set group =>   2
Atom  31C    basis set group =>   1
Atom  32H    basis set group =>   2
Atom  33H    basis set group =>   2
Atom  34C    basis set group =>   1
Atom  35H    basis set group =>   2
Atom  36H    basis set group =>   2
Atom  37C    basis set group =>   1
Atom  38C    basis set group =>   1
Atom  39C    basis set group =>   1
Atom  40C    basis set group =>   1
Atom  41C    basis set group =>   1
Atom  42C    basis set group =>   1
Atom  43H    basis set group =>   2
Atom  44H    basis set group =>   2
Atom  45H    basis set group =>   2
Atom  46H    basis set group =>   2
Atom  47H    basis set group =>   2
Atom  48C    basis set group =>   1
Atom  49C    basis set group =>   1
Atom  50C    basis set group =>   1
Atom  51C    basis set group =>   1
Atom  52C    basis set group =>   1
Atom  53C    basis set group =>   1
Atom  54H    basis set group =>   2
Atom  55H    basis set group =>   2
Atom  56H    basis set group =>   2
Atom  57H    basis set group =>   2
Atom  58H    basis set group =>   2


           ************************************************************
           *        Program running with 16 parallel MPI-processes    *
           *              working on a common directory               *
           ************************************************************
------------------------------------------------------------------------------
                           ORCA GTO INTEGRAL CALCULATION
                           -- RI-GTO INTEGRALS CHOSEN --
------------------------------------------------------------------------------
------------------------------------------------------------------------------
                   ___                                                        
                  /   \      - P O W E R E D   B Y -                         
                 /     \                                                     
                 |  |  |   _    _      __       _____    __    __             
                 |  |  |  | |  | |    /  \     |  _  \  |  |  /  |          
                  \  \/   | |  | |   /    \    | | | |  |  | /  /          
                 / \  \   | |__| |  /  /\  \   | |_| |  |  |/  /          
                |  |  |   |  __  | /  /__\  \  |    /   |      \           
                |  |  |   | |  | | |   __   |  |    \   |  |\   \          
                \     /   | |  | | |  |  |  |  | |\  \  |  | \   \       
                 \___/    |_|  |_| |__|  |__|  |_| \__\ |__|  \__/        
                                                                              
                      - O R C A' S   B I G   F R I E N D -                    
                                      &                                       
                       - I N T E G R A L  F E E D E R -                       
                                                                              
 v1 FN, 2020, v2 2021                                                         
------------------------------------------------------------------------------


Reading SHARK input file opt.SHARKINP.tmp ... ok
----------------------
SHARK INTEGRAL PACKAGE
----------------------

Number of atoms                             ...     59
Number of basis functions                   ...    745
Number of shells                            ...    447
Maximum angular momentum                    ...      2
Integral batch strategy                     ... SHARK/LIBINT Hybrid
RI-J (if used) integral strategy            ... SPLIT-RIJ (Revised 2003 algorithm where possible)
Printlevel                                  ...      1
Contraction scheme used                     ... PARTIAL GENERAL contraction
Coulomb Range Separation                    ... NOT USED
Exchange Range Separation                   ... NOT USED
Finite Nucleus Model                        ... NOT USED
Auxiliary Coulomb fitting basis             ... AVAILABLE
   # of basis functions in Aux-J            ...   1789
   # of shells in Aux-J                     ...    595
   Maximum angular momentum in Aux-J        ...      4
Auxiliary J/K fitting basis                 ... NOT available
Auxiliary Correlation fitting basis         ... NOT available
Auxiliary 'external' fitting basis          ... NOT available
Integral threshold                          ...     2.500000e-11
Primitive cut-off                           ...     2.500000e-12
Primitive pair pre-selection threshold      ...     2.500000e-12

Calculating pre-screening integrals         ... done (  0.0 sec) Dimension = 447
Calculating pre-screening integrals (ORCA)  ... done (  0.1 sec) Dimension = 267
Organizing shell pair data                  ... done (  0.2 sec)
Shell pair information
Total number of shell pairs                 ...    100128
Shell pairs after pre-screening             ...     33364
Total number of primitive shell pairs       ...    160072
Primitive shell pairs kept                  ...     44644
          la=0 lb=0:  14334 shell pairs
          la=1 lb=0:  11843 shell pairs
          la=1 lb=1:   2123 shell pairs
          la=2 lb=0:   3572 shell pairs
          la=2 lb=1:   1285 shell pairs
          la=2 lb=2:    207 shell pairs

Calculating one electron integrals          ... done (  0.1 sec)
Calculating RI/J V-Matrix + Cholesky decomp.... done (  0.2 sec)
Calculating Nuclear repulsion               ... done (  0.0 sec) ENN=   2364.150523746983 Eh

SHARK setup successfully completed in   1.1 seconds

Maximum memory used throughout the entire GTOINT-calculation: 47.7 MB


           ************************************************************
           *        Program running with 16 parallel MPI-processes    *
           *              working on a common directory               *
           ************************************************************
-------------------------------------------------------------------------------
                                 ORCA SCF
-------------------------------------------------------------------------------

------------
SCF SETTINGS
------------
Hamiltonian:
 Density Functional     Method          .... DFT(GTOs)
 Exchange Functional    Exchange        .... B88
   X-Alpha parameter    XAlpha          ....  0.666667
   Becke's b parameter  XBeta           ....  0.004200
 Correlation Functional Correlation     .... LYP
 LDA part of GGA corr.  LDAOpt          .... VWN-5
 Gradients option       PostSCFGGA      .... off
 Hybrid DFT is turned on
   Fraction HF Exchange ScalHFX         ....  0.200000
   Scaling of DF-GGA-X  ScalDFX         ....  0.720000
   Scaling of DF-GGA-C  ScalDFC         ....  0.810000
   Scaling of DF-LDA-C  ScalLDAC        ....  1.000000
   Perturbative correction              ....  0.000000
   Density functional embedding theory  .... OFF
   NL short-range parameter             ....  4.800000
 RI-approximation to the Coulomb term is turned on
   Number of AuxJ basis functions       .... 1789
   RIJ-COSX (HFX calculated with COS-X)).... on


General Settings:
 Integral files         IntName         .... opt
 Hartree-Fock type      HFTyp           .... UHF
 Total Charge           Charge          ....    0
 Multiplicity           Mult            ....    2
 Number of Electrons    NEL             ....  209
 Basis Dimension        Dim             ....  565
 Nuclear Repulsion      ENuc            ....   2364.1505237470 Eh

Convergence Acceleration:
 DIIS                   CNVDIIS         .... on
   Start iteration      DIISMaxIt       ....    12
   Startup error        DIISStart       ....  0.200000
   # of expansion vecs  DIISMaxEq       ....     5
   Bias factor          DIISBfac        ....   1.050
   Max. coefficient     DIISMaxC        ....  10.000
 Trust-Rad. Augm. Hess. CNVTRAH         .... auto
   Auto Start mean grad. ratio tolernc. ....  1.125000
   Auto Start start iteration           ....    20
   Auto Start num. interpolation iter.  ....    10
   Max. Number of Micro iterations      ....    16
   Max. Number of Macro iterations      .... Maxiter - #DIIS iter
   Number of Davidson start vectors     ....     2
   Converg. threshold I  (grad. norm)   ....   1.000e-05
   Converg. threshold II (energy diff.) ....   1.000e-08
   Grad. Scal. Fac. for Micro threshold ....   0.100
   Minimum threshold for Micro iter.    ....   0.010
   NR start threshold (gradient norm)   ....   0.001
   Initial trust radius                 ....   0.400
   Minimum AH scaling param. (alpha)    ....   1.000
   Maximum AH scaling param. (alpha)    .... 1000.000
   Orbital update algorithm             .... Taylor
   White noise on init. David. guess    .... on
   Maximum white noise                  ....   0.010
   Quad. conv. algorithm                .... NR
 SOSCF                  CNVSOSCF        .... off
 Level Shifting         CNVShift        .... on
   Level shift para.    LevelShift      ....    0.2500
   Turn off err/grad.   ShiftErr        ....    0.0010
 Zerner damping         CNVZerner       .... off
 Static damping         CNVDamp         .... on
   Fraction old density DampFac         ....    0.7000
   Max. Damping (<1)    DampMax         ....    0.9800
   Min. Damping (>=0)   DampMin         ....    0.0000
   Turn off err/grad.   DampErr         ....    0.1000
 Fernandez-Rico         CNVRico         .... off

SCF Procedure:
 Maximum # iterations   MaxIter         ....   125
 SCF integral mode      SCFMode         .... Direct
   Integral package                     .... SHARK and LIBINT hybrid scheme
 Reset frequency        DirectResetFreq ....    20
 Integral Threshold     Thresh          ....  2.500e-11 Eh
 Primitive CutOff       TCut            ....  2.500e-12 Eh

Convergence Tolerance:
 Convergence Check Mode ConvCheckMode   .... Total+1el-Energy
 Convergence forced     ConvForced      .... 0
 Energy Change          TolE            ....  1.000e-08 Eh
 1-El. energy change                    ....  1.000e-05 Eh
 DIIS Error             TolErr          ....  5.000e-07


Diagonalization of the overlap matrix:
Smallest eigenvalue                        ... 4.688e-05
Time for diagonalization                   ...    0.059 sec
Threshold for overlap eigenvalues          ... 1.000e-08
Number of eigenvalues below threshold      ... 0
Time for construction of square roots      ...    0.062 sec
Total time needed                          ...    0.123 sec

Time for model grid setup =    0.431 sec

------------------------------
INITIAL GUESS: MODEL POTENTIAL
------------------------------
Loading Hartree-Fock densities                     ... done
Calculating cut-offs                               ... done
Initializing the effective Hamiltonian             ... done
Setting up the integral package (SHARK)            ... done
Starting the Coulomb interaction                   ... done (   0.4 sec)
Reading the grid                                   ... done
Mapping shells                                     ... done
Starting the XC term evaluation                    ... done (   0.1 sec)
  promolecular density results
     # of electrons  =    208.988222718
     EX              =   -162.717188925
     EC              =     -6.909449361
     EX+EC           =   -169.626638285
Transforming the Hamiltonian                       ... done (   0.0 sec)
Diagonalizing the Hamiltonian                      ... done (   0.1 sec)
Back transforming the eigenvectors                 ... done (   0.0 sec)
Now organizing SCF variables                       ... done
                      ------------------
                      INITIAL GUESS DONE (   1.4 sec)
                      ------------------
-------------------
DFT GRID GENERATION
-------------------

General Integration Accuracy     IntAcc      ... 4.388
Radial Grid Type                 RadialGrid  ... OptM3 with GC (2021)
Angular Grid (max. ang.)         AngularGrid ... 4 (Lebedev-302)
Angular grid pruning method      GridPruning ... 4 (adaptive)
Weight generation scheme         WeightScheme... Becke
Basis function cutoff            BFCut       ... 1.0000e-11
Integration weight cutoff        WCut        ... 1.0000e-14
Angular grids for H and He will be reduced by one unit
Partially contracted basis set               ... off
Rotationally invariant grid construction     ... off

Total number of grid points                  ...   271692
Total number of batches                      ...     4276
Average number of points per batch           ...       63
Average number of grid points per atom       ...     4605
Time for grid setup =    1.760 sec

--------------------
COSX GRID GENERATION
--------------------

GRIDX 1
-------
General Integration Accuracy     IntAcc      ... 3.816
Radial Grid Type                 RadialGrid  ... OptM3 with GC (2021)
Angular Grid (max. ang.)         AngularGrid ... 1 (Lebedev-50)
Angular grid pruning method      GridPruning ... 4 (adaptive)
Weight generation scheme         WeightScheme... Becke
Basis function cutoff            BFCut       ... 1.0000e-11
Integration weight cutoff        WCut        ... 1.0000e-14
Angular grids for H and He will be reduced by one unit
Partially contracted basis set               ... on
Rotationally invariant grid construction     ... off

Total number of grid points                  ...    34622
Total number of batches                      ...      570
Average number of points per batch           ...       60
Average number of grid points per atom       ...      587
UseSFitting                                  ... on

GRIDX 2
-------
General Integration Accuracy     IntAcc      ... 4.020
Radial Grid Type                 RadialGrid  ... OptM3 with GC (2021)
Angular Grid (max. ang.)         AngularGrid ... 2 (Lebedev-110)
Angular grid pruning method      GridPruning ... 4 (adaptive)
Weight generation scheme         WeightScheme... Becke
Basis function cutoff            BFCut       ... 1.0000e-11
Integration weight cutoff        WCut        ... 1.0000e-14
Angular grids for H and He will be reduced by one unit
Partially contracted basis set               ... on
Rotationally invariant grid construction     ... off

Total number of grid points                  ...    73977
Total number of batches                      ...     1185
Average number of points per batch           ...       62
Average number of grid points per atom       ...     1254
UseSFitting                                  ... on

GRIDX 3
-------
General Integration Accuracy     IntAcc      ... 4.338
Radial Grid Type                 RadialGrid  ... OptM3 with GC (2021)
Angular Grid (max. ang.)         AngularGrid ... 3 (Lebedev-194)
Angular grid pruning method      GridPruning ... 4 (adaptive)
Weight generation scheme         WeightScheme... Becke
Basis function cutoff            BFCut       ... 1.0000e-11
Integration weight cutoff        WCut        ... 1.0000e-14
Angular grids for H and He will be reduced by one unit
Partially contracted basis set               ... on
Rotationally invariant grid construction     ... off

Total number of grid points                  ...   161749
Total number of batches                      ...     2556
Average number of points per batch           ...       63
Average number of grid points per atom       ...     2742
UseSFitting                                  ... on

Time for X-Grid setup             =    3.049 sec

 re-compute Schwartz prescreening matrix in partically contracted basis (1) ...done (   0.107 sec)
--------------
SCF ITERATIONS
--------------
ITER       Energy         Delta-E        Max-DP      RMS-DP      [F,P]     Damp
               ***  Starting incremental Fock matrix formation  ***
  0  -1159.1955478954   0.000000000000 0.07177135  0.00082457  0.0869395 0.7000
  1  -1159.4758492131  -0.280301317682 0.06302907  0.00066524  0.0457909 0.7000
                               ***Turning on DIIS***
  2  -1159.6038386792  -0.127989466121 0.13190347  0.00130913  0.0175415 0.0000
  3  -1159.7875005145  -0.183661835285 0.02864660  0.00034610  0.0248799 0.0000
  4  -1159.8326079995  -0.045107484969 0.01817864  0.00015796  0.0053912 0.0000
  5  -1159.8354163572  -0.002808357728 0.00457083  0.00003512  0.0030302 0.0000
  6  -1159.8358093868  -0.000393029629 0.00338950  0.00001993  0.0023136 0.0000
  7  -1159.8359669220  -0.000157535175 0.00253800  0.00001380  0.0014542 0.0000
  8  -1159.8360528873  -0.000085965261 0.00358018  0.00002485  0.0009712 0.0000
               *** Restarting incremental Fock matrix formation ***
                                   *** Resetting DIIS ***
  9  -1159.8363645465  -0.000311659273 0.00153307  0.00001397  0.0008577 0.0000
 10  -1159.8363512229   0.000013323636 0.00049134  0.00000449  0.0018294 0.0000
 11  -1159.8363754907  -0.000024267773 0.00054134  0.00000416  0.0007394 0.0000
 12  -1159.8363814106  -0.000005919918 0.00065694  0.00000396  0.0002419 0.0000
 13  -1159.8363838117  -0.000002401110 0.00034165  0.00000192  0.0001075 0.0000
 14  -1159.8363844342  -0.000000622539 0.00018531  0.00000150  0.0000795 0.0000
 15  -1159.8363847254  -0.000000291132 0.00005859  0.00000056  0.0000348 0.0000
 16  -1159.8363847809  -0.000000055566 0.00004157  0.00000043  0.0000186 0.0000
 17  -1159.8363848142  -0.000000033321 0.00002716  0.00000026  0.0000123 0.0000
 18  -1159.8363848397  -0.000000025426 0.00001570  0.00000015  0.0000122 0.0000
 19  -1159.8363848715  -0.000000031851 0.00001000  0.00000010  0.0000098 0.0000
 20  -1159.8363848938  -0.000000022235 0.00000688  0.00000007  0.0000042 0.0000
 21  -1159.8363848710   0.000000022786 0.00000600  0.00000005  0.0000022 0.0000
 22  -1159.8363848626   0.000000008330 0.00000728  0.00000005  0.0000016 0.0000
 23  -1159.8363848801  -0.000000017426 0.00001789  0.00000009  0.0000012 0.0000
                            ***DIIS convergence achieved***

               *****************************************************
               *                     SUCCESS                       *
               *           SCF CONVERGED AFTER  24 CYCLES          *
               *****************************************************

Old exchange energy                            =    -33.145883595 Eh
New exchange energy                            =    -33.146015036 Eh
Exchange energy change after final integration =     -0.000131441 Eh
Total energy after final integration           =  -1159.836516334 Eh
Final COS-X integration done in                =    12.082 sec

----------------
TOTAL SCF ENERGY
----------------

Total Energy       :        -1159.83651633 Eh          -31560.75613 eV

Components:
Nuclear Repulsion  :         2364.15052375 Eh           64331.80632 eV
Electronic Energy  :        -3523.98704008 Eh          -95892.56244 eV
One Electron Energy:        -6263.20341075 Eh         -170430.42932 eV
Two Electron Energy:         2739.21637067 Eh           74537.86688 eV
Max COSX asymmetry :            0.00000069 Eh               0.00002 eV

Virial components:
Potential Energy   :        -2311.73939188 Eh          -62905.62691 eV
Kinetic Energy     :         1151.90287555 Eh           31344.87079 eV
Virial Ratio       :            2.00688742


DFT components:
N(Alpha)           :      105.000151646892 electrons
N(Beta)            :      104.000144269744 electrons
N(Total)           :      209.000295916636 electrons
E(X)               :     -131.491591961029 Eh       
E(C)               :       -8.161247254920 Eh       
E(XC)              :     -139.652839215950 Eh       
DFET-embed. en.    :        0.000000000000 Eh       

---------------
SCF CONVERGENCE
---------------

  Last Energy change         ...   -1.3340e-08  Tolerance :   1.0000e-08
  Last MAX-Density change    ...    0.0000e+00  Tolerance :   1.0000e-07
  Last RMS-Density change    ...    0.0000e+00  Tolerance :   5.0000e-09
  Last DIIS Error            ...    7.0323e-07  Tolerance :   5.0000e-07

             **** THE GBW FILE WAS UPDATED (opt.gbw) ****
             **** DENSITY opt.scfp WAS UPDATED ****
             **** ENERGY FILE WAS UPDATED (opt.en.tmp) ****
----------------------
UHF SPIN CONTAMINATION
----------------------

Warning: in a DFT calculation there is little theoretical justification to 
         calculate <S**2> as in Hartree-Fock theory. We will do it anyways
         but you should keep in mind that the values have only limited relevance

Expectation value of <S**2>     :     0.788779
Ideal value S*(S+1) for S=0.5   :     0.750000
Deviation                       :     0.038779

             **** THE GBW FILE WAS UPDATED (opt.gbw) ****
             **** DENSITY opt.scfp WAS UPDATED ****
----------------
ORBITAL ENERGIES
----------------
                 SPIN UP ORBITALS
  NO   OCC          E(Eh)            E(eV) 
   0   1.0000     -10.215973      -277.9908 
   1   1.0000     -10.214489      -277.9504 
   2   1.0000     -10.212703      -277.9018 
   3   1.0000     -10.210551      -277.8432 
   4   1.0000     -10.201036      -277.5843 
   5   1.0000     -10.196926      -277.4725 
   6   1.0000     -10.196567      -277.4627 
   7   1.0000     -10.196432      -277.4590 
   8   1.0000     -10.195529      -277.4344 
   9   1.0000     -10.195487      -277.4333 
  10   1.0000     -10.195272      -277.4275 
  11   1.0000     -10.195020      -277.4206 
  12   1.0000     -10.194792      -277.4144 
  13   1.0000     -10.194274      -277.4003 
  14   1.0000     -10.193610      -277.3822 
  15   1.0000     -10.193429      -277.3773 
  16   1.0000     -10.193145      -277.3696 
  17   1.0000     -10.191294      -277.3192 
  18   1.0000     -10.188794      -277.2512 
  19   1.0000     -10.188429      -277.2413 
  20   1.0000     -10.187964      -277.2286 
  21   1.0000     -10.187620      -277.2192 
  22   1.0000     -10.186794      -277.1968 
  23   1.0000     -10.186202      -277.1806 
  24   1.0000     -10.185635      -277.1652 
  25   1.0000     -10.183818      -277.1158 
  26   1.0000     -10.181715      -277.0585 
  27   1.0000     -10.181286      -277.0469 
  28   1.0000     -10.177028      -276.9310 
  29   1.0000     -10.175524      -276.8901 
  30   1.0000      -0.872379       -23.7386 
  31   1.0000      -0.862763       -23.4770 
  32   1.0000      -0.861594       -23.4452 
  33   1.0000      -0.819172       -22.2908 
  34   1.0000      -0.798623       -21.7316 
  35   1.0000      -0.796183       -21.6652 
  36   1.0000      -0.781804       -21.2740 
  37   1.0000      -0.772799       -21.0289 
  38   1.0000      -0.765814       -20.8389 
  39   1.0000      -0.750456       -20.4210 
  40   1.0000      -0.749392       -20.3920 
  41   1.0000      -0.737870       -20.0785 
  42   1.0000      -0.726151       -19.7596 
  43   1.0000      -0.709333       -19.3019 
  44   1.0000      -0.696752       -18.9596 
  45   1.0000      -0.656017       -17.8511 
  46   1.0000      -0.645949       -17.5772 
  47   1.0000      -0.623099       -16.9554 
  48   1.0000      -0.613036       -16.6816 
  49   1.0000      -0.608765       -16.5653 
  50   1.0000      -0.608366       -16.5545 
  51   1.0000      -0.607218       -16.5232 
  52   1.0000      -0.590121       -16.0580 
  53   1.0000      -0.579447       -15.7676 
  54   1.0000      -0.560512       -15.2523 
  55   1.0000      -0.540205       -14.6997 
  56   1.0000      -0.534529       -14.5453 
  57   1.0000      -0.506652       -13.7867 
  58   1.0000      -0.503582       -13.7032 
  59   1.0000      -0.479816       -13.0564 
  60   1.0000      -0.478707       -13.0263 
  61   1.0000      -0.474534       -12.9127 
  62   1.0000      -0.470293       -12.7973 
  63   1.0000      -0.461971       -12.5709 
  64   1.0000      -0.457264       -12.4428 
  65   1.0000      -0.455950       -12.4070 
  66   1.0000      -0.436564       -11.8795 
  67   1.0000      -0.434777       -11.8309 
  68   1.0000      -0.430423       -11.7124 
  69   1.0000      -0.428279       -11.6541 
  70   1.0000      -0.425675       -11.5832 
  71   1.0000      -0.423740       -11.5306 
  72   1.0000      -0.422526       -11.4975 
  73   1.0000      -0.421364       -11.4659 
  74   1.0000      -0.411268       -11.1912 
  75   1.0000      -0.397926       -10.8281 
  76   1.0000      -0.397502       -10.8166 
  77   1.0000      -0.383819       -10.4442 
  78   1.0000      -0.381179       -10.3724 
  79   1.0000      -0.377665       -10.2768 
  80   1.0000      -0.374525       -10.1913 
  81   1.0000      -0.364664        -9.9230 
  82   1.0000      -0.361464        -9.8359 
  83   1.0000      -0.359527        -9.7832 
  84   1.0000      -0.355285        -9.6678 
  85   1.0000      -0.353176        -9.6104 
  86   1.0000      -0.349989        -9.5237 
  87   1.0000      -0.348800        -9.4913 
  88   1.0000      -0.339765        -9.2455 
  89   1.0000      -0.332269        -9.0415 
  90   1.0000      -0.331910        -9.0317 
  91   1.0000      -0.330607        -8.9963 
  92   1.0000      -0.327299        -8.9063 
  93   1.0000      -0.323456        -8.8017 
  94   1.0000      -0.321532        -8.7493 
  95   1.0000      -0.305633        -8.3167 
  96   1.0000      -0.278146        -7.5687 
  97   1.0000      -0.271930        -7.3996 
  98   1.0000      -0.267721        -7.2851 
  99   1.0000      -0.266175        -7.2430 
 100   1.0000      -0.258129        -7.0240 
 101   1.0000      -0.257586        -7.0093 
 102   1.0000      -0.235991        -6.4216 
 103   1.0000      -0.208157        -5.6642 
 104   1.0000      -0.169526        -4.6131 
 105   0.0000      -0.063796        -1.7360 
 106   0.0000      -0.027013        -0.7351 
 107   0.0000      -0.009789        -0.2664 
 108   0.0000      -0.008958        -0.2438 
 109   0.0000       0.005708         0.1553 
 110   0.0000       0.019090         0.5195 
 111   0.0000       0.042635         1.1601 
 112   0.0000       0.051472         1.4006 
 113   0.0000       0.054183         1.4744 
 114   0.0000       0.056143         1.5277 
 115   0.0000       0.063281         1.7220 
 116   0.0000       0.064753         1.7620 
 117   0.0000       0.078245         2.1292 
 118   0.0000       0.078806         2.1444 
 119   0.0000       0.080881         2.2009 
 120   0.0000       0.088844         2.4176 
 121   0.0000       0.090103         2.4518 
 122   0.0000       0.096620         2.6292 
 123   0.0000       0.101309         2.7568 
 124   0.0000       0.102492         2.7889 
 125   0.0000       0.103841         2.8257 
 126   0.0000       0.113961         3.1010 
 127   0.0000       0.118095         3.2135 
 128   0.0000       0.121519         3.3067 
 129   0.0000       0.125794         3.4230 
 130   0.0000       0.130397         3.5483 
[...]
      px      :     0.000319
      py      :     0.000171
      dz2     :    -0.000060  d :    -0.000507
      dxz     :     0.000151
      dyz     :    -0.000127
      dx2y2   :    -0.000400
      dxy     :    -0.000071
 17 H s       :     0.000136  s :     0.000136
      pz      :     0.000033  p :     0.000169
      px      :     0.000079
      py      :     0.000056
 18 H s       :     0.000127  s :     0.000127
      pz      :     0.000033  p :     0.000167
      px      :     0.000077
      py      :     0.000057
 19 C s       :    -0.000174  s :    -0.000174
      pz      :     0.000391  p :     0.000019
      px      :    -0.000061
      py      :    -0.000311
      dz2     :    -0.000004  d :     0.000113
      dxz     :     0.000014
      dyz     :     0.000114
      dx2y2   :     0.000008
      dxy     :    -0.000019
 20 H s       :     0.000209  s :     0.000209
      pz      :     0.000001  p :     0.000037
      px      :     0.000017
      py      :     0.000019
 21 H s       :     0.000209  s :     0.000209
      pz      :     0.000001  p :     0.000037
      px      :     0.000017
      py      :     0.000020
 22 C s       :    -0.001163  s :    -0.001163
      pz      :    -0.000327  p :    -0.005172
      px      :    -0.002167
      py      :    -0.002678
      dz2     :     0.000149  d :     0.008469
      dxz     :     0.004721
      dyz     :     0.003088
      dx2y2   :     0.000214
      dxy     :     0.000298
 23 H s       :     0.007975  s :     0.007975
      pz      :    -0.000075  p :    -0.000190
      px      :    -0.000143
      py      :     0.000028
 24 H s       :     0.007986  s :     0.007986
      pz      :    -0.000075  p :    -0.000190
      px      :    -0.000143
      py      :     0.000028
 25 C s       :     0.000036  s :     0.000036
      pz      :     0.000014  p :     0.000187
      px      :     0.000099
      py      :     0.000074
      dz2     :    -0.000014  d :    -0.000071
      dxz     :     0.000118
      dyz     :    -0.000026
      dx2y2   :    -0.000101
      dxy     :    -0.000048
 26 H s       :     0.000034  s :     0.000034
      pz      :     0.000007  p :     0.000019
      px      :     0.000010
      py      :     0.000002
 27 H s       :     0.000034  s :     0.000034
      pz      :     0.000007  p :     0.000019
      px      :     0.000010
      py      :     0.000002
 28 C s       :    -0.000047  s :    -0.000047
      pz      :     0.000173  p :     0.000064
      px      :    -0.000024
      py      :    -0.000085
      dz2     :    -0.000002  d :    -0.000000
      dxz     :    -0.000003
      dyz     :     0.000012
      dx2y2   :    -0.000001
      dxy     :    -0.000007
 29 H s       :     0.000069  s :     0.000069
      pz      :     0.000001  p :     0.000019
      px      :     0.000005
      py      :     0.000013
 30 H s       :     0.000069  s :     0.000069
      pz      :     0.000001  p :     0.000019
      px      :     0.000005
      py      :     0.000013
 31 C s       :    -0.000009  s :    -0.000009
      pz      :    -0.000001  p :    -0.000045
      px      :    -0.000013
      py      :    -0.000032
      dz2     :    -0.000000  d :     0.000017
      dxz     :     0.000012
      dyz     :     0.000007
      dx2y2   :    -0.000003
      dxy     :     0.000001
 32 H s       :     0.000017  s :     0.000017
      pz      :    -0.000000  p :    -0.000001
      px      :    -0.000000
      py      :    -0.000001
 33 H s       :     0.000017  s :     0.000017
      pz      :    -0.000000  p :    -0.000001
      px      :    -0.000000
      py      :    -0.000001
 34 C s       :    -0.001156  s :    -0.001156
      pz      :    -0.029800  p :    -0.035102
      px      :    -0.000534
      py      :    -0.004768
      dz2     :     0.000124  d :     0.001874
      dxz     :     0.001357
      dyz     :     0.000000
      dx2y2   :     0.000147
      dxy     :     0.000246
 35 H s       :    -0.000130  s :    -0.000130
      pz      :     0.000032  p :     0.000020
      px      :     0.000003
      py      :    -0.000015
 36 H s       :    -0.000004  s :    -0.000004
      pz      :    -0.000000  p :    -0.000003
      px      :    -0.000001
      py      :    -0.000002
 37 C s       :     0.000436  s :     0.000436
      pz      :     0.005797  p :     0.006852
      px      :     0.000757
      py      :     0.000298
      dz2     :    -0.000039  d :    -0.002315
      dxz     :    -0.001707
      dyz     :    -0.000178
      dx2y2   :    -0.000116
      dxy     :    -0.000275
 38 C s       :    -0.000346  s :    -0.000346
      pz      :    -0.008268  p :    -0.008797
      px      :    -0.000266
      py      :    -0.000263
      dz2     :     0.000033  d :     0.000472
      dxz     :     0.000209
      dyz     :     0.000131
      dx2y2   :     0.000050
      dxy     :     0.000049
 39 C s       :     0.000192  s :     0.000192
      pz      :     0.003762  p :     0.004150
      px      :     0.000223
      py      :     0.000166
      dz2     :    -0.000019  d :    -0.000836
      dxz     :    -0.000574
      dyz     :    -0.000172
      dx2y2   :    -0.000034
      dxy     :    -0.000037
 40 C s       :    -0.000308  s :    -0.000308
      pz      :    -0.008798  p :    -0.009234
      px      :    -0.000201
      py      :    -0.000235
      dz2     :     0.000038  d :     0.000331
      dxz     :     0.000041
      dyz     :     0.000192
      dx2y2   :     0.000030
      dxy     :     0.000029
 41 C s       :     0.000192  s :     0.000192
      pz      :     0.003757  p :     0.004146
      px      :     0.000217
      py      :     0.000171
      dz2     :    -0.000019  d :    -0.000835
      dxz     :    -0.000545
      dyz     :    -0.000201
      dx2y2   :    -0.000035
      dxy     :    -0.000036
 42 C s       :    -0.000345  s :    -0.000345
      pz      :    -0.008261  p :    -0.008787
      px      :    -0.000271
      py      :    -0.000255
      dz2     :     0.000033  d :     0.000473
      dxz     :     0.000222
      dyz     :     0.000118
      dx2y2   :     0.000053
      dxy     :     0.000045
 43 H s       :     0.000279  s :     0.000279
      pz      :    -0.000269  p :    -0.000312
      px      :    -0.000038
      py      :    -0.000005
 44 H s       :    -0.000121  s :    -0.000121
      pz      :     0.000108  p :     0.000133
      px      :     0.000010
      py      :     0.000014
 45 H s       :     0.000258  s :     0.000258
      pz      :    -0.000223  p :    -0.000268
      px      :    -0.000014
      py      :    -0.000031
 46 H s       :     0.000253  s :     0.000253
      pz      :    -0.000223  p :    -0.000268
      px      :    -0.000012
      py      :    -0.000033
 47 H s       :    -0.000121  s :    -0.000121
      pz      :     0.000109  p :     0.000133
      px      :     0.000010
      py      :     0.000015
 48 C s       :    -0.000948  s :    -0.000948
      pz      :    -0.012485  p :    -0.014795
      px      :    -0.001620
      py      :    -0.000691
      dz2     :     0.000083  d :     0.005096
      dxz     :     0.003865
      dyz     :     0.000433
      dx2y2   :     0.000257
      dxy     :     0.000459
 49 C s       :     0.000778  s :     0.000778
      pz      :     0.019500  p :     0.020654
      px      :     0.000602
      py      :     0.000552
      dz2     :    -0.000081  d :    -0.001059
      dxz     :    -0.000523
      dyz     :    -0.000232
      dx2y2   :    -0.000127
      dxy     :    -0.000097
 50 C s       :    -0.000458  s :    -0.000458
      pz      :    -0.008835  p :    -0.009768
      px      :    -0.000512
      py      :    -0.000420
      dz2     :     0.000044  d :     0.002012
      dxz     :     0.001237
      dyz     :     0.000567
      dx2y2   :     0.000084
      dxy     :     0.000081
 51 C s       :     0.000747  s :     0.000747
      pz      :     0.021371  p :     0.022422
      px      :     0.000486
      py      :     0.000565
      dz2     :    -0.000093  d :    -0.000781
      dxz     :    -0.000093
      dyz     :    -0.000450
      dx2y2   :    -0.000073
      dxy     :    -0.000072
 52 C s       :    -0.000458  s :    -0.000458
      pz      :    -0.008819  p :    -0.009752
      px      :    -0.000548
      py      :    -0.000384
      dz2     :     0.000044  d :     0.002015
      dxz     :     0.001443
      dyz     :     0.000362
      dx2y2   :     0.000080
      dxy     :     0.000087
 53 C s       :     0.000776  s :     0.000776
      pz      :     0.019552  p :     0.020715
      px      :     0.000567
      py      :     0.000596
      dz2     :    -0.000081  d :    -0.001058
      dxz     :    -0.000442
      dyz     :    -0.000311
      dx2y2   :    -0.000107
      dxy     :    -0.000117
 54 H s       :    -0.000678  s :    -0.000678
      pz      :     0.000658  p :     0.000764
      px      :     0.000093
      py      :     0.000012
 55 H s       :     0.000280  s :     0.000280
      pz      :    -0.000255  p :    -0.000313
      px      :    -0.000022
      py      :    -0.000035
 56 H s       :    -0.000611  s :    -0.000611
      pz      :     0.000532  p :     0.000634
      px      :     0.000025
      py      :     0.000077
 57 H s       :    -0.000617  s :    -0.000617
      pz      :     0.000533  p :     0.000636
      px      :     0.000035
      py      :     0.000067
 58 H s       :     0.000280  s :     0.000280
      pz      :    -0.000256  p :    -0.000313
      px      :    -0.000025
      py      :    -0.000033


                      *****************************
                      * MAYER POPULATION ANALYSIS *
                      *****************************

  NA   - Mulliken gross atomic population
  ZA   - Total nuclear charge
  QA   - Mulliken gross atomic charge
  VA   - Mayer's total valence
  BVA  - Mayer's bonded valence
  FA   - Mayer's free valence

  ATOM       NA         ZA         QA         VA         BVA        FA
  0 C      5.8599     6.0000     0.1401     2.6171     2.6111     0.0060
  1 C      5.7183     6.0000     0.2817     2.4659     2.4638     0.0022
  2 C      5.7293     6.0000     0.2707     2.5193     2.5187     0.0006
  3 C      6.1788     6.0000    -0.1788     3.7512     3.7170     0.0341
  4 C      5.9279     6.0000     0.0721     4.1405     4.1255     0.0150
  5 C      6.0280     6.0000    -0.0280     3.8705     3.8358     0.0346
  6 C      6.1432     6.0000    -0.1432     3.8260     3.8190     0.0070
  7 C      6.0866     6.0000    -0.0866     4.1463     4.1095     0.0368
  8 C      5.9912     6.0000     0.0088     3.9056     3.8976     0.0080
  9 H      1.0544     1.0000    -0.0544     1.0031     1.0030     0.0001
 10 H      1.0557     1.0000    -0.0557     1.0036     1.0036     0.0000
 11 C      6.1003     6.0000    -0.1003     3.9300     3.5663     0.3637
 12 H      1.0265     1.0000    -0.0265     1.0085     1.0073     0.0012
 13 C      5.9651     6.0000     0.0349     4.0098     4.0083     0.0014
 14 H      0.9711     1.0000     0.0289     0.9626     0.9616     0.0011
 15 H      0.9710     1.0000     0.0290     0.9626     0.9616     0.0011
 16 C      6.0387     6.0000    -0.0387     4.1313     4.1313     0.0000
 17 H      0.9878     1.0000     0.0122     0.9641     0.9641     0.0000
 18 H      0.9878     1.0000     0.0122     0.9640     0.9640     0.0000
 19 C      5.9933     6.0000     0.0067     4.0162     4.0162     0.0000
 20 H      0.9826     1.0000     0.0174     0.9775     0.9775     0.0000
 21 H      0.9826     1.0000     0.0174     0.9775     0.9775     0.0000
 22 C      5.9600     6.0000     0.0400     4.0305     4.0303     0.0002
 23 H      0.9683     1.0000     0.0317     0.9689     0.9688     0.0001
 24 H      0.9683     1.0000     0.0317     0.9689     0.9688     0.0001
 25 C      6.0339     6.0000    -0.0339     4.1143     4.1143     0.0000
 26 H      0.9834     1.0000     0.0166     0.9630     0.9630     0.0000
 27 H      0.9834     1.0000     0.0166     0.9630     0.9630     0.0000
 28 C      6.0243     6.0000    -0.0243     4.1172     4.1172     0.0000
 29 H      0.9948     1.0000     0.0052     0.9674     0.9674     0.0000
 30 H      0.9948     1.0000     0.0052     0.9674     0.9674     0.0000
 31 C      5.9960     6.0000     0.0040     4.0169     4.0169     0.0000
 32 H      0.9830     1.0000     0.0170     0.9773     0.9773     0.0000
 33 H      0.9830     1.0000     0.0170     0.9773     0.9773     0.0000
 34 C      5.8730     6.0000     0.1270     2.6486     2.6473     0.0013
 35 H      0.9869     1.0000     0.0131     0.9732     0.9732     0.0000
 36 H      0.9877     1.0000     0.0123     0.9734     0.9734     0.0000
 37 C      6.2555     6.0000    -0.2555     3.9283     3.9283     0.0001
 38 C      5.9693     6.0000     0.0307     3.9947     3.9946     0.0001
 39 C      5.9591     6.0000     0.0409     3.9986     3.9986     0.0000
 40 C      5.9666     6.0000     0.0334     3.9988     3.9987     0.0001
 41 C      5.9596     6.0000     0.0404     3.9985     3.9985     0.0000
 42 C      5.9713     6.0000     0.0287     3.9933     3.9932     0.0001
 43 H      1.0277     1.0000    -0.0277     0.9687     0.9687     0.0000
 44 H      1.0277     1.0000    -0.0277     0.9684     0.9684     0.0000
 45 H      1.0408     1.0000    -0.0408     0.9836     0.9836     0.0000
 46 H      1.0398     1.0000    -0.0398     0.9832     0.9832     0.0000
 47 H      1.0276     1.0000    -0.0276     0.9684     0.9684     0.0000
 48 C      6.2588     6.0000    -0.2588     3.9300     3.9297     0.0003
 49 C      5.9743     6.0000     0.0257     3.9939     3.9933     0.0005
 50 C      5.9596     6.0000     0.0404     3.9988     3.9987     0.0001
 51 C      5.9670     6.0000     0.0330     3.9977     3.9971     0.0006
 52 C      5.9589     6.0000     0.0411     3.9988     3.9987     0.0001
 53 C      5.9693     6.0000     0.0307     3.9935     3.9930     0.0005
 54 H      1.0283     1.0000    -0.0283     0.9687     0.9687     0.0000
 55 H      1.0282     1.0000    -0.0282     0.9682     0.9682     0.0000
 56 H      1.0397     1.0000    -0.0397     0.9812     0.9812     0.0000
 57 H      1.0415     1.0000    -0.0415     0.9837     0.9837     0.0000
 58 H      1.0285     1.0000    -0.0285     0.9684     0.9684     0.0000

  Mayer bond orders larger than 0.100000
B(  0-C ,  1-C ) :   1.7104 B(  0-C , 48-C ) :   0.9334 B(  1-C ,  3-C ) :   0.8742 
B(  1-C , 48-C ) :  -0.1833 B(  2-C ,  6-C ) :   0.8748 B(  2-C , 34-C ) :   1.7520 
B(  2-C , 37-C ) :  -0.1771 B(  3-C ,  4-C ) :   1.2776 B(  3-C ,  8-C ) :   1.3995 
B(  4-C ,  5-C ) :   1.2897 B(  4-C , 11-C ) :   1.3816 B(  5-C ,  6-C ) :   1.4492 
B(  5-C ,  9-H ) :   0.9176 B(  6-C ,  7-C ) :   1.3430 B(  7-C ,  8-C ) :   1.4279 
B(  7-C , 22-C ) :   1.0957 B(  8-C , 10-H ) :   0.9199 B( 11-C , 12-H ) :   0.8983 
B( 11-C , 13-C ) :   1.0841 B( 13-C , 14-H ) :   0.9115 B( 13-C , 15-H ) :   0.9114 
B( 13-C , 16-C ) :   1.0716 B( 16-C , 17-H ) :   0.9437 B( 16-C , 18-H ) :   0.9437 
B( 16-C , 19-C ) :   1.1066 B( 19-C , 20-H ) :   0.9653 B( 19-C , 21-H ) :   0.9653 
B( 19-C , 35-H ) :   0.9608 B( 22-C , 23-H ) :   0.8957 B( 22-C , 24-H ) :   0.8957 
B( 22-C , 25-C ) :   1.1045 B( 25-C , 26-H ) :   0.9292 B( 25-C , 27-H ) :   0.9292 
B( 25-C , 28-C ) :   1.0748 B( 28-C , 29-H ) :   0.9409 B( 28-C , 30-H ) :   0.9409 
B( 28-C , 31-C ) :   1.1062 B( 31-C , 32-H ) :   0.9662 B( 31-C , 33-H ) :   0.9662 
B( 31-C , 36-H ) :   0.9617 B( 34-C , 37-C ) :   0.9308 B( 37-C , 38-C ) :   1.4428 
B( 37-C , 42-C ) :   1.4388 B( 38-C , 39-C ) :   1.4700 B( 38-C , 45-H ) :   0.9401 
B( 39-C , 40-C ) :   1.4443 B( 39-C , 47-H ) :   0.9380 B( 40-C , 41-C ) :   1.4438 
B( 40-C , 43-H ) :   0.9433 B( 41-C , 42-C ) :   1.4701 B( 41-C , 44-H ) :   0.9380 
B( 42-C , 46-H ) :   0.9405 B( 48-C , 49-C ) :   1.4365 B( 48-C , 53-C ) :   1.4390 
B( 49-C , 50-C ) :   1.4712 B( 49-C , 56-H ) :   0.9405 B( 50-C , 51-C ) :   1.4426 
B( 50-C , 58-H ) :   0.9379 B( 51-C , 52-C ) :   1.4424 B( 51-C , 54-H ) :   0.9433 
B( 52-C , 53-C ) :   1.4723 B( 52-C , 55-H ) :   0.9379 B( 53-C , 57-H ) :   0.9399 


-------
TIMINGS
-------

Total SCF time: 0 days 0 hours 1 min 20 sec 

Total time                  ....      80.258 sec
Sum of individual times     ....      76.269 sec  ( 95.0%)

Fock matrix formation       ....      68.528 sec  ( 85.4%)
  Split-RI-J                ....       5.092 sec  (  7.4% of F)
  Chain of spheres X        ....      48.739 sec  ( 71.1% of F)
  XC integration            ....      11.344 sec  ( 16.6% of F)
    Basis function eval.    ....       1.079 sec  (  9.5% of XC)
    Density eval.           ....       1.241 sec  ( 10.9% of XC)
    XC-Functional eval.     ....       0.281 sec  (  2.5% of XC)
    XC-Potential eval.      ....       0.745 sec  (  6.6% of XC)
Diagonalization             ....       1.478 sec  (  1.8%)
Density matrix formation    ....       0.171 sec  (  0.2%)
Population analysis         ....       0.487 sec  (  0.6%)
Initial guess               ....       0.244 sec  (  0.3%)
Orbital Transformation      ....       0.000 sec  (  0.0%)
Orbital Orthonormalization  ....       0.192 sec  (  0.2%)
DIIS solution               ....       0.809 sec  (  1.0%)
Grid generation             ....       4.553 sec  (  5.7%)

Maximum memory used throughout the entire SCF-calculation: 160.9 MB

-------------------------   --------------------
FINAL SINGLE POINT ENERGY     -1159.836514487080
-------------------------   --------------------

                                *** OPTIMIZATION RUN DONE ***

                            ***************************************
                            *     ORCA property calculations      *
                            ***************************************

                                    ---------------------
                                    Active property flags
                                    ---------------------
   (+) Dipole Moment


------------------------------------------------------------------------------
                       ORCA ELECTRIC PROPERTIES CALCULATION
------------------------------------------------------------------------------

Dipole Moment Calculation                       ... on
Quadrupole Moment Calculation                   ... off
Polarizability Calculation                      ... off
GBWName                                         ... opt.gbw
Electron density                                ... opt.scfp
The origin for moment calculation is the CENTER OF MASS  = (-0.025205, -0.091032 -0.000187)

-------------
DIPOLE MOMENT
-------------
                                X             Y             Z
Electronic contribution:     -0.50644       2.18351       0.02450
Nuclear contribution   :      0.63594      -2.16475      -0.02495
                        -----------------------------------------
Total Dipole Moment    :      0.12950       0.01876      -0.00046
                        -----------------------------------------
Magnitude (a.u.)       :      0.13085
Magnitude (Debye)      :      0.33259



--------------------
Rotational spectrum 
--------------------
 
Rotational constants in cm-1:     0.005965     0.001994     0.001497 
Rotational constants in MHz :   178.831081    59.768381    44.884172 

 Dipole components along the rotational axes: 
x,y,z [a.u.] :     0.128184     0.026265    -0.000446 
x,y,z [Debye]:     0.325817     0.066761    -0.001135 

 

Timings for individual modules:

Sum of individual times         ...      692.042 sec (=  11.534 min)
GTO integral calculation        ...       15.948 sec (=   0.266 min)   2.3 %
SCF iterations                  ...      554.958 sec (=   9.249 min)  80.2 %
SCF Gradient evaluation         ...      119.980 sec (=   2.000 min)  17.3 %
Geometry relaxation             ...        1.156 sec (=   0.019 min)   0.2 %
                             ****ORCA TERMINATED NORMALLY****
TOTAL RUN TIME: 0 days 0 hours 11 minutes 47 seconds 164 msec
