
                                 *****************
                                 * O   R   C   A *
                                 *****************

                                            #,                                       
                                            ###                                      
                                            ####                                     
                                            #####                                    
                                            ######                                   
                                           ########,                                 
                                     ,,################,,,,,                         
                               ,,#################################,,                 
                          ,,##########################################,,             
                       ,#########################################, ''#####,          
                    ,#############################################,,   '####,        
                  ,##################################################,,,,####,       
                ,###########''''           ''''###############################       
              ,#####''   ,,,,##########,,,,          '''####'''          '####       
            ,##' ,,,,###########################,,,                        '##       
           ' ,,###''''                  '''############,,,                           
         ,,##''                                '''############,,,,        ,,,,,,###''
      ,#''                                            '''#######################'''  
     '                                                          ''''####''''         
             ,#######,   #######,   ,#######,      ##                                
            ,#'     '#,  ##    ##  ,#'     '#,    #''#        ######   ,####,        
            ##       ##  ##   ,#'  ##            #'  '#       #        #'  '#        
            ##       ##  #######   ##           ,######,      #####,   #    #        
            '#,     ,#'  ##    ##  '#,     ,#' ,#      #,         ##   #,  ,#        
             '#######'   ##     ##  '#######'  #'      '#     #####' # '####'        



                  #######################################################
                  #                        -***-                        #
                  #          Department of theory and spectroscopy      #
                  #    Directorship and core code : Frank Neese         #
                  #        Max Planck Institute fuer Kohlenforschung    #
                  #                Kaiser Wilhelm Platz 1               #
                  #                 D-45470 Muelheim/Ruhr               #
                  #                      Germany                        #
                  #                                                     #
                  #                  All rights reserved                #
                  #                        -***-                        #
                  #######################################################


                         Program Version 5.0.4 -  RELEASE  -


 With contributions from (in alphabetic order):
   Daniel Aravena         : Magnetic Suceptibility
   Michael Atanasov       : Ab Initio Ligand Field Theory (pilot matlab implementation)
   Alexander A. Auer      : GIAO ZORA, VPT2 properties, NMR spectrum
   Ute Becker             : Parallelization
   Giovanni Bistoni       : ED, misc. LED, open-shell LED, HFLD
   Martin Brehm           : Molecular dynamics
   Dmytro Bykov           : SCF Hessian
   Vijay G. Chilkuri      : MRCI spin determinant printing, contributions to CSF-ICE
   Dipayan Datta          : RHF DLPNO-CCSD density
   Achintya Kumar Dutta   : EOM-CC, STEOM-CC
   Dmitry Ganyushin       : Spin-Orbit,Spin-Spin,Magnetic field MRCI
   Miquel Garcia          : C-PCM and meta-GGA Hessian, CC/C-PCM, Gaussian charge scheme
   Yang Guo               : DLPNO-NEVPT2, F12-NEVPT2, CIM, IAO-localization
   Andreas Hansen         : Spin unrestricted coupled pair/coupled cluster methods
   Benjamin Helmich-Paris : MC-RPA, TRAH-SCF, COSX integrals
   Lee Huntington         : MR-EOM, pCC
   Robert Izsak           : Overlap fitted RIJCOSX, COSX-SCS-MP3, EOM
   Marcus Kettner         : VPT2
   Christian Kollmar      : KDIIS, OOCD, Brueckner-CCSD(T), CCSD density, CASPT2, CASPT2-K
   Simone Kossmann        : Meta GGA functionals, TD-DFT gradient, OOMP2, MP2 Hessian
   Martin Krupicka        : Initial AUTO-CI
   Lucas Lang             : DCDCAS
   Marvin Lechner         : AUTO-CI (C++ implementation), FIC-MRCC
   Dagmar Lenk            : GEPOL surface, SMD
   Dimitrios Liakos       : Extrapolation schemes; Compound Job, initial MDCI parallelization
   Dimitrios Manganas     : Further ROCIS development; embedding schemes
   Dimitrios Pantazis     : SARC Basis sets
   Anastasios Papadopoulos: AUTO-CI, single reference methods and gradients
   Taras Petrenko         : DFT Hessian,TD-DFT gradient, ASA, ECA, R-Raman, ABS, FL, XAS/XES, NRVS
   Peter Pinski           : DLPNO-MP2, DLPNO-MP2 Gradient
   Christoph Reimann      : Effective Core Potentials
   Marius Retegan         : Local ZFS, SOC
   Christoph Riplinger    : Optimizer, TS searches, QM/MM, DLPNO-CCSD(T), (RO)-DLPNO pert. Triples
   Tobias Risthaus        : Range-separated hybrids, TD-DFT gradient, RPA, STAB
   Michael Roemelt        : Original ROCIS implementation
   Masaaki Saitow         : Open-shell DLPNO-CCSD energy and density
   Barbara Sandhoefer     : DKH picture change effects
   Avijit Sen             : IP-ROCIS
   Kantharuban Sivalingam : CASSCF convergence, NEVPT2, FIC-MRCI
   Bernardo de Souza      : ESD, SOC TD-DFT
   Georgi Stoychev        : AutoAux, RI-MP2 NMR, DLPNO-MP2 response
   Willem Van den Heuvel  : Paramagnetic NMR
   Boris Wezisla          : Elementary symmetry handling
   Frank Wennmohs         : Technical directorship


 We gratefully acknowledge several colleagues who have allowed us to
 interface, adapt or use parts of their codes:
   Stefan Grimme, W. Hujo, H. Kruse, P. Pracht,  : VdW corrections, initial TS optimization,
                  C. Bannwarth, S. Ehlert          DFT functionals, gCP, sTDA/sTD-DF
   Ed Valeev, F. Pavosevic, A. Kumar             : LibInt (2-el integral package), F12 methods
   Garnet Chan, S. Sharma, J. Yang, R. Olivares  : DMRG
   Ulf Ekstrom                                   : XCFun DFT Library
   Mihaly Kallay                                 : mrcc  (arbitrary order and MRCC methods)
   Jiri Pittner, Ondrej Demel                    : Mk-CCSD
   Frank Weinhold                                : gennbo (NPA and NBO analysis)
   Christopher J. Cramer and Donald G. Truhlar   : smd solvation model
   Lars Goerigk                                  : TD-DFT with DH, B97 family of functionals
   V. Asgeirsson, H. Jonsson                     : NEB implementation
   FAccTs GmbH                                   : IRC, NEB, NEB-TS, DLPNO-Multilevel, CI-OPT
                                                   MM, QMMM, 2- and 3-layer-ONIOM, Crystal-QMMM,
                                                   LR-CPCM, SF, NACMEs, symmetry and pop. for TD-DFT,
                                                   nearIR, NL-DFT gradient (VV10), updates on ESD,
                                                   ML-optimized integration grids
   S Lehtola, MJT Oliveira, MAL Marques          : LibXC Library
   Liviu Ungur et al                             : ANISO software


 Your calculation uses the libint2 library for the computation of 2-el integrals
 For citations please refer to: http://libint.valeyev.net

 Your ORCA version has been built with support for libXC version: 5.1.0
 For citations please refer to: https://tddft.org/programs/libxc/

 This ORCA versions uses:
   CBLAS   interface :  Fast vector & matrix operations
   LAPACKE interface :  Fast linear algebra routines
   SCALAPACK package :  Parallel linear algebra routines
   Shared memory     :  Shared parallel matrices
   BLAS/LAPACK       :  OpenBLAS 0.3.15  USE64BITINT DYNAMIC_ARCH NO_AFFINITY SkylakeX SINGLE_THREADED
        Core in use  :  SkylakeX
   Copyright (c) 2011-2014, The OpenBLAS Project




***************************************
The coordinates will be read from file: model.xyz
***************************************


================================================================================

----- Orbital basis set information -----
Your calculation utilizes the basis: cc-pVDZ 
       H, B-Ne : Obtained from the ccRepo (grant-hill.group.shef.ac.uk/ccrepo) Feb. 2017
                 T. H. Dunning, Jr., J. Chem. Phys. 90, 1007 (1989)
            He : Obtained from the ccRepo (grant-hill.group.shef.ac.uk/ccrepo) Feb. 2017
                 D. E. Woon, T. H. Dunning, Jr., J. Chem. Phys. 100, 2975 (1994)
  Li-Be, Na-Mg : Obtained from the ccRepo (grant-hill.group.shef.ac.uk/ccrepo) Feb. 2017
                 B. P. Prascher, D. E. Woon, K. A. Peterson, T. H. Dunning, Jr., A. K. Wilson, Theor. Chem. Acc. 128, 69 (2011)
         Al-Ar : Obtained from the ccRepo (grant-hill.group.shef.ac.uk/ccrepo) Feb. 2017
                 D. E. Woon, T. H. Dunning, Jr., J. Chem. Phys. 98, 1358 (1993)
            Ca : Obtained from the Peterson Research Group Website (tyr0.chem.wsu.edu/~kipeters) Feb. 2017
                 J. Koput, K. A. Peterson, J. Phys. Chem. 106, 9595 (2002)
         Sc-Zn : Obtained from the ccRepo (grant-hill.group.shef.ac.uk/ccrepo) Feb. 2017
                 N. B. Balabanov, K. A. Peterson, J. Chem. Phys. 123, 064107 (2005)
                 N. B. Balabanov, K. A. Peterson, J. Chem. Phys. 125, 074110 (2006)
         Ga-Kr : Obtained from the ccRepo (grant-hill.group.shef.ac.uk/ccrepo) Feb. 2017
                 A. K. Wilson, D. E. Woon, K. A. Peterson, T. H. Dunning, Jr., J. Chem. Phys. 110, 7667 (1999)

----- AuxJ basis set information -----
Your calculation utilizes the auxiliary basis: def2/J
   F. Weigend, Phys. Chem. Chem. Phys. 8, 1057 (2006).

================================================================================
                                        WARNINGS
                       Please study these warnings very carefully!
================================================================================

WARNING: Old DensityContainer found on disk!
         Will remove this file - 
         If you want to keep old densities, please start your calculation with a different basename. 


WARNING: your system is open-shell and RHF/RKS was chosen
  ===> : WILL SWITCH to UHF/UKS


WARNING: Geometry Optimization
  ===> : Switching off AutoStart
         For restart on a previous wavefunction, please use MOREAD

INFO   : the flag for use of the SHARK integral package has been found!

================================================================================
                                       INPUT FILE
================================================================================
NAME = opt_cc-pVDZ.inp
|  1> ! B3LYP cc-pVDZ OPT
|  2> %pal nprocs 16 end
|  3> *XYZFile 0 2 model.xyz
|  4> 
|  5>                          ****END OF INPUT****
================================================================================

                       *****************************
                       * Geometry Optimization Run *
                       *****************************

Geometry optimization settings:
Update method            Update   .... BFGS
Choice of coordinates    CoordSys .... Z-matrix Internals
Initial Hessian          InHess   .... Almoef's Model

Convergence Tolerances:
Energy Change            TolE     ....  5.0000e-06 Eh
Max. Gradient            TolMAXG  ....  3.0000e-04 Eh/bohr
RMS Gradient             TolRMSG  ....  1.0000e-04 Eh/bohr
Max. Displacement        TolMAXD  ....  4.0000e-03 bohr
RMS Displacement         TolRMSD  ....  2.0000e-03 bohr
Strict Convergence                ....  False
------------------------------------------------------------------------------
                        ORCA OPTIMIZATION COORDINATE SETUP
------------------------------------------------------------------------------

The optimization will be done in new redundant internal coordinates
Making redundant internal coordinates   ...  (new redundants) done
Evaluating the initial hessian          ...  (Almloef) done
Evaluating the coordinates              ...  done
Calculating the B-matrix                .... done
Calculating the G-matrix                .... done
Diagonalizing the G-matrix              .... done
Small eigenvalue found = 6.261e-04
Small eigenvalue found = 7.673e-04
Small eigenvalue found = 1.806e-03
Small eigenvalue found = 3.606e-03
Small eigenvalue found = 7.567e-03
Small eigenvalue found = 1.235e-02
Small eigenvalue found = 1.767e-02
Small eigenvalue found = 1.889e-02
Small eigenvalue found = 2.053e-02
Small eigenvalue found = 2.582e-02
Small eigenvalue found = 2.731e-02
Small eigenvalue found = 2.984e-02
The first mode is                       ....  138
The number of degrees of freedom        ....  171

    -----------------------------------------------------------------
                    Redundant Internal Coordinates


    -----------------------------------------------------------------
         Definition                    Initial Value    Approx d2E/dq
    -----------------------------------------------------------------
      1. B(C   1,C   0)                  1.2241         1.149157   
      2. B(C   3,C   1)                  1.4204         0.558860   
      3. B(C   4,C   3)                  1.4458         0.508945   
      4. B(C   5,C   4)                  1.4234         0.552702   
      5. B(C   6,C   5)                  1.3973         0.608155   
      6. B(C   6,C   2)                  1.4283         0.542750   
      7. B(C   7,C   6)                  1.4326         0.534304   
      8. B(C   8,C   7)                  1.3946         0.614377   
      9. B(C   8,C   3)                  1.4091         0.582552   
     10. B(H   9,C   5)                  1.0902         0.359821   
     11. B(H  10,C   8)                  1.0899         0.360284   
     12. B(C  11,C   4)                  1.4111         0.578118   
     13. B(H  12,C  11)                  1.0932         0.355903   
     14. B(C  13,C  11)                  1.4997         0.417570   
     15. B(H  14,C  13)                  1.1097         0.334956   
     16. B(H  15,C  13)                  1.1097         0.335003   
     17. B(C  16,C  13)                  1.5343         0.367728   
     18. B(H  17,C  16)                  1.1054         0.340350   
     19. B(H  18,C  16)                  1.1054         0.340339   
     20. B(C  19,C  16)                  1.5299         0.373719   
     21. B(H  20,C  19)                  1.1038         0.342313   
     22. B(H  21,C  19)                  1.1038         0.342312   
     23. B(C  22,C   7)                  1.5144         0.395654   
     24. B(H  23,C  22)                  1.1062         0.339248   
     25. B(H  24,C  22)                  1.1062         0.339242   
     26. B(C  25,C  22)                  1.5309         0.372282   
     27. B(H  26,C  25)                  1.1056         0.340085   
     28. B(H  27,C  25)                  1.1056         0.340079   
     29. B(C  28,C  25)                  1.5336         0.368620   
     30. B(H  29,C  28)                  1.1059         0.339677   
     31. B(H  30,C  28)                  1.1059         0.339677   
     32. B(C  31,C  28)                  1.5308         0.372442   
     33. B(H  32,C  31)                  1.1037         0.342382   
     34. B(H  33,C  31)                  1.1037         0.342384   
     35. B(C  34,C   2)                  1.2222         1.157362   
     36. B(H  35,C  19)                  1.1019         0.344679   
     37. B(H  36,C  31)                  1.1021         0.344415   
     38. B(C  37,C  34)                  1.4282         0.543079   
     39. B(C  38,C  37)                  1.4121         0.575989   
     40. B(C  39,C  38)                  1.3945         0.614471   
     41. B(C  40,C  39)                  1.3995         0.603266   
     42. B(C  41,C  40)                  1.3996         0.603123   
     43. B(C  42,C  41)                  1.3945         0.614594   
     44. B(C  42,C  37)                  1.4121         0.575976   
     45. B(H  43,C  40)                  1.0925         0.356793   
     46. B(H  44,C  41)                  1.0927         0.356555   
     47. B(H  45,C  38)                  1.0916         0.357956   
     48. B(H  46,C  42)                  1.0916         0.357933   
     49. B(H  47,C  39)                  1.0927         0.356559   
     50. B(C  48,C   0)                  1.4263         0.546765   
     51. B(C  49,C  48)                  1.4129         0.574442   
     52. B(C  50,C  49)                  1.3943         0.614963   
     53. B(C  51,C  50)                  1.3997         0.602870   
     54. B(C  52,C  51)                  1.3998         0.602775   
     55. B(C  53,C  52)                  1.3942         0.615285   
     56. B(C  53,C  48)                  1.4131         0.573936   
     57. B(H  54,C  51)                  1.0925         0.356800   
     58. B(H  55,C  52)                  1.0927         0.356524   
     59. B(H  56,C  49)                  1.0916         0.357940   
     60. B(H  57,C  53)                  1.0916         0.357939   
     61. B(H  58,C  50)                  1.0927         0.356519   
     62. L(C   1,C   0,C  48,C  53, 2) 179.8955         0.474658   
     63. L(C   1,C   0,C  48,C  53, 1) 179.4506         0.474658   
     64. L(C   0,C   1,C   3,C   8, 2) 179.8676         0.476572   
     65. L(C   0,C   1,C   3,C   8, 1) 178.5761         0.476572   
     66. L(C   6,C   2,C  34,C   5, 2) 179.9131         0.474635   
     67. L(C   6,C   2,C  34,C   5, 1) 179.6200         0.474635   
     68. A(C   1,C   3,C   8)          118.8551         0.421333   
     69. A(C   1,C   3,C   4)          121.3845         0.411326   
     70. A(C   4,C   3,C   8)          119.7604         0.414369   
     71. A(C   3,C   4,C  11)          121.7663         0.413807   
     72. A(C   5,C   4,C  11)          121.7055         0.419927   
     73. A(C   3,C   4,C   5)          116.5282         0.410519   
     74. A(C   6,C   5,H   9)          117.9826         0.351713   
     75. A(C   4,C   5,C   6)          122.8219         0.423743   
     76. A(C   4,C   5,H   9)          119.1955         0.346089   
     77. A(C   2,C   6,C   7)          120.5313         0.412742   
     78. A(C   2,C   6,C   5)          119.2735         0.422369   
     79. A(C   5,C   6,C   7)          120.1952         0.421188   
     80. A(C   8,C   7,C  22)          122.8158         0.400067   
     81. A(C   6,C   7,C   8)          117.5909         0.421954   
     82. A(C   6,C   7,C  22)          119.5933         0.390389   
     83. A(C   3,C   8,H  10)          117.2365         0.349244   
     84. A(C   3,C   8,C   7)          123.1034         0.428533   
     85. A(C   7,C   8,H  10)          119.6601         0.352396   
     86. A(H  12,C  11,C  13)          117.8127         0.329684   
     87. A(C   4,C  11,C  13)          125.0074         0.399580   
     88. A(C   4,C  11,H  12)          117.1799         0.348076   
     89. A(H  15,C  13,C  16)          109.1587         0.319677   
     90. A(C  11,C  13,C  16)          113.4746         0.369350   
     91. A(H  14,C  13,C  16)          109.1664         0.319670   
     92. A(H  14,C  13,H  15)          104.6688         0.284339   
     93. A(C  11,C  13,H  15)          109.9985         0.326410   
     94. A(C  11,C  13,H  14)          109.9974         0.326403   
     95. A(H  17,C  16,H  18)          106.0341         0.285749   
     96. A(C  13,C  16,H  18)          109.0092         0.320504   
     97. A(C  13,C  16,H  17)          109.0014         0.320506   
     98. A(C  13,C  16,C  19)          113.1154         0.362397   
     99. A(H  18,C  16,C  19)          109.7156         0.321352   
    100. A(H  17,C  16,C  19)          109.7159         0.321354   
    101. A(H  20,C  19,H  35)          107.5945         0.286572   
    102. A(C  16,C  19,H  35)          111.4709         0.322019   
    103. A(H  20,C  19,H  21)          107.3895         0.286264   
    104. A(C  16,C  19,H  21)          111.2929         0.321656   
    105. A(C  16,C  19,H  20)          111.2923         0.321657   
    106. A(H  21,C  19,H  35)          107.5955         0.286571   
    107. A(H  24,C  22,C  25)          109.1967         0.320980   
    108. A(H  23,C  22,C  25)          109.1937         0.320981   
    109. A(C   7,C  22,C  25)          116.9525         0.366723   
    110. A(C   7,C  22,H  24)          108.1850         0.324199   
    111. A(C   7,C  22,H  23)          108.1817         0.324200   
    112. A(H  23,C  22,H  24)          104.3987         0.285461   
    113. A(H  27,C  25,C  28)          109.0342         0.320591   
    114. A(H  26,C  25,C  28)          109.0322         0.320592   
    115. A(C  22,C  25,C  28)          112.6136         0.362309   
    116. A(H  26,C  25,H  27)          106.2204         0.285681   
    117. A(C  22,C  25,H  27)          109.8636         0.321110   
    118. A(C  22,C  25,H  26)          109.8688         0.321110   
    119. A(H  30,C  28,C  31)          109.5714         0.321070   
    120. A(H  29,C  28,C  31)          109.5719         0.321070   
    121. A(C  25,C  28,C  31)          113.1649         0.362336   
    122. A(H  29,C  28,H  30)          105.8722         0.285575   
    123. A(C  25,C  28,H  30)          109.2004         0.320529   
    124. A(C  25,C  28,H  29)          109.1995         0.320529   
    125. A(H  32,C  31,H  33)          107.3876         0.286282   
    126. A(C  28,C  31,H  33)          111.2635         0.321487   
    127. A(C  28,C  31,H  32)          111.2639         0.321487   
    128. A(H  33,C  31,H  36)          107.6006         0.286546   
    129. A(H  32,C  31,H  36)          107.6006         0.286546   
    130. A(C  28,C  31,H  36)          111.5198         0.321799   
    131. L(C   2,C  34,C  37,C  38, 2) 180.1024         0.474688   
    132. L(C   2,C  34,C  37,C  38, 1) 179.7623         0.474688   
    133. A(C  38,C  37,C  42)          118.7612         0.422752   
    134. A(C  34,C  37,C  42)          120.6540         0.418338   
    135. A(C  34,C  37,C  38)          120.5847         0.418339   
    136. A(C  39,C  38,H  45)          120.4826         0.352019   
    137. A(C  37,C  38,H  45)          119.1032         0.348197   
    138. A(C  37,C  38,C  39)          120.4142         0.427676   
    139. A(C  40,C  39,H  47)          120.0423         0.350694   
    140. A(C  38,C  39,H  47)          119.6110         0.351786   
    141. A(C  38,C  39,C  40)          120.3468         0.431241   
    142. A(C  41,C  40,H  43)          120.1434         0.350719   
    143. A(C  39,C  40,H  43)          120.1407         0.350733   
    144. A(C  39,C  40,C  41)          119.7159         0.429800   
    145. A(C  42,C  41,H  44)          119.6113         0.351797   
    146. A(C  40,C  41,H  44)          120.0474         0.350679   
    147. A(C  40,C  41,C  42)          120.3413         0.431238   
    148. A(C  41,C  42,H  46)          120.4626         0.352027   
    149. A(C  37,C  42,H  46)          119.1169         0.348192   
    150. A(C  37,C  42,C  41)          120.4205         0.427689   
    151. A(C  49,C  48,C  53)          118.6845         0.422282   
    152. A(C   0,C  48,C  53)          120.4744         0.418577   
    153. A(C   0,C  48,C  49)          120.8410         0.418643   
    154. A(C  50,C  49,H  56)          120.4158         0.352064   
    155. A(C  48,C  49,H  56)          119.1453         0.348036   
    156. A(C  48,C  49,C  50)          120.4389         0.427531   
    157. A(C  51,C  50,H  58)          120.0354         0.350648   
    158. A(C  49,C  50,H  58)          119.5908         0.351827   
    159. A(C  49,C  50,C  51)          120.3738         0.431252   
    160. A(C  52,C  51,H  54)          120.1525         0.350685   
    161. A(C  50,C  51,H  54)          120.1571         0.350695   
    162. A(C  50,C  51,C  52)          119.6904         0.429705   
    163. A(C  53,C  52,H  55)          119.6044         0.351859   
    164. A(C  51,C  52,H  55)          120.0342         0.350640   
    165. A(C  51,C  52,C  53)          120.3614         0.431281   
    166. A(C  52,C  53,H  57)          120.4811         0.352095   
    167. A(C  48,C  53,H  57)          119.0678         0.347985   
    168. A(C  48,C  53,C  52)          120.4511         0.427503   
    169. D(C  11,C   4,C   3,C   8)    179.9631         0.017651   
    170. D(C   5,C   4,C   3,C   1)    179.9676         0.017651   
    171. D(C   5,C   4,C   3,C   8)     -0.0230         0.017651   
    172. D(C  11,C   4,C   3,C   1)     -0.0464         0.017651   
    173. D(C   6,C   5,C   4,C   3)      0.0220         0.020905   
    174. D(H   9,C   5,C   4,C   3)   -179.9858         0.020905   
    175. D(C   6,C   5,C   4,C  11)   -179.9641         0.020905   
    176. D(H   9,C   5,C   4,C  11)      0.0281         0.020905   
    177. D(C   7,C   6,C   5,C   4)     -0.0036         0.025535   
    178. D(C   7,C   6,C   5,H   9)   -179.9959         0.025535   
    179. D(C   2,C   6,C   5,C   4)    179.9890         0.025535   
    180. D(C   2,C   6,C   5,H   9)     -0.0033         0.025535   
    181. D(C  22,C   7,C   6,C   2)     -0.0043         0.019495   
    182. D(C   8,C   7,C   6,C   2)    179.9934         0.019495   
    183. D(C  22,C   7,C   6,C   5)    179.9882         0.019495   
    184. D(C   8,C   7,C   6,C   5)     -0.0141         0.019495   
    185. D(H  10,C   8,C   7,C   6)   -179.9893         0.026091   
    186. D(H  10,C   8,C   7,C  22)      0.0084         0.026091   
    187. D(C   3,C   8,C   7,C  22)   -179.9896         0.026091   
    188. D(H  10,C   8,C   3,C   4)   -179.9918         0.023325   
    189. D(C   7,C   8,C   3,C   4)      0.0062         0.023325   
    190. D(C   7,C   8,C   3,C   1)   -179.9846         0.023325   
    191. D(C   3,C   8,C   7,C   6)      0.0127         0.026091   
    192. D(H  10,C   8,C   3,C   1)      0.0174         0.023325   
    193. D(C  13,C  11,C   4,C   5)     -0.0173         0.022955   
    194. D(H  12,C  11,C   4,C   5)    179.9787         0.022955   
    195. D(C  13,C  11,C   4,C   3)    179.9973         0.022955   
    196. D(H  12,C  11,C   4,C   3)     -0.0067         0.022955   
    197. D(H  15,C  13,C  11,C   4)     57.1964         0.012898   
    198. D(H  14,C  13,C  11,C   4)    -57.5887         0.012898   
    199. D(H  14,C  13,C  11,H  12)    122.4153         0.012898   
    200. D(C  16,C  13,C  11,C   4)    179.7992         0.012898   
    201. D(H  15,C  13,C  11,H  12)   -122.7996         0.012898   
    202. D(C  16,C  13,C  11,H  12)     -0.1968         0.012898   
    203. D(C  19,C  16,C  13,C  11)    179.9940         0.010818   
    204. D(C  19,C  16,C  13,H  14)     56.9240         0.010818   
    205. D(H  18,C  16,C  13,H  15)   -179.2849         0.010818   
    206. D(H  18,C  16,C  13,H  14)    -65.4207         0.010818   
    207. D(H  18,C  16,C  13,C  11)     57.6494         0.010818   
    208. D(H  17,C  16,C  13,H  15)     65.3991         0.010818   
    209. D(H  17,C  16,C  13,H  14)    179.2634         0.010818   
    210. D(C  19,C  16,C  13,H  15)    -56.9403         0.010818   
    211. D(H  17,C  16,C  13,C  11)    -57.6666         0.010818   
    212. D(H  35,C  19,C  16,H  18)    -58.0583         0.011152   
    213. D(H  35,C  19,C  16,H  17)     58.0522         0.011152   
    214. D(H  35,C  19,C  16,C  13)    179.9921         0.011152   
    215. D(H  21,C  19,C  16,H  18)     62.0696         0.011152   
    216. D(H  21,C  19,C  16,H  17)    178.1801         0.011152   
    217. D(H  21,C  19,C  16,C  13)    -59.8800         0.011152   
    218. D(H  20,C  19,C  16,H  18)   -178.1844         0.011152   
    219. D(H  20,C  19,C  16,H  17)    -62.0739         0.011152   
    220. D(H  20,C  19,C  16,C  13)     59.8659         0.011152   
    221. D(C  25,C  22,C   7,C   8)      0.0453         0.011629   
    222. D(C  25,C  22,C   7,C   6)   -179.9570         0.011629   
    223. D(H  24,C  22,C   7,C   8)   -123.6863         0.011629   
    224. D(H  24,C  22,C   7,C   6)     56.3113         0.011629   
    225. D(H  23,C  22,C   7,C   8)    123.7703         0.011629   
    226. D(H  23,C  22,C   7,C   6)    -56.2321         0.011629   
    227. D(H  27,C  25,C  22,H  23)    -64.9581         0.011071   
    228. D(H  27,C  25,C  22,C   7)     58.2489         0.011071   
    229. D(H  26,C  25,C  22,H  24)     64.9526         0.011071   
    230. D(H  26,C  25,C  22,H  23)    178.5315         0.011071   
    231. D(H  26,C  25,C  22,C   7)    -58.2614         0.011071   
    232. D(C  28,C  25,C  22,H  24)    -56.7928         0.011071   
    233. D(C  28,C  25,C  22,H  23)     56.7861         0.011071   
    234. D(C  28,C  25,C  22,C   7)    179.9932         0.011071   
    235. D(H  27,C  25,C  22,H  24)   -178.5370         0.011071   
    236. D(C  31,C  28,C  25,H  27)    -57.7756         0.010867   
    237. D(C  31,C  28,C  25,C  22)   -179.9890         0.010867   
    238. D(H  30,C  28,C  25,H  27)    179.8923         0.010867   
    239. D(H  30,C  28,C  25,H  26)    -64.5395         0.010867   
    240. D(H  30,C  28,C  25,C  22)     57.6790         0.010867   
    241. D(H  29,C  28,C  25,H  27)     64.5563         0.010867   
    242. D(C  31,C  28,C  25,H  26)     57.7925         0.010867   
    243. D(H  29,C  28,C  25,H  26)   -179.8755         0.010867   
    244. D(H  29,C  28,C  25,C  22)    -57.6570         0.010867   
    245. D(H  36,C  31,C  28,H  30)    -57.8597         0.011080   
    246. D(H  36,C  31,C  28,H  29)     57.8913         0.011080   
    247. D(H  36,C  31,C  28,C  25)   -179.9846         0.011080   
    248. D(H  33,C  31,C  28,H  30)     62.2878         0.011080   
    249. D(H  33,C  31,C  28,H  29)    178.0388         0.011080   
    250. D(H  33,C  31,C  28,C  25)    -59.8371         0.011080   
    251. D(H  32,C  31,C  28,H  30)   -178.0074         0.011080   
    252. D(H  32,C  31,C  28,H  29)    -62.2564         0.011080   
    253. D(H  32,C  31,C  28,C  25)     59.8677         0.011080   
    254. D(C  42,C  37,C   6,C   7)      0.1084         0.001500   
    255. D(C  42,C  37,C   6,C   5)   -179.8966         0.001500   
    256. D(C  38,C  37,C   6,C   7)   -179.9162         0.001500   
    257. D(C  38,C  37,C   6,C   5)      0.0787         0.001500   
    258. D(H  45,C  38,C  37,C  42)   -179.9982         0.022779   
    259. D(H  45,C  38,C  37,C  34)      0.0052         0.022779   
    260. D(C  39,C  38,C  37,C  42)      0.0026         0.022779   
    261. D(C  39,C  38,C  37,C  34)   -179.9940         0.022779   
    262. D(H  47,C  39,C  38,H  45)     -0.0001         0.026099   
    263. D(H  47,C  39,C  38,C  37)    179.9991         0.026099   
    264. D(C  40,C  39,C  38,H  45)    179.9998         0.026099   
    265. D(C  40,C  39,C  38,C  37)     -0.0010         0.026099   
    266. D(H  43,C  40,C  39,H  47)     -0.0008         0.025103   
    267. D(H  43,C  40,C  39,C  38)    179.9993         0.025103   
    268. D(C  41,C  40,C  39,H  47)    179.9994         0.025103   
    269. D(C  41,C  40,C  39,C  38)     -0.0005         0.025103   
    270. D(H  44,C  41,C  40,H  43)     -0.0002         0.025091   
    271. D(H  44,C  41,C  40,C  39)    179.9995         0.025091   
    272. D(C  42,C  41,C  40,H  43)   -179.9994         0.025091   
    273. D(C  42,C  41,C  40,C  39)      0.0003         0.025091   
    274. D(H  46,C  42,C  41,H  44)     -0.0006         0.026110   
    275. D(H  46,C  42,C  41,C  40)    179.9986         0.026110   
    276. D(C  37,C  42,C  41,H  44)   -179.9979         0.026110   
    277. D(C  37,C  42,C  41,C  40)      0.0013         0.026110   
    278. D(H  46,C  42,C  37,C  38)    179.9999         0.022778   
    279. D(H  46,C  42,C  37,C  34)     -0.0035         0.022778   
    280. D(C  41,C  42,C  37,C  38)     -0.0027         0.022778   
    281. D(C  41,C  42,C  37,C  34)    179.9939         0.022778   
    282. D(C  53,C  48,C   3,C   8)     -0.0839         0.001500   
    283. D(C  53,C  48,C   3,C   4)    179.8936         0.001500   
    284. D(C  49,C  48,C   3,C   8)    179.8975         0.001500   
    285. D(C  49,C  48,C   3,C   4)     -0.1250         0.001500   
    286. D(H  56,C  49,C  48,C  53)    179.9963         0.022651   
    287. D(H  56,C  49,C  48,C   0)      0.0021         0.022651   
    288. D(C  50,C  49,C  48,C  53)      0.0009         0.022651   
    289. D(C  50,C  49,C  48,C   0)   -179.9932         0.022651   
    290. D(H  58,C  50,C  49,H  56)      0.0030         0.026143   
    291. D(H  58,C  50,C  49,C  48)    179.9983         0.026143   
    292. D(C  51,C  50,C  49,H  56)   -179.9958         0.026143   
    293. D(C  51,C  50,C  49,C  48)     -0.0005         0.026143   
    294. D(C  52,C  51,C  50,H  58)   -179.9986         0.025069   
    295. D(C  52,C  51,C  50,C  49)      0.0002         0.025069   
    296. D(H  54,C  51,C  50,H  58)     -0.0001         0.025069   
    297. D(H  54,C  51,C  50,C  49)    179.9988         0.025069   
    298. D(H  55,C  52,C  51,H  54)      0.0015         0.025060   
    299. D(H  55,C  52,C  51,C  50)   -179.9999         0.025060   
    300. D(C  53,C  52,C  51,H  54)   -179.9989         0.025060   
    301. D(C  53,C  52,C  51,C  50)     -0.0003         0.025060   
    302. D(H  57,C  53,C  52,H  55)     -0.0001         0.026172   
    303. D(H  57,C  53,C  52,C  51)   -179.9998         0.026172   
    304. D(C  48,C  53,C  52,H  55)   -179.9996         0.026172   
    305. D(C  48,C  53,C  52,C  51)      0.0007         0.026172   
    306. D(H  57,C  53,C  48,C  49)    179.9994         0.022610   
    307. D(H  57,C  53,C  48,C   0)     -0.0064         0.022610   
    308. D(C  52,C  53,C  48,C  49)     -0.0011         0.022610   
    309. D(C  52,C  53,C  48,C   0)    179.9932         0.022610   
    -----------------------------------------------------------------

Number of atoms                         .... 59
Number of degrees of freedom            .... 309

         *************************************************************
         *                GEOMETRY OPTIMIZATION CYCLE   1            *
         *************************************************************
---------------------------------
CARTESIAN COORDINATES (ANGSTROEM)
---------------------------------
  C     -4.058780   -0.114027   -0.000729
  C     -2.837067   -0.037217    0.000458
  C      2.839456    0.025128    0.001303
  C     -1.417730    0.016651    0.000204
  C     -0.712128    1.278604   -0.003269
  C      0.709687    1.211983   -0.002475
  C      1.411298    0.003549    0.000975
  C      0.702255   -1.241266    0.003983
  C     -0.691408   -1.190779    0.003621
  H      1.285445    2.137757   -0.004762
  H     -1.264663   -2.117693    0.006030
  C     -1.396749    2.512534   -0.007530
  H     -2.489374    2.477379   -0.008222
  C     -0.740034    3.860790   -0.011243
  H     -0.071952    3.959921    0.869257
  H     -0.065383    3.951892   -0.887544
  C     -1.737595    5.026485   -0.020436
  H     -2.392913    4.932401   -0.905600
  H     -2.399942    4.940503    0.860321
  C     -1.059047    6.397666   -0.024026
  H     -0.415065    6.523869   -0.911556
  H     -0.422198    6.532067    0.867440
  C      1.476339   -2.542840    0.007434
  H      2.155053   -2.543120   -0.866126
  H      2.153685   -2.539371    0.882056
  C      0.658132   -3.836796    0.009521
  H     -0.005723   -3.860159    0.893279
  H     -0.004355   -3.863766   -0.875166
  C      1.539543   -5.091841    0.012796
  H      2.206455   -5.070185   -0.869111
  H      2.204866   -5.066716    0.895810
  C      0.733887   -6.393511    0.014637
  H      0.084970   -6.463882   -0.875410
  H      0.082960   -6.460115    0.903504
  C      4.061356    0.051700    0.002498
  H     -1.799216    7.213950   -0.030767
  H      1.392930   -7.276874    0.017252
  C      5.489033    0.088671    0.002622
  C      6.175837    1.322543    0.001416
  C      7.570008    1.354492    0.001416
  C      8.304589    0.163225    0.002633
  C      7.634082   -1.065321    0.003864
  C      6.240226   -1.107100    0.003878
  H      9.396716    0.192185    0.002617
  H      8.202215   -1.998703    0.004810
  H      5.600673    2.250353    0.000473
  H      5.715229   -2.064211    0.004815
  H      8.088008    2.316597    0.000461
  C     -5.481361   -0.217167   -0.000792
  C     -6.291506    0.940362   -0.001962
  C     -7.681432    0.829777   -0.001873
  C     -8.291180   -0.430157   -0.000632
  C     -7.498648   -1.583951    0.000528
  C     -6.108081   -1.483701    0.000446
  H     -9.380565   -0.512687   -0.000545
  H     -7.968746   -2.570377    0.001498
  H     -5.815246    1.922629   -0.002861
  H     -5.488129   -2.382218    0.001345
  H     -8.294683    1.734189   -0.002759

----------------------------
CARTESIAN COORDINATES (A.U.)
----------------------------
  NO LB      ZA    FRAG     MASS         X           Y           Z
   0 C     6.0000    0    12.011   -7.669983   -0.215479   -0.001378
   1 C     6.0000    0    12.011   -5.361279   -0.070330    0.000865
   2 C     6.0000    0    12.011    5.365794    0.047486    0.002462
   3 C     6.0000    0    12.011   -2.679121    0.031465    0.000385
   4 C     6.0000    0    12.011   -1.345726    2.416212   -0.006177
   5 C     6.0000    0    12.011    1.341114    2.290315   -0.004677
   6 C     6.0000    0    12.011    2.666966    0.006706    0.001843
   7 C     6.0000    0    12.011    1.327070   -2.345653    0.007526
   8 C     6.0000    0    12.011   -1.306572   -2.250246    0.006843
   9 H     1.0000    0     1.008    2.429140    4.039775   -0.008998
  10 H     1.0000    0     1.008   -2.389867   -4.001860    0.011394
  11 C     6.0000    0    12.011   -2.639472    4.748001   -0.014229
  12 H     1.0000    0     1.008   -4.704235    4.681567   -0.015538
  13 C     6.0000    0    12.011   -1.398462    7.295835   -0.021246
  14 H     1.0000    0     1.008   -0.135969    7.483167    1.642658
  15 H     1.0000    0     1.008   -0.123556    7.467993   -1.677215
  16 C     6.0000    0    12.011   -3.283580    9.498680   -0.038619
  17 H     1.0000    0     1.008   -4.521951    9.320886   -1.711336
  18 H     1.0000    0     1.008   -4.535233    9.336197    1.625771
  19 C     6.0000    0    12.011   -2.001308   12.089837   -0.045402
  20 H     1.0000    0     1.008   -0.784360   12.328325   -1.722592
  21 H     1.0000    0     1.008   -0.797838   12.343818    1.639225
  22 C     6.0000    0    12.011    2.789877   -4.805272    0.014049
  23 H     1.0000    0     1.008    4.072461   -4.805801   -1.636741
  24 H     1.0000    0     1.008    4.069875   -4.798716    1.666845
  25 C     6.0000    0    12.011    1.243690   -7.250493    0.017991
  26 H     1.0000    0     1.008   -0.010815   -7.294643    1.688052
  27 H     1.0000    0     1.008   -0.008229   -7.301460   -1.653824
  28 C     6.0000    0    12.011    2.909315   -9.622185    0.024181
  29 H     1.0000    0     1.008    4.169596   -9.581262   -1.642383
  30 H     1.0000    0     1.008    4.166594   -9.574705    1.692836
  31 C     6.0000    0    12.011    1.386845  -12.081985    0.027659
  32 H     1.0000    0     1.008    0.160570  -12.214966   -1.654286
  33 H     1.0000    0     1.008    0.156772  -12.207847    1.707374
  34 C     6.0000    0    12.011    7.674851    0.097700    0.004721
  35 H     1.0000    0     1.008   -3.400025   13.632390   -0.058142
  36 H     1.0000    0     1.008    2.632257  -13.751299    0.032602
  37 C     6.0000    0    12.011   10.372770    0.167563    0.004955
  38 C     6.0000    0    12.011   11.670641    2.499244    0.002676
  39 C     6.0000    0    12.011   14.305241    2.559620    0.002675
  40 C     6.0000    0    12.011   15.693399    0.308451    0.004975
  41 C     6.0000    0    12.011   14.426324   -2.013166    0.007303
  42 C     6.0000    0    12.011   11.792319   -2.092115    0.007328
  43 H     1.0000    0     1.008   17.757221    0.363176    0.004945
  44 H     1.0000    0     1.008   15.499941   -3.777002    0.009089
  45 H     1.0000    0     1.008   10.583739    4.252552    0.000893
  46 H     1.0000    0     1.008   10.800217   -3.900793    0.009099
  47 H     1.0000    0     1.008   15.284121    4.377734    0.000870
  48 C     6.0000    0    12.011  -10.358271   -0.410386   -0.001496
  49 C     6.0000    0    12.011  -11.889224    1.777027   -0.003708
  50 C     6.0000    0    12.011  -14.515803    1.568051   -0.003539
  51 C     6.0000    0    12.011  -15.668060   -0.812879   -0.001194
  52 C     6.0000    0    12.011  -14.170391   -2.993233    0.000997
  53 C     6.0000    0    12.011  -11.542601   -2.803788    0.000842
  54 H     1.0000    0     1.008  -17.726698   -0.968838   -0.001030
  55 H     1.0000    0     1.008  -15.058748   -4.857308    0.002830
  56 H     1.0000    0     1.008  -10.989222    3.633242   -0.005406
  57 H     1.0000    0     1.008  -10.371061   -4.501739    0.002541
  58 H     1.0000    0     1.008  -15.674678    3.277142   -0.005214

--------------------------------
INTERNAL COORDINATES (ANGSTROEM)
--------------------------------
 C      0   0   0     0.000000000000     0.00000000     0.00000000
 C      1   0   0     1.224126443433     0.00000000     0.00000000
 C      2   1   0     5.676864868464   177.03140915     0.00000000
 C      2   1   3     1.420358645532   178.57449228     1.73877668
 C      4   2   1     1.445826295041   121.38448468   177.19897879
 C      5   4   2     1.423375089311   116.52816424   179.96755751
 C      6   5   4     1.397348470617   122.82193934     0.00000000
 C      7   6   5     1.432590108934   120.19523973     0.00000000
 C      8   7   6     1.394577932782   117.59088971     0.00000000
 H      6   5   4     1.090210974542   119.19545768   180.01422906
 H      9   8   7     1.089860605267   119.66011565   180.01068752
 C      5   4   2     1.411136367371   121.76633426   359.95363882
 H     12   5   4     1.093191043477   117.17994550     0.00000000
 C     12   5   4     1.499693772310   125.00739805   179.99730656
 H     14  12   5     1.109703449874   109.99741929   302.41126797
 H     14  12   5     1.109665334815   109.99854623    57.19641117
 C     14  12   5     1.534294192207   113.47464441   179.79919469
 H     17  14  12     1.105354381134   109.00143726   302.33343419
 H     17  14  12     1.105363751985   109.00917860    57.64935036
 C     17  14  12     1.529895164183   113.11544112   179.99404752
 H     20  17  14     1.103788857462   111.29232654    59.86593035
 H     20  17  14     1.103789630808   111.29292028   300.11999163
 C      8   7   6     1.514368915849   119.59327999   179.98817634
 H     23   8   7     1.106237105759   108.18168280   303.76792127
 H     23   8   7     1.106242671424   108.18500334    56.31132860
 C     23   8   7     1.530943263048   116.95250926   180.04297036
 H     26  23   8     1.105567017383   109.86877713   301.73860173
 H     26  23   8     1.105571084326   109.86361863    58.24894927
 C     26  23   8     1.533634617521   112.61356005   179.99322952
 H     29  26  23     1.105893774928   109.19947972   302.34296274
 H     29  26  23     1.105893380011   109.20043303    57.67897657
 C     29  26  23     1.530826384355   113.16490503   180.01103911
 H     32  29  26     1.103734026067   111.26385321    59.86765382
 H     32  29  26     1.103732869483   111.26351558   300.16286423
 C      3   2   1     1.222189708357   179.38164601   183.49857717
 H     20  17  14     1.101914546728   111.47092752   179.99208124
 H     32  29  26     1.102123076063   111.51983900   180.01536577
 C     35   3   7     1.428155937338   179.75699023   341.42766537
 C     38  35   3     1.412141095159   120.58474753    12.07271998
 C     39  38  35     1.394536324157   120.41417232   180.00598973
 C     40  39  38     1.399545890040   120.34679423     0.00000000
 C     41  40  39     1.399610286834   119.71592610     0.00000000
 C     42  41  40     1.394481562585   120.34131874     0.00000000
 H     41  40  39     1.092511090393   120.14065751   179.99930227
 H     42  41  40     1.092692925615   120.04735498   179.99952415
 H     39  38  35     1.091625860164   119.10319965     0.00000000
 H     43  42  41     1.091643012532   120.46259005   179.99862574
 H     40  39  38     1.092689774159   119.61095409   179.99912119
 C      1   2   4     1.426314715428   179.44811046     8.16152607
 C     49   1   2     1.412873063984   120.84104545   174.53750930
 C     50  49   1     1.394318111783   120.43886245   180.00675065
 C     51  50  49     1.399724353652   120.37375199     0.00000000
 C     52  51  50     1.399767398913   119.69036683     0.00000000
 C     53  52  51     1.394175906037   120.36137841     0.00000000
 H     52  51  50     1.092505904272   120.15711823   179.99875534
 H     53  52  51     1.092716544239   120.03421118   180.00008802
 H     50  49   1     1.091637733331   119.14533143     0.00000000
 H     54  53  52     1.091638126460   120.48110760   180.00024613
 H     51  50  49     1.092720314622   119.59084068   179.99831588

---------------------------
INTERNAL COORDINATES (A.U.)
---------------------------
 C      0   0   0     0.000000000000     0.00000000     0.00000000
 C      1   0   0     2.313263731380     0.00000000     0.00000000
 C      2   1   0    10.727719900675   177.03140915     0.00000000
 C      2   1   3     2.684088852002   178.57449228     1.73877668
 C      4   2   1     2.732215734849   121.38448468   177.19897879
 C      5   4   2     2.689789104643   116.52816424   179.96755751
 C      6   5   4     2.640605923120   122.82193934     0.00000000
 C      7   6   5     2.707202968050   120.19523973     0.00000000
 C      8   7   6     2.635370365368   117.59088971     0.00000000
 H      6   5   4     2.060200170080   119.19545768   180.01422906
 H      9   8   7     2.059538068105   119.66011565   180.01068752
 C      5   4   2     2.666661271947   121.76633426   359.95363882
 H     12   5   4     2.065831684227   117.17994550     0.00000000
 C     12   5   4     2.834010514413   125.00739805   179.99730656
 H     14  12   5     2.097035610129   109.99741929   302.41126797
 H     14  12   5     2.096963583106   109.99854623    57.19641117
 C     14  12   5     2.899395832138   113.47464441   179.79919469
 H     17  14  12     2.088817061272   109.00143726   302.33343419
 H     17  14  12     2.088834769616   109.00917860    57.64935036
 C     17  14  12     2.891082873916   113.11544112   179.99404752
 H     20  17  14     2.085858650278   111.29232654    59.86593035
 H     20  17  14     2.085860111689   111.29292028   300.11999163
 C      8   7   6     2.861742516678   119.59327999   179.98817634
 H     23   8   7     2.090485169067   108.18168280   303.76792127
 H     23   8   7     2.090495686648   108.18500334    56.31132860
 C     23   8   7     2.893063493732   116.95250926   180.04297036
 H     26  23   8     2.089218885550   109.86877713   301.73860173
 H     26  23   8     2.089226570958   109.86361863    58.24894927
 C     26  23   8     2.898149416616   112.61356005   179.99322952
 H     29  26  23     2.089836367821   109.19947972   302.34296274
 H     29  26  23     2.089835621537   109.20043303    57.67897657
 C     29  26  23     2.892842625012   113.16490503   180.01103911
 H     32  29  26     2.085755033957   111.26385321    59.86765382
 H     32  29  26     2.085752848329   111.26351558   300.16286423
 C      3   2   1     2.309603832492   179.38164601   183.49857717
 H     20  17  14     2.082316716301   111.47092752   179.99208124
 H     32  29  26     2.082710779633   111.51983900   180.01536577
 C     35   3   7     2.698823598102   179.75699023   341.42766537
 C     38  35   3     2.668559932306   120.58474753    12.07271998
 C     39  38  35     2.635291736462   120.41417232   180.00598973
 C     40  39  38     2.644758444031   120.34679423     0.00000000
 C     41  40  39     2.644880136334   119.71592610     0.00000000
 C     42  41  40     2.635188252089   120.34131874     0.00000000
 H     41  40  39     2.064546759115   120.14065751   179.99930227
 H     42  41  40     2.064890377885   120.04735498   179.99952415
 H     39  38  35     2.062873916416   119.10319965     0.00000000
 H     43  42  41     2.062906329695   120.46259005   179.99862574
 H     40  39  38     2.064884422496   119.61095409   179.99912119
 C      1   2   4     2.695344192940   179.44811046     8.16152607
 C     49   1   2     2.669943152924   120.84104545   174.53750930
 C     50  49   1     2.634879374836   120.43886245   180.00675065
 C     51  50  49     2.645095691381   120.37375199     0.00000000
 C     52  51  50     2.645177035137   119.69036683     0.00000000
 C     53  52  51     2.634610644921   120.36137841     0.00000000
 H     52  51  50     2.064536958766   120.15711823   179.99875534
 H     53  52  51     2.064935010616   120.03421118   180.00008802
 H     50  49   1     2.062896353451   119.14533143     0.00000000
 H     54  53  52     2.062897096356   120.48110760   180.00024613
 H     51  50  49     2.064942135608   119.59084068   179.99831588

---------------------
BASIS SET INFORMATION
---------------------
There are 2 groups of distinct atoms

 Group   1 Type C   : 17s4p1d contracted to 3s2p1d pattern {881/31/1}
 Group   2 Type H   : 4s1p contracted to 2s1p pattern {31/1}

Atom   0C    basis set group =>   1
Atom   1C    basis set group =>   1
Atom   2C    basis set group =>   1
Atom   3C    basis set group =>   1
Atom   4C    basis set group =>   1
Atom   5C    basis set group =>   1
Atom   6C    basis set group =>   1
Atom   7C    basis set group =>   1
Atom   8C    basis set group =>   1
Atom   9H    basis set group =>   2
Atom  10H    basis set group =>   2
Atom  11C    basis set group =>   1
Atom  12H    basis set group =>   2
Atom  13C    basis set group =>   1
Atom  14H    basis set group =>   2
Atom  15H    basis set group =>   2
Atom  16C    basis set group =>   1
Atom  17H    basis set group =>   2
Atom  18H    basis set group =>   2
Atom  19C    basis set group =>   1
Atom  20H    basis set group =>   2
Atom  21H    basis set group =>   2
Atom  22C    basis set group =>   1
Atom  23H    basis set group =>   2
Atom  24H    basis set group =>   2
Atom  25C    basis set group =>   1
Atom  26H    basis set group =>   2
Atom  27H    basis set group =>   2
Atom  28C    basis set group =>   1
Atom  29H    basis set group =>   2
Atom  30H    basis set group =>   2
Atom  31C    basis set group =>   1
Atom  32H    basis set group =>   2
Atom  33H    basis set group =>   2
Atom  34C    basis set group =>   1
Atom  35H    basis set group =>   2
Atom  36H    basis set group =>   2
Atom  37C    basis set group =>   1
Atom  38C    basis set group =>   1
Atom  39C    basis set group =>   1
Atom  40C    basis set group =>   1
Atom  41C    basis set group =>   1
Atom  42C    basis set group =>   1
Atom  43H    basis set group =>   2
Atom  44H    basis set group =>   2
Atom  45H    basis set group =>   2
Atom  46H    basis set group =>   2
Atom  47H    basis set group =>   2
Atom  48C    basis set group =>   1
Atom  49C    basis set group =>   1
Atom  50C    basis set group =>   1
Atom  51C    basis set group =>   1
Atom  52C    basis set group =>   1
Atom  53C    basis set group =>   1
Atom  54H    basis set group =>   2
Atom  55H    basis set group =>   2
Atom  56H    basis set group =>   2
Atom  57H    basis set group =>   2
Atom  58H    basis set group =>   2
---------------------------------
AUXILIARY/J BASIS SET INFORMATION
---------------------------------
There are 2 groups of distinct atoms

 Group   1 Type C   : 12s5p4d2f1g contracted to 6s4p3d1f1g pattern {711111/2111/211/2/1}
 Group   2 Type H   : 5s2p1d contracted to 3s1p1d pattern {311/2/1}

Atom   0C    basis set group =>   1
Atom   1C    basis set group =>   1
Atom   2C    basis set group =>   1
Atom   3C    basis set group =>   1
Atom   4C    basis set group =>   1
Atom   5C    basis set group =>   1
Atom   6C    basis set group =>   1
Atom   7C    basis set group =>   1
Atom   8C    basis set group =>   1
Atom   9H    basis set group =>   2
Atom  10H    basis set group =>   2
Atom  11C    basis set group =>   1
Atom  12H    basis set group =>   2
Atom  13C    basis set group =>   1
Atom  14H    basis set group =>   2
Atom  15H    basis set group =>   2
Atom  16C    basis set group =>   1
Atom  17H    basis set group =>   2
Atom  18H    basis set group =>   2
Atom  19C    basis set group =>   1
Atom  20H    basis set group =>   2
Atom  21H    basis set group =>   2
Atom  22C    basis set group =>   1
Atom  23H    basis set group =>   2
Atom  24H    basis set group =>   2
Atom  25C    basis set group =>   1
Atom  26H    basis set group =>   2
Atom  27H    basis set group =>   2
Atom  28C    basis set group =>   1
Atom  29H    basis set group =>   2
Atom  30H    basis set group =>   2
Atom  31C    basis set group =>   1
Atom  32H    basis set group =>   2
Atom  33H    basis set group =>   2
Atom  34C    basis set group =>   1
Atom  35H    basis set group =>   2
Atom  36H    basis set group =>   2
Atom  37C    basis set group =>   1
Atom  38C    basis set group =>   1
Atom  39C    basis set group =>   1
Atom  40C    basis set group =>   1
Atom  41C    basis set group =>   1
Atom  42C    basis set group =>   1
Atom  43H    basis set group =>   2
Atom  44H    basis set group =>   2
Atom  45H    basis set group =>   2
Atom  46H    basis set group =>   2
Atom  47H    basis set group =>   2
Atom  48C    basis set group =>   1
Atom  49C    basis set group =>   1
Atom  50C    basis set group =>   1
Atom  51C    basis set group =>   1
Atom  52C    basis set group =>   1
Atom  53C    basis set group =>   1
Atom  54H    basis set group =>   2
Atom  55H    basis set group =>   2
Atom  56H    basis set group =>   2
Atom  57H    basis set group =>   2
Atom  58H    basis set group =>   2


           ************************************************************
           *        Program running with 16 parallel MPI-processes    *
           *              working on a common directory               *
           ************************************************************
------------------------------------------------------------------------------
                           ORCA GTO INTEGRAL CALCULATION
                           -- RI-GTO INTEGRALS CHOSEN --
------------------------------------------------------------------------------
------------------------------------------------------------------------------
                   ___                                                        
                  /   \      - P O W E R E D   B Y -                         
                 /     \                                                     
                 |  |  |   _    _      __       _____    __    __             
                 |  |  |  | |  | |    /  \     |  _  \  |  |  /  |          
                  \  \/   | |  | |   /    \    | | | |  |  | /  /          
                 / \  \   | |__| |  /  /\  \   | |_| |  |  |/  /          
                |  |  |   |  __  | /  /__\  \  |    /   |      \           
                |  |  |   | |  | | |   __   |  |    \   |  |\   \          
                \     /   | |  | | |  |  |  |  | |\  \  |  | \   \       
                 \___/    |_|  |_| |__|  |__|  |_| \__\ |__|  \__/        
                                                                              
                      - O R C A' S   B I G   F R I E N D -                    
                                      &                                       
                       - I N T E G R A L  F E E D E R -                       
                                                                              
 v1 FN, 2020, v2 2021                                                         
------------------------------------------------------------------------------


Reading SHARK input file opt_cc-pVDZ.SHARKINP.tmp ... ok
----------------------
SHARK INTEGRAL PACKAGE
----------------------

Number of atoms                             ...     59
Number of basis functions                   ...    745
Number of shells                            ...    447
Maximum angular momentum                    ...      2
Integral batch strategy                     ... SHARK/LIBINT Hybrid
RI-J (if used) integral strategy            ... SPLIT-RIJ (Revised 2003 algorithm where possible)
Printlevel                                  ...      1
Contraction scheme used                     ... PARTIAL GENERAL contraction
Coulomb Range Separation                    ... NOT USED
Exchange Range Separation                   ... NOT USED
Finite Nucleus Model                        ... NOT USED
Auxiliary Coulomb fitting basis             ... AVAILABLE
   # of basis functions in Aux-J            ...   1789
   # of shells in Aux-J                     ...    595
   Maximum angular momentum in Aux-J        ...      4
Auxiliary J/K fitting basis                 ... NOT available
Auxiliary Correlation fitting basis         ... NOT available
Auxiliary 'external' fitting basis          ... NOT available
Integral threshold                          ...     2.500000e-11
Primitive cut-off                           ...     2.500000e-12
Primitive pair pre-selection threshold      ...     2.500000e-12

Calculating pre-screening integrals         ... done (  0.0 sec) Dimension = 447
Calculating pre-screening integrals (ORCA)  ... done (  0.1 sec) Dimension = 267
Organizing shell pair data                  ... done (  0.2 sec)
Shell pair information
Total number of shell pairs                 ...    100128
Shell pairs after pre-screening             ...     33353
Total number of primitive shell pairs       ...    160072
Primitive shell pairs kept                  ...     44642
          la=0 lb=0:  14328 shell pairs
          la=1 lb=0:  11842 shell pairs
          la=1 lb=1:   2122 shell pairs
          la=2 lb=0:   3572 shell pairs
          la=2 lb=1:   1282 shell pairs
          la=2 lb=2:    207 shell pairs

Calculating one electron integrals          ... done (  0.1 sec)
Calculating RI/J V-Matrix + Cholesky decomp.... done (  0.3 sec)
Calculating Nuclear repulsion               ... done (  0.0 sec) ENN=   2363.850750878803 Eh

SHARK setup successfully completed in   1.3 seconds

Maximum memory used throughout the entire GTOINT-calculation: 47.7 MB


           ************************************************************
           *        Program running with 16 parallel MPI-processes    *
           *              working on a common directory               *
           ************************************************************
-------------------------------------------------------------------------------
                                 ORCA SCF
-------------------------------------------------------------------------------

------------
SCF SETTINGS
------------
Hamiltonian:
 Density Functional     Method          .... DFT(GTOs)
 Exchange Functional    Exchange        .... B88
   X-Alpha parameter    XAlpha          ....  0.666667
   Becke's b parameter  XBeta           ....  0.004200
 Correlation Functional Correlation     .... LYP
 LDA part of GGA corr.  LDAOpt          .... VWN-5
 Gradients option       PostSCFGGA      .... off
 Hybrid DFT is turned on
   Fraction HF Exchange ScalHFX         ....  0.200000
   Scaling of DF-GGA-X  ScalDFX         ....  0.720000
   Scaling of DF-GGA-C  ScalDFC         ....  0.810000
   Scaling of DF-LDA-C  ScalLDAC        ....  1.000000
   Perturbative correction              ....  0.000000
   Density functional embedding theory  .... OFF
   NL short-range parameter             ....  4.800000
 RI-approximation to the Coulomb term is turned on
   Number of AuxJ basis functions       .... 1789
   RIJ-COSX (HFX calculated with COS-X)).... on


General Settings:
 Integral files         IntName         .... opt_cc-pVDZ
 Hartree-Fock type      HFTyp           .... UHF
 Total Charge           Charge          ....    0
 Multiplicity           Mult            ....    2
 Number of Electrons    NEL             ....  209
 Basis Dimension        Dim             ....  565
 Nuclear Repulsion      ENuc            ....   2363.8507508788 Eh

Convergence Acceleration:
 DIIS                   CNVDIIS         .... on
   Start iteration      DIISMaxIt       ....    12
   Startup error        DIISStart       ....  0.200000
   # of expansion vecs  DIISMaxEq       ....     5
   Bias factor          DIISBfac        ....   1.050
   Max. coefficient     DIISMaxC        ....  10.000
 Trust-Rad. Augm. Hess. CNVTRAH         .... auto
   Auto Start mean grad. ratio tolernc. ....  1.125000
   Auto Start start iteration           ....    20
   Auto Start num. interpolation iter.  ....    10
   Max. Number of Micro iterations      ....    16
   Max. Number of Macro iterations      .... Maxiter - #DIIS iter
   Number of Davidson start vectors     ....     2
   Converg. threshold I  (grad. norm)   ....   1.000e-05
   Converg. threshold II (energy diff.) ....   1.000e-08
   Grad. Scal. Fac. for Micro threshold ....   0.100
   Minimum threshold for Micro iter.    ....   0.010
   NR start threshold (gradient norm)   ....   0.001
   Initial trust radius                 ....   0.400
   Minimum AH scaling param. (alpha)    ....   1.000
   Maximum AH scaling param. (alpha)    .... 1000.000
   Orbital update algorithm             .... Taylor
   White noise on init. David. guess    .... on
   Maximum white noise                  ....   0.010
   Quad. conv. algorithm                .... NR
 SOSCF                  CNVSOSCF        .... off
 Level Shifting         CNVShift        .... on
   Level shift para.    LevelShift      ....    0.2500
   Turn off err/grad.   ShiftErr        ....    0.0010
 Zerner damping         CNVZerner       .... off
 Static damping         CNVDamp         .... on
   Fraction old density DampFac         ....    0.7000
   Max. Damping (<1)    DampMax         ....    0.9800
   Min. Damping (>=0)   DampMin         ....    0.0000
   Turn off err/grad.   DampErr         ....    0.1000
 Fernandez-Rico         CNVRico         .... off

SCF Procedure:
 Maximum # iterations   MaxIter         ....   125
 SCF integral mode      SCFMode         .... Direct
   Integral package                     .... SHARK and LIBINT hybrid scheme
 Reset frequency        DirectResetFreq ....    20
 Integral Threshold     Thresh          ....  2.500e-11 Eh
 Primitive CutOff       TCut            ....  2.500e-12 Eh

Convergence Tolerance:
 Convergence Check Mode ConvCheckMode   .... Total+1el-Energy
 Convergence forced     ConvForced      .... 0
 Energy Change          TolE            ....  1.000e-08 Eh
 1-El. energy change                    ....  1.000e-05 Eh
 DIIS Error             TolErr          ....  5.000e-07


Diagonalization of the overlap matrix:
Smallest eigenvalue                        ... 4.689e-05
Time for diagonalization                   ...    0.064 sec
Threshold for overlap eigenvalues          ... 1.000e-08
Number of eigenvalues below threshold      ... 0
Time for construction of square roots      ...    0.063 sec
Total time needed                          ...    0.128 sec

Time for model grid setup =    0.402 sec

------------------------------
INITIAL GUESS: MODEL POTENTIAL
------------------------------
Loading Hartree-Fock densities                     ... done
Calculating cut-offs                               ... done
Initializing the effective Hamiltonian             ... done
Setting up the integral package (SHARK)            ... done
Starting the Coulomb interaction                   ... done (   0.4 sec)
Reading the grid                                   ... done
Mapping shells                                     ... done
Starting the XC term evaluation                    ... done (   0.1 sec)
  promolecular density results
     # of electrons  =    208.987698224
     EX              =   -162.717052793
     EC              =     -6.909370201
     EX+EC           =   -169.626422994
Transforming the Hamiltonian                       ... done (   0.0 sec)
Diagonalizing the Hamiltonian                      ... done (   0.1 sec)
Back transforming the eigenvectors                 ... done (   0.0 sec)
Now organizing SCF variables                       ... done
                      ------------------
                      INITIAL GUESS DONE (   1.3 sec)
                      ------------------
-------------------
DFT GRID GENERATION
-------------------

General Integration Accuracy     IntAcc      ... 4.388
Radial Grid Type                 RadialGrid  ... OptM3 with GC (2021)
Angular Grid (max. ang.)         AngularGrid ... 4 (Lebedev-302)
Angular grid pruning method      GridPruning ... 4 (adaptive)
Weight generation scheme         WeightScheme... Becke
Basis function cutoff            BFCut       ... 1.0000e-11
Integration weight cutoff        WCut        ... 1.0000e-14
Angular grids for H and He will be reduced by one unit
Partially contracted basis set               ... off
Rotationally invariant grid construction     ... off

Total number of grid points                  ...   271672
Total number of batches                      ...     4271
Average number of points per batch           ...       63
Average number of grid points per atom       ...     4605
Time for grid setup =    1.752 sec

--------------------
COSX GRID GENERATION
--------------------

GRIDX 1
-------
General Integration Accuracy     IntAcc      ... 3.816
Radial Grid Type                 RadialGrid  ... OptM3 with GC (2021)
Angular Grid (max. ang.)         AngularGrid ... 1 (Lebedev-50)
Angular grid pruning method      GridPruning ... 4 (adaptive)
Weight generation scheme         WeightScheme... Becke
Basis function cutoff            BFCut       ... 1.0000e-11
Integration weight cutoff        WCut        ... 1.0000e-14
Angular grids for H and He will be reduced by one unit
Partially contracted basis set               ... on
Rotationally invariant grid construction     ... off

Total number of grid points                  ...    34621
Total number of batches                      ...      570
Average number of points per batch           ...       60
Average number of grid points per atom       ...      587
UseSFitting                                  ... on

GRIDX 2
-------
General Integration Accuracy     IntAcc      ... 4.020
Radial Grid Type                 RadialGrid  ... OptM3 with GC (2021)
Angular Grid (max. ang.)         AngularGrid ... 2 (Lebedev-110)
Angular grid pruning method      GridPruning ... 4 (adaptive)
Weight generation scheme         WeightScheme... Becke
Basis function cutoff            BFCut       ... 1.0000e-11
Integration weight cutoff        WCut        ... 1.0000e-14
Angular grids for H and He will be reduced by one unit
Partially contracted basis set               ... on
Rotationally invariant grid construction     ... off

Total number of grid points                  ...    73987
Total number of batches                      ...     1188
Average number of points per batch           ...       62
Average number of grid points per atom       ...     1254
UseSFitting                                  ... on

GRIDX 3
-------
General Integration Accuracy     IntAcc      ... 4.338
Radial Grid Type                 RadialGrid  ... OptM3 with GC (2021)
Angular Grid (max. ang.)         AngularGrid ... 3 (Lebedev-194)
Angular grid pruning method      GridPruning ... 4 (adaptive)
Weight generation scheme         WeightScheme... Becke
Basis function cutoff            BFCut       ... 1.0000e-11
Integration weight cutoff        WCut        ... 1.0000e-14
Angular grids for H and He will be reduced by one unit
Partially contracted basis set               ... on
Rotationally invariant grid construction     ... off

Total number of grid points                  ...   161745
Total number of batches                      ...     2559
Average number of points per batch           ...       63
Average number of grid points per atom       ...     2741
UseSFitting                                  ... on

Time for X-Grid setup             =    2.904 sec

 re-compute Schwartz prescreening matrix in partically contracted basis (1) ...done (   0.127 sec)
--------------
SCF ITERATIONS
--------------
ITER       Energy         Delta-E        Max-DP      RMS-DP      [F,P]     Damp
               ***  Starting incremental Fock matrix formation  ***
  0  -1159.1956952327   0.000000000000 0.07198233  0.00082490  0.0869004 0.7000
  1  -1159.4758973361  -0.280202103422 0.06316889  0.00066550  0.0457773 0.7000
                               ***Turning on DIIS***
  2  -1159.6038670567  -0.127969720570 0.13215395  0.00130979  0.0175415 0.0000
  3  -1159.7875118124  -0.183644755767 0.02869343  0.00034612  0.0248685 0.0000
  4  -1159.8325983907  -0.045086578236 0.01817997  0.00015788  0.0053954 0.0000
  5  -1159.8354046882  -0.002806297526 0.00456616  0.00003509  0.0030308 0.0000
  6  -1159.8357975886  -0.000392900345 0.00339018  0.00001992  0.0023138 0.0000
  7  -1159.8359550992  -0.000157510681 0.00253602  0.00001380  0.0014542 0.0000
  8  -1159.8360410441  -0.000085944905 0.00357801  0.00002484  0.0009708 0.0000
               *** Restarting incremental Fock matrix formation ***
                                   *** Resetting DIIS ***
  9  -1159.8363593108  -0.000318266670 0.00154699  0.00001415  0.0008576 0.0000
 10  -1159.8363460707   0.000013240080 0.00049160  0.00000448  0.0018286 0.0000
 11  -1159.8363702482  -0.000024177491 0.00054211  0.00000416  0.0007391 0.0000
 12  -1159.8363761529  -0.000005904693 0.00065809  0.00000397  0.0002420 0.0000
 13  -1159.8363785553  -0.000002402394 0.00034266  0.00000192  0.0001072 0.0000
 14  -1159.8363791768  -0.000000621522 0.00018530  0.00000150  0.0000795 0.0000
 15  -1159.8363794667  -0.000000289914 0.00005852  0.00000056  0.0000350 0.0000
 16  -1159.8363795198  -0.000000053022 0.00004154  0.00000043  0.0000186 0.0000
 17  -1159.8363795520  -0.000000032227 0.00002742  0.00000026  0.0000127 0.0000
 18  -1159.8363795817  -0.000000029700 0.00001586  0.00000015  0.0000126 0.0000
 19  -1159.8363796130  -0.000000031285 0.00001056  0.00000010  0.0000099 0.0000
 20  -1159.8363796241  -0.000000011123 0.00000980  0.00000008  0.0000041 0.0000
 21  -1159.8363796081   0.000000016023 0.00000628  0.00000005  0.0000022 0.0000
 22  -1159.8363796069   0.000000001170 0.00000588  0.00000005  0.0000016 0.0000
 23  -1159.8363796255  -0.000000018593 0.00001335  0.00000007  0.0000012 0.0000
                 **** Energy Check signals convergence ****

               *****************************************************
               *                     SUCCESS                       *
               *           SCF CONVERGED AFTER  24 CYCLES          *
               *****************************************************

Old exchange energy                            =    -33.145974609 Eh
New exchange energy                            =    -33.146109508 Eh
Exchange energy change after final integration =     -0.000134899 Eh
Total energy after final integration           =  -1159.836514529 Eh
Final COS-X integration done in                =    12.423 sec

----------------
TOTAL SCF ENERGY
----------------

Total Energy       :        -1159.83651453 Eh          -31560.75608 eV

Components:
Nuclear Repulsion  :         2363.85075088 Eh           64323.64908 eV
Electronic Energy  :        -3523.68726541 Eh          -95884.40516 eV
One Electron Energy:        -6262.60486155 Eh         -170414.14197 eV
Two Electron Energy:         2738.91759615 Eh           74529.73681 eV
Max COSX asymmetry :            0.00000063 Eh               0.00002 eV

Virial components:
Potential Energy   :        -2311.74035631 Eh          -62905.65316 eV
Kinetic Energy     :         1151.90384178 Eh           31344.89708 eV
Virial Ratio       :            2.00688658


DFT components:
N(Alpha)           :      105.000155151793 electrons
N(Beta)            :      104.000147123695 electrons
N(Total)           :      209.000302275488 electrons
E(X)               :     -131.491941514093 Eh       
E(C)               :       -8.161219468247 Eh       
E(XC)              :     -139.653160982340 Eh       
DFET-embed. en.    :        0.000000000000 Eh       

---------------
SCF CONVERGENCE
---------------

  Last Energy change         ...   -4.5784e-09  Tolerance :   1.0000e-08
  Last MAX-Density change    ...    0.0000e+00  Tolerance :   1.0000e-07
  Last RMS-Density change    ...    0.0000e+00  Tolerance :   5.0000e-09
  Last DIIS Error            ...    7.5761e-07  Tolerance :   5.0000e-07

             **** THE GBW FILE WAS UPDATED (opt_cc-pVDZ.gbw) ****
             **** DENSITY opt_cc-pVDZ.scfp WAS UPDATED ****
             **** ENERGY FILE WAS UPDATED (opt_cc-pVDZ.en.tmp) ****
----------------------
UHF SPIN CONTAMINATION
----------------------

Warning: in a DFT calculation there is little theoretical justification to 
         calculate <S**2> as in Hartree-Fock theory. We will do it anyways
         but you should keep in mind that the values have only limited relevance

Expectation value of <S**2>     :     0.788789
Ideal value S*(S+1) for S=0.5   :     0.750000
Deviation                       :     0.038789

             **** THE GBW FILE WAS UPDATED (opt_cc-pVDZ.gbw) ****
             **** DENSITY opt_cc-pVDZ.scfp WAS UPDATED ****
----------------
ORBITAL ENERGIES
----------------
                 SPIN UP ORBITALS
  NO   OCC          E(Eh)            E(eV) 
   0   1.0000     -10.215978      -277.9909 
   1   1.0000     -10.214493      -277.9505 
   2   1.0000     -10.212673      -277.9010 
   3   1.0000     -10.210542      -277.8430 
   4   1.0000     -10.200999      -277.5833 
   5   1.0000     -10.196951      -277.4731 
   6   1.0000     -10.196575      -277.4629 
   7   1.0000     -10.196446      -277.4594 
   8   1.0000     -10.195538      -277.4347 
   9   1.0000     -10.195477      -277.4330 
  10   1.0000     -10.195289      -277.4279 
  11   1.0000     -10.195033      -277.4210 
  12   1.0000     -10.194795      -277.4145 
  13   1.0000     -10.194254      -277.3998 
  14   1.0000     -10.193619      -277.3825 
  15   1.0000     -10.193438      -277.3776 
  16   1.0000     -10.193155      -277.3699 
  17   1.0000     -10.191307      -277.3196 
  18   1.0000     -10.188786      -277.2510 
  19   1.0000     -10.188363      -277.2394 
  20   1.0000     -10.187948      -277.2282 
  21   1.0000     -10.187634      -277.2196 
  22   1.0000     -10.186786      -277.1965 
  23   1.0000     -10.186153      -277.1793 
  24   1.0000     -10.185618      -277.1647 
  25   1.0000     -10.183784      -277.1148 
  26   1.0000     -10.181672      -277.0574 
  27   1.0000     -10.181251      -277.0459 
  28   1.0000     -10.177007      -276.9304 
  29   1.0000     -10.175542      -276.8906 
  30   1.0000      -0.872375       -23.7385 
  31   1.0000      -0.862721       -23.4758 
  32   1.0000      -0.861539       -23.4437 
  33   1.0000      -0.819141       -22.2900 
  34   1.0000      -0.798610       -21.7313 
  35   1.0000      -0.796129       -21.6638 
  36   1.0000      -0.781780       -21.2733 
  37   1.0000      -0.772770       -21.0282 
  38   1.0000      -0.765771       -20.8377 
  39   1.0000      -0.750440       -20.4205 
  40   1.0000      -0.749365       -20.3913 
  41   1.0000      -0.737889       -20.0790 
  42   1.0000      -0.726097       -19.7581 
  43   1.0000      -0.709292       -19.3008 
  44   1.0000      -0.696733       -18.9591 
  45   1.0000      -0.656045       -17.8519 
  46   1.0000      -0.645904       -17.5759 
  47   1.0000      -0.623106       -16.9556 
  48   1.0000      -0.613071       -16.6825 
  49   1.0000      -0.608761       -16.5652 
  50   1.0000      -0.608367       -16.5545 
  51   1.0000      -0.607216       -16.5232 
  52   1.0000      -0.590186       -16.0598 
  53   1.0000      -0.579558       -15.7706 
  54   1.0000      -0.560593       -15.2545 
  55   1.0000      -0.540186       -14.6992 
  56   1.0000      -0.534503       -14.5446 
  57   1.0000      -0.506642       -13.7864 
  58   1.0000      -0.503572       -13.7029 
  59   1.0000      -0.479841       -13.0571 
  60   1.0000      -0.478726       -13.0268 
  61   1.0000      -0.474536       -12.9128 
  62   1.0000      -0.470297       -12.7974 
  63   1.0000      -0.461952       -12.5703 
  64   1.0000      -0.457234       -12.4420 
  65   1.0000      -0.455909       -12.4059 
  66   1.0000      -0.436556       -11.8793 
  67   1.0000      -0.434759       -11.8304 
  68   1.0000      -0.430447       -11.7130 
  69   1.0000      -0.428195       -11.6518 
  70   1.0000      -0.425616       -11.5816 
  71   1.0000      -0.423756       -11.5310 
  72   1.0000      -0.422538       -11.4978 
  73   1.0000      -0.421407       -11.4671 
  74   1.0000      -0.411188       -11.1890 
  75   1.0000      -0.397965       -10.8292 
  76   1.0000      -0.397440       -10.8149 
  77   1.0000      -0.383831       -10.4446 
  78   1.0000      -0.381147       -10.3715 
  79   1.0000      -0.377586       -10.2746 
  80   1.0000      -0.374525       -10.1913 
  81   1.0000      -0.364648        -9.9226 
  82   1.0000      -0.361434        -9.8351 
  83   1.0000      -0.359505        -9.7826 
  84   1.0000      -0.355268        -9.6673 
  85   1.0000      -0.353253        -9.6125 
  86   1.0000      -0.350013        -9.5243 
  87   1.0000      -0.348815        -9.4917 
  88   1.0000      -0.339736        -9.2447 
  89   1.0000      -0.332265        -9.0414 
  90   1.0000      -0.331941        -9.0326 
  91   1.0000      -0.330687        -8.9985 
  92   1.0000      -0.327294        -8.9061 
  93   1.0000      -0.323465        -8.8019 
  94   1.0000      -0.321630        -8.7520 
  95   1.0000      -0.305626        -8.3165 
  96   1.0000      -0.278144        -7.5687 
  97   1.0000      -0.271913        -7.3991 
  98   1.0000      -0.267734        -7.2854 
  99   1.0000      -0.266202        -7.2437 
 100   1.0000      -0.258116        -7.0237 
 101   1.0000      -0.257567        -7.0088 
 102   1.0000      -0.235966        -6.4210 
 103   1.0000      -0.208140        -5.6638 
 104   1.0000      -0.169526        -4.6130 
 105   0.0000      -0.063778        -1.7355 
 106   0.0000      -0.026998        -0.7346 
 107   0.0000      -0.009809        -0.2669 
 108   0.0000      -0.008980        -0.2444 
 109   0.0000       0.005699         0.1551 
 110   0.0000       0.019114         0.5201 
 111   0.0000       0.042675         1.1612 
 112   0.0000       0.051457         1.4002 
 113   0.0000       0.054278         1.4770 
 114   0.0000       0.056341         1.5331 
 115   0.0000       0.063281         1.7220 
 116   0.0000       0.064756         1.7621 
 117   0.0000       0.078473         2.1354 
 118   0.0000       0.078873         2.1463 
 119   0.0000       0.080890         2.2011 
 120   0.0000       0.088723         2.4143 
 121   0.0000       0.089874         2.4456 
 122   0.0000       0.096721         2.6319 
 123   0.0000       0.101322         2.7571 
 124   0.0000       0.102580         2.7913 
 125   0.0000       0.103981         2.8295 
[...]
      px      :     0.000319
      py      :     0.000171
      dz2     :    -0.000060  d :    -0.000507
      dxz     :     0.000151
      dyz     :    -0.000127
      dx2y2   :    -0.000400
      dxy     :    -0.000071
 17 H s       :     0.000137  s :     0.000137
      pz      :     0.000033  p :     0.000169
      px      :     0.000079
      py      :     0.000056
 18 H s       :     0.000126  s :     0.000126
      pz      :     0.000033  p :     0.000167
      px      :     0.000077
      py      :     0.000057
 19 C s       :    -0.000174  s :    -0.000174
      pz      :     0.000391  p :     0.000019
      px      :    -0.000061
      py      :    -0.000311
      dz2     :    -0.000004  d :     0.000113
      dxz     :     0.000014
      dyz     :     0.000114
      dx2y2   :     0.000008
      dxy     :    -0.000019
 20 H s       :     0.000209  s :     0.000209
      pz      :     0.000001  p :     0.000037
      px      :     0.000017
      py      :     0.000019
 21 H s       :     0.000209  s :     0.000209
      pz      :     0.000001  p :     0.000038
      px      :     0.000017
      py      :     0.000020
 22 C s       :    -0.001163  s :    -0.001163
      pz      :    -0.000327  p :    -0.005172
      px      :    -0.002167
      py      :    -0.002678
      dz2     :     0.000149  d :     0.008469
      dxz     :     0.004721
      dyz     :     0.003087
      dx2y2   :     0.000214
      dxy     :     0.000298
 23 H s       :     0.007974  s :     0.007974
      pz      :    -0.000075  p :    -0.000190
      px      :    -0.000143
      py      :     0.000028
 24 H s       :     0.007986  s :     0.007986
      pz      :    -0.000075  p :    -0.000190
      px      :    -0.000143
      py      :     0.000028
 25 C s       :     0.000036  s :     0.000036
      pz      :     0.000014  p :     0.000187
      px      :     0.000099
      py      :     0.000074
      dz2     :    -0.000014  d :    -0.000071
      dxz     :     0.000118
      dyz     :    -0.000026
      dx2y2   :    -0.000101
      dxy     :    -0.000048
 26 H s       :     0.000034  s :     0.000034
      pz      :     0.000007  p :     0.000019
      px      :     0.000010
      py      :     0.000002
 27 H s       :     0.000034  s :     0.000034
      pz      :     0.000007  p :     0.000019
      px      :     0.000010
      py      :     0.000002
 28 C s       :    -0.000047  s :    -0.000047
      pz      :     0.000173  p :     0.000064
      px      :    -0.000024
      py      :    -0.000085
      dz2     :    -0.000002  d :    -0.000000
      dxz     :    -0.000003
      dyz     :     0.000012
      dx2y2   :    -0.000001
      dxy     :    -0.000007
 29 H s       :     0.000069  s :     0.000069
      pz      :     0.000001  p :     0.000019
      px      :     0.000005
      py      :     0.000013
 30 H s       :     0.000069  s :     0.000069
      pz      :     0.000001  p :     0.000019
      px      :     0.000005
      py      :     0.000013
 31 C s       :    -0.000009  s :    -0.000009
      pz      :    -0.000001  p :    -0.000045
      px      :    -0.000013
      py      :    -0.000032
      dz2     :    -0.000000  d :     0.000017
      dxz     :     0.000012
      dyz     :     0.000007
      dx2y2   :    -0.000003
      dxy     :     0.000001
 32 H s       :     0.000017  s :     0.000017
      pz      :    -0.000000  p :    -0.000001
      px      :    -0.000000
      py      :    -0.000001
 33 H s       :     0.000017  s :     0.000017
      pz      :    -0.000000  p :    -0.000001
      px      :    -0.000000
      py      :    -0.000001
 34 C s       :    -0.001156  s :    -0.001156
      pz      :    -0.029801  p :    -0.035104
      px      :    -0.000534
      py      :    -0.004768
      dz2     :     0.000124  d :     0.001874
      dxz     :     0.001357
      dyz     :     0.000000
      dx2y2   :     0.000147
      dxy     :     0.000246
 35 H s       :    -0.000130  s :    -0.000130
      pz      :     0.000032  p :     0.000020
      px      :     0.000003
      py      :    -0.000015
 36 H s       :    -0.000004  s :    -0.000004
      pz      :    -0.000000  p :    -0.000003
      px      :    -0.000001
      py      :    -0.000002
 37 C s       :     0.000436  s :     0.000436
      pz      :     0.005797  p :     0.006852
      px      :     0.000757
      py      :     0.000298
      dz2     :    -0.000039  d :    -0.002315
      dxz     :    -0.001707
      dyz     :    -0.000178
      dx2y2   :    -0.000116
      dxy     :    -0.000275
 38 C s       :    -0.000346  s :    -0.000346
      pz      :    -0.008268  p :    -0.008797
      px      :    -0.000266
      py      :    -0.000263
      dz2     :     0.000033  d :     0.000472
      dxz     :     0.000209
      dyz     :     0.000131
      dx2y2   :     0.000050
      dxy     :     0.000049
 39 C s       :     0.000192  s :     0.000192
      pz      :     0.003762  p :     0.004150
      px      :     0.000223
      py      :     0.000166
      dz2     :    -0.000019  d :    -0.000836
      dxz     :    -0.000574
      dyz     :    -0.000172
      dx2y2   :    -0.000034
      dxy     :    -0.000037
 40 C s       :    -0.000308  s :    -0.000308
      pz      :    -0.008798  p :    -0.009234
      px      :    -0.000201
      py      :    -0.000235
      dz2     :     0.000038  d :     0.000331
      dxz     :     0.000041
      dyz     :     0.000192
      dx2y2   :     0.000030
      dxy     :     0.000029
 41 C s       :     0.000192  s :     0.000192
      pz      :     0.003757  p :     0.004145
      px      :     0.000217
      py      :     0.000171
      dz2     :    -0.000019  d :    -0.000835
      dxz     :    -0.000545
      dyz     :    -0.000201
      dx2y2   :    -0.000035
      dxy     :    -0.000036
 42 C s       :    -0.000345  s :    -0.000345
      pz      :    -0.008261  p :    -0.008786
      px      :    -0.000271
      py      :    -0.000255
      dz2     :     0.000033  d :     0.000472
      dxz     :     0.000222
      dyz     :     0.000119
      dx2y2   :     0.000053
      dxy     :     0.000045
 43 H s       :     0.000279  s :     0.000279
      pz      :    -0.000269  p :    -0.000312
      px      :    -0.000038
      py      :    -0.000005
 44 H s       :    -0.000121  s :    -0.000121
      pz      :     0.000108  p :     0.000133
      px      :     0.000010
      py      :     0.000014
 45 H s       :     0.000258  s :     0.000258
      pz      :    -0.000223  p :    -0.000268
      px      :    -0.000014
      py      :    -0.000031
 46 H s       :     0.000253  s :     0.000253
      pz      :    -0.000223  p :    -0.000268
      px      :    -0.000012
      py      :    -0.000033
 47 H s       :    -0.000121  s :    -0.000121
      pz      :     0.000109  p :     0.000133
      px      :     0.000010
      py      :     0.000015
 48 C s       :    -0.000947  s :    -0.000947
      pz      :    -0.012484  p :    -0.014794
      px      :    -0.001619
      py      :    -0.000691
      dz2     :     0.000083  d :     0.005096
      dxz     :     0.003865
      dyz     :     0.000432
      dx2y2   :     0.000257
      dxy     :     0.000459
 49 C s       :     0.000778  s :     0.000778
      pz      :     0.019498  p :     0.020652
      px      :     0.000602
      py      :     0.000552
      dz2     :    -0.000081  d :    -0.001059
      dxz     :    -0.000523
      dyz     :    -0.000232
      dx2y2   :    -0.000127
      dxy     :    -0.000097
 50 C s       :    -0.000458  s :    -0.000458
      pz      :    -0.008834  p :    -0.009766
      px      :    -0.000512
      py      :    -0.000420
      dz2     :     0.000044  d :     0.002012
      dxz     :     0.001237
      dyz     :     0.000567
      dx2y2   :     0.000084
      dxy     :     0.000081
 51 C s       :     0.000746  s :     0.000746
      pz      :     0.021369  p :     0.022420
      px      :     0.000486
      py      :     0.000565
      dz2     :    -0.000093  d :    -0.000781
      dxz     :    -0.000093
      dyz     :    -0.000450
      dx2y2   :    -0.000073
      dxy     :    -0.000072
 52 C s       :    -0.000458  s :    -0.000458
      pz      :    -0.008818  p :    -0.009750
      px      :    -0.000548
      py      :    -0.000384
      dz2     :     0.000044  d :     0.002015
      dxz     :     0.001443
      dyz     :     0.000362
      dx2y2   :     0.000080
      dxy     :     0.000087
 53 C s       :     0.000776  s :     0.000776
      pz      :     0.019550  p :     0.020712
      px      :     0.000566
      py      :     0.000596
      dz2     :    -0.000081  d :    -0.001058
      dxz     :    -0.000442
      dyz     :    -0.000311
      dx2y2   :    -0.000107
      dxy     :    -0.000117
 54 H s       :    -0.000678  s :    -0.000678
      pz      :     0.000658  p :     0.000763
      px      :     0.000093
      py      :     0.000012
 55 H s       :     0.000280  s :     0.000280
      pz      :    -0.000255  p :    -0.000313
      px      :    -0.000022
      py      :    -0.000035
 56 H s       :    -0.000611  s :    -0.000611
      pz      :     0.000532  p :     0.000634
      px      :     0.000025
      py      :     0.000077
 57 H s       :    -0.000616  s :    -0.000616
      pz      :     0.000533  p :     0.000636
      px      :     0.000035
      py      :     0.000067
 58 H s       :     0.000280  s :     0.000280
      pz      :    -0.000256  p :    -0.000313
      px      :    -0.000025
      py      :    -0.000033


                      *****************************
                      * MAYER POPULATION ANALYSIS *
                      *****************************

  NA   - Mulliken gross atomic population
  ZA   - Total nuclear charge
  QA   - Mulliken gross atomic charge
  VA   - Mayer's total valence
  BVA  - Mayer's bonded valence
  FA   - Mayer's free valence

  ATOM       NA         ZA         QA         VA         BVA        FA
  0 C      5.8599     6.0000     0.1401     2.6171     2.6111     0.0060
  1 C      5.7183     6.0000     0.2817     2.4659     2.4637     0.0022
  2 C      5.7293     6.0000     0.2707     2.5192     2.5186     0.0006
  3 C      6.1787     6.0000    -0.1787     3.7512     3.7170     0.0341
  4 C      5.9280     6.0000     0.0720     4.1406     4.1255     0.0150
  5 C      6.0279     6.0000    -0.0279     3.8705     3.8358     0.0346
  6 C      6.1432     6.0000    -0.1432     3.8259     3.8189     0.0070
  7 C      6.0866     6.0000    -0.0866     4.1464     4.1096     0.0368
  8 C      5.9912     6.0000     0.0088     3.9056     3.8976     0.0080
  9 H      1.0544     1.0000    -0.0544     1.0031     1.0030     0.0001
 10 H      1.0557     1.0000    -0.0557     1.0036     1.0036     0.0000
 11 C      6.1003     6.0000    -0.1003     3.9300     3.5663     0.3637
 12 H      1.0265     1.0000    -0.0265     1.0085     1.0073     0.0012
 13 C      5.9651     6.0000     0.0349     4.0098     4.0083     0.0014
 14 H      0.9711     1.0000     0.0289     0.9626     0.9616     0.0011
 15 H      0.9710     1.0000     0.0290     0.9626     0.9616     0.0011
 16 C      6.0387     6.0000    -0.0387     4.1313     4.1313     0.0000
 17 H      0.9878     1.0000     0.0122     0.9641     0.9641     0.0000
 18 H      0.9878     1.0000     0.0122     0.9640     0.9640     0.0000
 19 C      5.9933     6.0000     0.0067     4.0162     4.0162     0.0000
 20 H      0.9826     1.0000     0.0174     0.9775     0.9775     0.0000
 21 H      0.9826     1.0000     0.0174     0.9775     0.9775     0.0000
 22 C      5.9600     6.0000     0.0400     4.0305     4.0303     0.0002
 23 H      0.9683     1.0000     0.0317     0.9689     0.9688     0.0001
 24 H      0.9683     1.0000     0.0317     0.9689     0.9688     0.0001
 25 C      6.0339     6.0000    -0.0339     4.1143     4.1143     0.0000
 26 H      0.9834     1.0000     0.0166     0.9630     0.9630     0.0000
 27 H      0.9834     1.0000     0.0166     0.9630     0.9630     0.0000
 28 C      6.0243     6.0000    -0.0243     4.1172     4.1172     0.0000
 29 H      0.9948     1.0000     0.0052     0.9674     0.9674     0.0000
 30 H      0.9948     1.0000     0.0052     0.9674     0.9674     0.0000
 31 C      5.9960     6.0000     0.0040     4.0169     4.0169     0.0000
 32 H      0.9830     1.0000     0.0170     0.9773     0.9773     0.0000
 33 H      0.9830     1.0000     0.0170     0.9773     0.9773     0.0000
 34 C      5.8730     6.0000     0.1270     2.6485     2.6472     0.0013
 35 H      0.9869     1.0000     0.0131     0.9732     0.9732     0.0000
 36 H      0.9877     1.0000     0.0123     0.9734     0.9734     0.0000
 37 C      6.2555     6.0000    -0.2555     3.9283     3.9282     0.0001
 38 C      5.9693     6.0000     0.0307     3.9947     3.9946     0.0001
 39 C      5.9591     6.0000     0.0409     3.9986     3.9986     0.0000
 40 C      5.9666     6.0000     0.0334     3.9988     3.9987     0.0001
 41 C      5.9596     6.0000     0.0404     3.9985     3.9985     0.0000
 42 C      5.9713     6.0000     0.0287     3.9933     3.9932     0.0001
 43 H      1.0277     1.0000    -0.0277     0.9687     0.9687     0.0000
 44 H      1.0277     1.0000    -0.0277     0.9684     0.9684     0.0000
 45 H      1.0408     1.0000    -0.0408     0.9836     0.9836     0.0000
 46 H      1.0398     1.0000    -0.0398     0.9832     0.9832     0.0000
 47 H      1.0276     1.0000    -0.0276     0.9684     0.9684     0.0000
 48 C      6.2588     6.0000    -0.2588     3.9300     3.9297     0.0003
 49 C      5.9743     6.0000     0.0257     3.9939     3.9933     0.0005
 50 C      5.9596     6.0000     0.0404     3.9988     3.9987     0.0001
 51 C      5.9670     6.0000     0.0330     3.9977     3.9971     0.0006
 52 C      5.9589     6.0000     0.0411     3.9989     3.9987     0.0001
 53 C      5.9693     6.0000     0.0307     3.9935     3.9930     0.0005
 54 H      1.0283     1.0000    -0.0283     0.9687     0.9687     0.0000
 55 H      1.0282     1.0000    -0.0282     0.9682     0.9682     0.0000
 56 H      1.0397     1.0000    -0.0397     0.9812     0.9812     0.0000
 57 H      1.0415     1.0000    -0.0415     0.9837     0.9837     0.0000
 58 H      1.0285     1.0000    -0.0285     0.9684     0.9684     0.0000

  Mayer bond orders larger than 0.100000
B(  0-C ,  1-C ) :   1.7104 B(  0-C , 48-C ) :   0.9334 B(  1-C ,  3-C ) :   0.8742 
B(  1-C , 48-C ) :  -0.1833 B(  2-C ,  6-C ) :   0.8748 B(  2-C , 34-C ) :   1.7519 
B(  2-C , 37-C ) :  -0.1771 B(  3-C ,  4-C ) :   1.2776 B(  3-C ,  8-C ) :   1.3995 
B(  4-C ,  5-C ) :   1.2897 B(  4-C , 11-C ) :   1.3815 B(  5-C ,  6-C ) :   1.4491 
B(  5-C ,  9-H ) :   0.9176 B(  6-C ,  7-C ) :   1.3430 B(  7-C ,  8-C ) :   1.4279 
B(  7-C , 22-C ) :   1.0957 B(  8-C , 10-H ) :   0.9199 B( 11-C , 12-H ) :   0.8983 
B( 11-C , 13-C ) :   1.0841 B( 13-C , 14-H ) :   0.9115 B( 13-C , 15-H ) :   0.9114 
B( 13-C , 16-C ) :   1.0716 B( 16-C , 17-H ) :   0.9437 B( 16-C , 18-H ) :   0.9437 
B( 16-C , 19-C ) :   1.1066 B( 19-C , 20-H ) :   0.9653 B( 19-C , 21-H ) :   0.9653 
B( 19-C , 35-H ) :   0.9608 B( 22-C , 23-H ) :   0.8957 B( 22-C , 24-H ) :   0.8957 
B( 22-C , 25-C ) :   1.1045 B( 25-C , 26-H ) :   0.9292 B( 25-C , 27-H ) :   0.9292 
B( 25-C , 28-C ) :   1.0748 B( 28-C , 29-H ) :   0.9409 B( 28-C , 30-H ) :   0.9409 
B( 28-C , 31-C ) :   1.1062 B( 31-C , 32-H ) :   0.9662 B( 31-C , 33-H ) :   0.9662 
B( 31-C , 36-H ) :   0.9617 B( 34-C , 37-C ) :   0.9307 B( 37-C , 38-C ) :   1.4428 
B( 37-C , 42-C ) :   1.4388 B( 38-C , 39-C ) :   1.4700 B( 38-C , 45-H ) :   0.9401 
B( 39-C , 40-C ) :   1.4443 B( 39-C , 47-H ) :   0.9380 B( 40-C , 41-C ) :   1.4438 
B( 40-C , 43-H ) :   0.9433 B( 41-C , 42-C ) :   1.4702 B( 41-C , 44-H ) :   0.9380 
B( 42-C , 46-H ) :   0.9405 B( 48-C , 49-C ) :   1.4365 B( 48-C , 53-C ) :   1.4390 
B( 49-C , 50-C ) :   1.4712 B( 49-C , 56-H ) :   0.9405 B( 50-C , 51-C ) :   1.4425 
B( 50-C , 58-H ) :   0.9379 B( 51-C , 52-C ) :   1.4424 B( 51-C , 54-H ) :   0.9433 
B( 52-C , 53-C ) :   1.4723 B( 52-C , 55-H ) :   0.9378 B( 53-C , 57-H ) :   0.9399 


-------
TIMINGS
-------

Total SCF time: 0 days 0 hours 1 min 13 sec 

Total time                  ....      73.782 sec
Sum of individual times     ....      69.679 sec  ( 94.4%)

Fock matrix formation       ....      62.344 sec  ( 84.5%)
  Split-RI-J                ....       4.620 sec  (  7.4% of F)
  Chain of spheres X        ....      44.216 sec  ( 70.9% of F)
  XC integration            ....      10.311 sec  ( 16.5% of F)
    Basis function eval.    ....       0.987 sec  (  9.6% of XC)
    Density eval.           ....       1.154 sec  ( 11.2% of XC)
    XC-Functional eval.     ....       0.247 sec  (  2.4% of XC)
    XC-Potential eval.      ....       0.596 sec  (  5.8% of XC)
Diagonalization             ....       1.283 sec  (  1.7%)
Density matrix formation    ....       0.148 sec  (  0.2%)
Population analysis         ....       0.440 sec  (  0.6%)
Initial guess               ....       0.260 sec  (  0.4%)
Orbital Transformation      ....       0.000 sec  (  0.0%)
Orbital Orthonormalization  ....       0.202 sec  (  0.3%)
DIIS solution               ....       0.630 sec  (  0.9%)
Grid generation             ....       4.573 sec  (  6.2%)

Maximum memory used throughout the entire SCF-calculation: 160.9 MB

-------------------------   --------------------
FINAL SINGLE POINT ENERGY     -1159.836514582877
-------------------------   --------------------

                                *** OPTIMIZATION RUN DONE ***

                            ***************************************
                            *     ORCA property calculations      *
                            ***************************************

                                    ---------------------
                                    Active property flags
                                    ---------------------
   (+) Dipole Moment


------------------------------------------------------------------------------
                       ORCA ELECTRIC PROPERTIES CALCULATION
------------------------------------------------------------------------------

Dipole Moment Calculation                       ... on
Quadrupole Moment Calculation                   ... off
Polarizability Calculation                      ... off
GBWName                                         ... opt_cc-pVDZ.gbw
Electron density                                ... opt_cc-pVDZ.scfp
The origin for moment calculation is the CENTER OF MASS  = (-0.025211, -0.091025 -0.000147)

-------------
DIPOLE MOMENT
-------------
                                X             Y             Z
Electronic contribution:     -0.50664       2.18362       0.02571
Nuclear contribution   :      0.63614      -2.16497      -0.02623
                        -----------------------------------------
Total Dipole Moment    :      0.12950       0.01865      -0.00051
                        -----------------------------------------
Magnitude (a.u.)       :      0.13084
Magnitude (Debye)      :      0.33257



--------------------
Rotational spectrum 
--------------------
 
Rotational constants in cm-1:     0.005965     0.001994     0.001497 
Rotational constants in MHz :   178.839864    59.767525    44.884240 

 Dipole components along the rotational axes: 
x,y,z [a.u.] :     0.128196     0.026168    -0.000503 
x,y,z [Debye]:     0.325849     0.066514    -0.001279 

 

Timings for individual modules:

Sum of individual times         ...      310.823 sec (=   5.180 min)
GTO integral calculation        ...        7.034 sec (=   0.117 min)   2.3 %
SCF iterations                  ...      272.299 sec (=   4.538 min)  87.6 %
SCF Gradient evaluation         ...       30.382 sec (=   0.506 min)   9.8 %
Geometry relaxation             ...        1.108 sec (=   0.018 min)   0.4 %
                             ****ORCA TERMINATED NORMALLY****
TOTAL RUN TIME: 0 days 0 hours 5 minutes 15 seconds 439 msec
