
                                 *****************
                                 * O   R   C   A *
                                 *****************

                                            #,                                       
                                            ###                                      
                                            ####                                     
                                            #####                                    
                                            ######                                   
                                           ########,                                 
                                     ,,################,,,,,                         
                               ,,#################################,,                 
                          ,,##########################################,,             
                       ,#########################################, ''#####,          
                    ,#############################################,,   '####,        
                  ,##################################################,,,,####,       
                ,###########''''           ''''###############################       
              ,#####''   ,,,,##########,,,,          '''####'''          '####       
            ,##' ,,,,###########################,,,                        '##       
           ' ,,###''''                  '''############,,,                           
         ,,##''                                '''############,,,,        ,,,,,,###''
      ,#''                                            '''#######################'''  
     '                                                          ''''####''''         
             ,#######,   #######,   ,#######,      ##                                
            ,#'     '#,  ##    ##  ,#'     '#,    #''#        ######   ,####,        
            ##       ##  ##   ,#'  ##            #'  '#       #        #'  '#        
            ##       ##  #######   ##           ,######,      #####,   #    #        
            '#,     ,#'  ##    ##  '#,     ,#' ,#      #,         ##   #,  ,#        
             '#######'   ##     ##  '#######'  #'      '#     #####' # '####'        



                  #######################################################
                  #                        -***-                        #
                  #          Department of theory and spectroscopy      #
                  #    Directorship and core code : Frank Neese         #
                  #        Max Planck Institute fuer Kohlenforschung    #
                  #                Kaiser Wilhelm Platz 1               #
                  #                 D-45470 Muelheim/Ruhr               #
                  #                      Germany                        #
                  #                                                     #
                  #                  All rights reserved                #
                  #                        -***-                        #
                  #######################################################


                         Program Version 5.0.4 -  RELEASE  -


 With contributions from (in alphabetic order):
   Daniel Aravena         : Magnetic Suceptibility
   Michael Atanasov       : Ab Initio Ligand Field Theory (pilot matlab implementation)
   Alexander A. Auer      : GIAO ZORA, VPT2 properties, NMR spectrum
   Ute Becker             : Parallelization
   Giovanni Bistoni       : ED, misc. LED, open-shell LED, HFLD
   Martin Brehm           : Molecular dynamics
   Dmytro Bykov           : SCF Hessian
   Vijay G. Chilkuri      : MRCI spin determinant printing, contributions to CSF-ICE
   Dipayan Datta          : RHF DLPNO-CCSD density
   Achintya Kumar Dutta   : EOM-CC, STEOM-CC
   Dmitry Ganyushin       : Spin-Orbit,Spin-Spin,Magnetic field MRCI
   Miquel Garcia          : C-PCM and meta-GGA Hessian, CC/C-PCM, Gaussian charge scheme
   Yang Guo               : DLPNO-NEVPT2, F12-NEVPT2, CIM, IAO-localization
   Andreas Hansen         : Spin unrestricted coupled pair/coupled cluster methods
   Benjamin Helmich-Paris : MC-RPA, TRAH-SCF, COSX integrals
   Lee Huntington         : MR-EOM, pCC
   Robert Izsak           : Overlap fitted RIJCOSX, COSX-SCS-MP3, EOM
   Marcus Kettner         : VPT2
   Christian Kollmar      : KDIIS, OOCD, Brueckner-CCSD(T), CCSD density, CASPT2, CASPT2-K
   Simone Kossmann        : Meta GGA functionals, TD-DFT gradient, OOMP2, MP2 Hessian
   Martin Krupicka        : Initial AUTO-CI
   Lucas Lang             : DCDCAS
   Marvin Lechner         : AUTO-CI (C++ implementation), FIC-MRCC
   Dagmar Lenk            : GEPOL surface, SMD
   Dimitrios Liakos       : Extrapolation schemes; Compound Job, initial MDCI parallelization
   Dimitrios Manganas     : Further ROCIS development; embedding schemes
   Dimitrios Pantazis     : SARC Basis sets
   Anastasios Papadopoulos: AUTO-CI, single reference methods and gradients
   Taras Petrenko         : DFT Hessian,TD-DFT gradient, ASA, ECA, R-Raman, ABS, FL, XAS/XES, NRVS
   Peter Pinski           : DLPNO-MP2, DLPNO-MP2 Gradient
   Christoph Reimann      : Effective Core Potentials
   Marius Retegan         : Local ZFS, SOC
   Christoph Riplinger    : Optimizer, TS searches, QM/MM, DLPNO-CCSD(T), (RO)-DLPNO pert. Triples
   Tobias Risthaus        : Range-separated hybrids, TD-DFT gradient, RPA, STAB
   Michael Roemelt        : Original ROCIS implementation
   Masaaki Saitow         : Open-shell DLPNO-CCSD energy and density
   Barbara Sandhoefer     : DKH picture change effects
   Avijit Sen             : IP-ROCIS
   Kantharuban Sivalingam : CASSCF convergence, NEVPT2, FIC-MRCI
   Bernardo de Souza      : ESD, SOC TD-DFT
   Georgi Stoychev        : AutoAux, RI-MP2 NMR, DLPNO-MP2 response
   Willem Van den Heuvel  : Paramagnetic NMR
   Boris Wezisla          : Elementary symmetry handling
   Frank Wennmohs         : Technical directorship


 We gratefully acknowledge several colleagues who have allowed us to
 interface, adapt or use parts of their codes:
   Stefan Grimme, W. Hujo, H. Kruse, P. Pracht,  : VdW corrections, initial TS optimization,
                  C. Bannwarth, S. Ehlert          DFT functionals, gCP, sTDA/sTD-DF
   Ed Valeev, F. Pavosevic, A. Kumar             : LibInt (2-el integral package), F12 methods
   Garnet Chan, S. Sharma, J. Yang, R. Olivares  : DMRG
   Ulf Ekstrom                                   : XCFun DFT Library
   Mihaly Kallay                                 : mrcc  (arbitrary order and MRCC methods)
   Jiri Pittner, Ondrej Demel                    : Mk-CCSD
   Frank Weinhold                                : gennbo (NPA and NBO analysis)
   Christopher J. Cramer and Donald G. Truhlar   : smd solvation model
   Lars Goerigk                                  : TD-DFT with DH, B97 family of functionals
   V. Asgeirsson, H. Jonsson                     : NEB implementation
   FAccTs GmbH                                   : IRC, NEB, NEB-TS, DLPNO-Multilevel, CI-OPT
                                                   MM, QMMM, 2- and 3-layer-ONIOM, Crystal-QMMM,
                                                   LR-CPCM, SF, NACMEs, symmetry and pop. for TD-DFT,
                                                   nearIR, NL-DFT gradient (VV10), updates on ESD,
                                                   ML-optimized integration grids
   S Lehtola, MJT Oliveira, MAL Marques          : LibXC Library
   Liviu Ungur et al                             : ANISO software


 Your calculation uses the libint2 library for the computation of 2-el integrals
 For citations please refer to: http://libint.valeyev.net

 Your ORCA version has been built with support for libXC version: 5.1.0
 For citations please refer to: https://tddft.org/programs/libxc/

 This ORCA versions uses:
   CBLAS   interface :  Fast vector & matrix operations
   LAPACKE interface :  Fast linear algebra routines
   SCALAPACK package :  Parallel linear algebra routines
   Shared memory     :  Shared parallel matrices
   BLAS/LAPACK       :  OpenBLAS 0.3.15  USE64BITINT DYNAMIC_ARCH NO_AFFINITY SkylakeX SINGLE_THREADED
        Core in use  :  SkylakeX
   Copyright (c) 2011-2014, The OpenBLAS Project




***************************************
The coordinates will be read from file: opt_cc-pVDZ.xyz
***************************************


================================================================================

----- Orbital basis set information -----
Your calculation utilizes the basis: cc-pVDZ 
       H, B-Ne : Obtained from the ccRepo (grant-hill.group.shef.ac.uk/ccrepo) Feb. 2017
                 T. H. Dunning, Jr., J. Chem. Phys. 90, 1007 (1989)
            He : Obtained from the ccRepo (grant-hill.group.shef.ac.uk/ccrepo) Feb. 2017
                 D. E. Woon, T. H. Dunning, Jr., J. Chem. Phys. 100, 2975 (1994)
  Li-Be, Na-Mg : Obtained from the ccRepo (grant-hill.group.shef.ac.uk/ccrepo) Feb. 2017
                 B. P. Prascher, D. E. Woon, K. A. Peterson, T. H. Dunning, Jr., A. K. Wilson, Theor. Chem. Acc. 128, 69 (2011)
         Al-Ar : Obtained from the ccRepo (grant-hill.group.shef.ac.uk/ccrepo) Feb. 2017
                 D. E. Woon, T. H. Dunning, Jr., J. Chem. Phys. 98, 1358 (1993)
            Ca : Obtained from the Peterson Research Group Website (tyr0.chem.wsu.edu/~kipeters) Feb. 2017
                 J. Koput, K. A. Peterson, J. Phys. Chem. 106, 9595 (2002)
         Sc-Zn : Obtained from the ccRepo (grant-hill.group.shef.ac.uk/ccrepo) Feb. 2017
                 N. B. Balabanov, K. A. Peterson, J. Chem. Phys. 123, 064107 (2005)
                 N. B. Balabanov, K. A. Peterson, J. Chem. Phys. 125, 074110 (2006)
         Ga-Kr : Obtained from the ccRepo (grant-hill.group.shef.ac.uk/ccrepo) Feb. 2017
                 A. K. Wilson, D. E. Woon, K. A. Peterson, T. H. Dunning, Jr., J. Chem. Phys. 110, 7667 (1999)

----- AuxJ basis set information -----
Your calculation utilizes the AutoAux generation procedure.
  G. L. Stoychev, A. A. Auer, F. Neese, J. Chem. Theory Comput. 13, 554 (2017)

----- AuxC basis set information -----
Your calculation utilizes the AutoAux generation procedure.
  G. L. Stoychev, A. A. Auer, F. Neese, J. Chem. Theory Comput. 13, 554 (2017)

----- AuxJK basis set information -----
Your calculation utilizes the AutoAux generation procedure.
  G. L. Stoychev, A. A. Auer, F. Neese, J. Chem. Theory Comput. 13, 554 (2017)

================================================================================
                                        WARNINGS
                       Please study these warnings very carefully!
================================================================================

WARNING: Old DensityContainer found on disk!
         Will remove this file - 
         If you want to keep old densities, please start your calculation with a different basename. 


WARNING: your system is open-shell and RHF/RKS was chosen
  ===> : WILL SWITCH to UHF/UKS


INFO   : the flag for use of the SHARK integral package has been found!

================================================================================
                                       INPUT FILE
================================================================================
NAME = cc-pVDZ_i.inp
|  1> ! B3LYP cc-pVDZ AUTOAUX
|  2> %pal nprocs 16 end
|  3> *XYZFile 0 2 opt_cc-pVDZ.xyz
|  4> %EPRNMR
|  5>         GTENSOR   TRUE
|  6>         NUCLEI    = ALL H {SHIFT, AISO, ADIP, AORB}
|  7>         ORI       GIAO
|  8> END
|  9> 
| 10>                          ****END OF INPUT****
================================================================================

                       ****************************
                       * Single Point Calculation *
                       ****************************

---------------------------------
CARTESIAN COORDINATES (ANGSTROEM)
---------------------------------
  C     -2.933965   -0.019156   -0.033968
  C      1.296444    0.061824    0.040566
  C      0.590322    1.299161    0.022548
  C     -0.830039    1.218699   -0.002568
  C     -1.498847   -0.010865   -0.008782
  C     -0.774122   -1.238368    0.009788
  C      0.629525   -1.156383    0.034189
  H     -1.427048    2.131305   -0.017267
  H      1.218575   -2.074536    0.048583
  C      1.286379    2.535197    0.030201
  H      2.380650    2.491770    0.051082
  C      0.640532    3.887507    0.012493
  H     -0.012376    3.983662   -0.880092
  H     -0.049999    3.988622    0.875732
  C      1.643345    5.048380    0.030876
  H      2.282617    4.957558    0.928191
  H      2.320901    4.952811   -0.837413
  C      0.972750    6.423267    0.012627
  H      0.314169    6.559669    0.887828
  H      0.351814    6.554369   -0.890468
  C     -1.524725   -2.554079    0.003958
  H     -2.212077   -2.565707    0.870720
  H     -2.195078   -2.567781   -0.875816
  C     -0.682422   -3.832632    0.013830
  H     -0.007492   -3.844979   -0.861979
  H     -0.029847   -3.846602    0.906400
  C     -1.540410   -5.103659    0.002474
  H     -2.218502   -5.092318    0.875946
  H     -2.195501   -5.092127   -0.888376
  C     -0.711859   -6.390673    0.013110
  H     -0.072869   -6.448665    0.911291
  H     -0.048487   -6.447504   -0.867274
  C     -4.149537   -0.021067   -0.056637
  H     -5.221657   -0.018204   -0.079579
  H      1.717527    7.235284    0.026000
  H     -1.354931   -7.285723    0.003734
  H      2.389642    0.078813    0.059985

----------------------------
CARTESIAN COORDINATES (A.U.)
----------------------------
  NO LB      ZA    FRAG     MASS         X           Y           Z
   0 C     6.0000    0    12.011   -5.544390   -0.036199   -0.064190
   1 C     6.0000    0    12.011    2.449923    0.116831    0.076658
   2 C     6.0000    0    12.011    1.115546    2.455058    0.042610
   3 C     6.0000    0    12.011   -1.568546    2.303007   -0.004852
   4 C     6.0000    0    12.011   -2.832411   -0.020532   -0.016596
   5 C     6.0000    0    12.011   -1.462879   -2.340176    0.018497
   6 C     6.0000    0    12.011    1.189631   -2.185246    0.064608
   7 H     1.0000    0     1.008   -2.696730    4.027582   -0.032630
   8 H     1.0000    0     1.008    2.302774   -3.920305    0.091808
   9 C     6.0000    0    12.011    2.430904    4.790828    0.057072
  10 H     1.0000    0     1.008    4.498776    4.708762    0.096531
  11 C     6.0000    0    12.011    1.210430    7.346323    0.023609
  12 H     1.0000    0     1.008   -0.023387    7.528031   -1.663132
  13 H     1.0000    0     1.008   -0.094484    7.537402    1.654893
  14 C     6.0000    0    12.011    3.105473    9.540056    0.058348
  15 H     1.0000    0     1.008    4.313522    9.368426    1.754027
  16 H     1.0000    0     1.008    4.385867    9.359456   -1.582482
  17 C     6.0000    0    12.011    1.838232   12.138215    0.023862
  18 H     1.0000    0     1.008    0.593694   12.395978    1.677753
  19 H     1.0000    0     1.008    0.664833   12.385963   -1.682740
  20 C     6.0000    0    12.011   -2.881313   -4.826509    0.007479
  21 H     1.0000    0     1.008   -4.180220   -4.848484    1.645422
  22 H     1.0000    0     1.008   -4.148096   -4.852403   -1.655052
  23 C     6.0000    0    12.011   -1.289591   -7.242625    0.026135
  24 H     1.0000    0     1.008   -0.014157   -7.265958   -1.628904
  25 H     1.0000    0     1.008   -0.056403   -7.269025    1.712848
  26 C     6.0000    0    12.011   -2.910954   -9.644518    0.004675
  27 H     1.0000    0     1.008   -4.192361   -9.623086    1.655298
  28 H     1.0000    0     1.008   -4.148895   -9.622725   -1.678787
  29 C     6.0000    0    12.011   -1.345219  -12.076622    0.024775
  30 H     1.0000    0     1.008   -0.137702  -12.186210    1.722090
  31 H     1.0000    0     1.008   -0.091627  -12.184017   -1.638910
  32 C     6.0000    0    12.011   -7.841488   -0.039810   -0.107028
  33 H     1.0000    0     1.008   -9.867501   -0.034401   -0.150383
  34 H     1.0000    0     1.008    3.245655   13.672706    0.049133
  35 H     1.0000    0     1.008   -2.560448  -13.768022    0.007056
  36 H     1.0000    0     1.008    4.515768    0.148934    0.113356

--------------------------------
INTERNAL COORDINATES (ANGSTROEM)
--------------------------------
 C      0   0   0     0.000000000000     0.00000000     0.00000000
 C      1   0   0     4.231839839988     0.00000000     0.00000000
 C      2   1   0     1.424757839195    61.37695963     0.00000000
 C      3   2   1     1.422859233864   116.47776677     0.00000000
 C      4   3   2     1.399704010375   121.78520727     0.00000000
 C      5   4   3     1.425599666827   120.89151196     0.00000000
 C      2   1   3     1.388829863509    60.20455783   180.00001633
 H      4   3   2     1.090635557442   119.95725189   180.00267780
 H      7   2   1     1.090959403994   118.61151497   179.99234950
 C      3   2   1     1.418569824586   120.89425019   179.96044466
 H     10   3   2     1.095330947794   117.11364857   359.96044858
 C     10   3   2     1.498724101429   125.07808334   179.98503556
 H     12  10   3     1.110063984890   109.94520040   302.51480008
 H     12  10   3     1.110061838941   109.94205453    57.11640051
 C     12  10   3     1.534144812994   113.63709047   179.80734258
 H     15  12  10     1.105482416420   108.99923954   302.34634584
 H     15  12  10     1.105505174031   109.01396285    57.64902577
 C     15  12  10     1.529818248525   113.16507722   180.00225780
 H     18  15  12     1.103771820071   111.29387851    59.87960125
 H     18  15  12     1.103779898556   111.29083898   300.16793672
 C      6   5   4     1.514771933309   119.73137393   179.93722750
 H     21   6   5     1.106283803219   108.29988528   303.27332398
 H     21   6   5     1.106147394597   108.30764053    55.78545598
 C     21   6   5     1.531101392865   116.91649187   179.54080037
 H     24  21   6     1.105768681416   109.87692168   301.94034745
 H     24  21   6     1.105771158416   109.90216781    58.45183187
 C     24  21   6     1.533552225836   112.59848328   180.17849024
 H     27  24  21     1.105843647558   109.19089701   302.39415653
 H     27  24  21     1.105843493349   109.19299241    57.68300028
 C     27  24  21     1.530691072341   113.20223941   180.03828029
 H     30  27  24     1.103811451802   111.29556740    59.90229133
 H     30  27  24     1.103797071972   111.28824036   300.19309541
 C      1   2   3     1.215784932523   178.99186528     3.10071765
 H     33   1   5     1.072369011991   179.71040678    18.30095439
 H     18  15  12     1.101926979723   111.46040523   180.02337470
 H     30  27  24     1.102154214228   111.52614216   180.04872649
 H      2   1   3     1.093502341995   179.79352754   177.93812307

---------------------------
INTERNAL COORDINATES (A.U.)
---------------------------
 C      0   0   0     0.000000000000     0.00000000     0.00000000
 C      1   0   0     7.997018340194     0.00000000     0.00000000
 C      2   1   0     2.692402123237    61.37695963     0.00000000
 C      3   2   1     2.688814279125   116.47776677     0.00000000
 C      4   3   2     2.645057248159   121.78520727     0.00000000
 C      5   4   3     2.693992946913   120.89151196     0.00000000
 C      2   1   3     2.624508088643    60.20455783   180.00001633
 H      4   3   2     2.061002515481   119.95725189   180.00267780
 H      7   2   1     2.061614496775   118.61151497   179.99234950
 C      3   2   1     2.680708470311   120.89425019   179.96044466
 H     10   3   2     2.069875517339   117.11364857   359.96044858
 C     10   3   2     2.832178102008   125.07808334   179.98503556
 H     12  10   3     2.097716922572   109.94520040   302.51480008
 H     12  10   3     2.097712867316   109.94205453    57.11640051
 C     12  10   3     2.899113546334   113.63709047   179.80734258
 H     15  12  10     2.089059012899   108.99923954   302.34634584
 H     15  12  10     2.089102018551   109.01396285    57.64902577
 C     15  12  10     2.890937524387   113.16507722   180.00225780
 H     18  15  12     2.085826454273   111.29387851    59.87960125
 H     18  15  12     2.085841720398   111.29083898   300.16793672
 C      6   5   4     2.862504109305   119.73137393   179.93722750
 H     21   6   5     2.090573414478   108.29988528   303.27332398
 H     21   6   5     2.090315639540   108.30764053    55.78545598
 C     21   6   5     2.893362315780   116.91649187   179.54080037
 H     24  21   6     2.089599975343   109.87692168   301.94034745
 H     24  21   6     2.089604656195   109.90216781    58.45183187
 C     24  21   6     2.897993718896   112.59848328   180.17849024
 H     27  24  21     2.089741640820   109.19089701   302.39415653
 H     27  24  21     2.089741349408   109.19299241    57.68300028
 C     27  24  21     2.892586922363   113.20223941   180.03828029
 H     30  27  24     2.085901347391   111.29556740    59.90229133
 H     30  27  24     2.085874173451   111.28824036   300.19309541
 C      1   2   3     2.297500560216   178.99186528     3.10071765
 H     33   1   5     2.026483747166   179.71040678    18.30095439
 H     18  15  12     2.082340211255   111.46040523   180.02337470
 H     30  27  24     2.082769622237   111.52614216   180.04872649
 H      2   1   3     2.066419953171   179.79352754   177.93812307

---------------------
BASIS SET INFORMATION
---------------------
There are 2 groups of distinct atoms

 Group   1 Type C   : 17s4p1d contracted to 3s2p1d pattern {881/31/1}
 Group   2 Type H   : 4s1p contracted to 2s1p pattern {31/1}

Atom   0C    basis set group =>   1
Atom   1C    basis set group =>   1
Atom   2C    basis set group =>   1
Atom   3C    basis set group =>   1
Atom   4C    basis set group =>   1
Atom   5C    basis set group =>   1
Atom   6C    basis set group =>   1
Atom   7H    basis set group =>   2
Atom   8H    basis set group =>   2
Atom   9C    basis set group =>   1
Atom  10H    basis set group =>   2
Atom  11C    basis set group =>   1
Atom  12H    basis set group =>   2
Atom  13H    basis set group =>   2
Atom  14C    basis set group =>   1
Atom  15H    basis set group =>   2
Atom  16H    basis set group =>   2
Atom  17C    basis set group =>   1
Atom  18H    basis set group =>   2
Atom  19H    basis set group =>   2
Atom  20C    basis set group =>   1
Atom  21H    basis set group =>   2
Atom  22H    basis set group =>   2
Atom  23C    basis set group =>   1
Atom  24H    basis set group =>   2
Atom  25H    basis set group =>   2
Atom  26C    basis set group =>   1
Atom  27H    basis set group =>   2
Atom  28H    basis set group =>   2
Atom  29C    basis set group =>   1
Atom  30H    basis set group =>   2
Atom  31H    basis set group =>   2
Atom  32C    basis set group =>   1
Atom  33H    basis set group =>   2
Atom  34H    basis set group =>   2
Atom  35H    basis set group =>   2
Atom  36H    basis set group =>   2
---------------------------------
AUXILIARY/J BASIS SET INFORMATION
---------------------------------
There are 2 groups of distinct atoms

 Group   1 Type C   : 14s11p10d2f contracted to 14s11p10d2f pattern {11111111111111/11111111111/1111111111/11}
 Group   2 Type H   : 9s2p1d contracted to 9s2p1d pattern {111111111/11/1}

Atom   0C    basis set group =>   1
Atom   1C    basis set group =>   1
Atom   2C    basis set group =>   1
Atom   3C    basis set group =>   1
Atom   4C    basis set group =>   1
Atom   5C    basis set group =>   1
Atom   6C    basis set group =>   1
Atom   7H    basis set group =>   2
Atom   8H    basis set group =>   2
Atom   9C    basis set group =>   1
Atom  10H    basis set group =>   2
Atom  11C    basis set group =>   1
Atom  12H    basis set group =>   2
Atom  13H    basis set group =>   2
Atom  14C    basis set group =>   1
Atom  15H    basis set group =>   2
Atom  16H    basis set group =>   2
Atom  17C    basis set group =>   1
Atom  18H    basis set group =>   2
Atom  19H    basis set group =>   2
Atom  20C    basis set group =>   1
Atom  21H    basis set group =>   2
Atom  22H    basis set group =>   2
Atom  23C    basis set group =>   1
Atom  24H    basis set group =>   2
Atom  25H    basis set group =>   2
Atom  26C    basis set group =>   1
Atom  27H    basis set group =>   2
Atom  28H    basis set group =>   2
Atom  29C    basis set group =>   1
Atom  30H    basis set group =>   2
Atom  31H    basis set group =>   2
Atom  32C    basis set group =>   1
Atom  33H    basis set group =>   2
Atom  34H    basis set group =>   2
Atom  35H    basis set group =>   2
Atom  36H    basis set group =>   2
---------------------------------
AUXILIARY/C BASIS SET INFORMATION
---------------------------------
There are 2 groups of distinct atoms

 Group   1 Type C   : 14s11p10d2f contracted to 14s11p10d2f pattern {11111111111111/11111111111/1111111111/11}
 Group   2 Type H   : 9s2p1d contracted to 9s2p1d pattern {111111111/11/1}

Atom   0C    basis set group =>   1
Atom   1C    basis set group =>   1
Atom   2C    basis set group =>   1
Atom   3C    basis set group =>   1
Atom   4C    basis set group =>   1
Atom   5C    basis set group =>   1
Atom   6C    basis set group =>   1
Atom   7H    basis set group =>   2
Atom   8H    basis set group =>   2
Atom   9C    basis set group =>   1
Atom  10H    basis set group =>   2
Atom  11C    basis set group =>   1
Atom  12H    basis set group =>   2
Atom  13H    basis set group =>   2
Atom  14C    basis set group =>   1
Atom  15H    basis set group =>   2
Atom  16H    basis set group =>   2
Atom  17C    basis set group =>   1
Atom  18H    basis set group =>   2
Atom  19H    basis set group =>   2
Atom  20C    basis set group =>   1
Atom  21H    basis set group =>   2
Atom  22H    basis set group =>   2
Atom  23C    basis set group =>   1
Atom  24H    basis set group =>   2
Atom  25H    basis set group =>   2
Atom  26C    basis set group =>   1
Atom  27H    basis set group =>   2
Atom  28H    basis set group =>   2
Atom  29C    basis set group =>   1
Atom  30H    basis set group =>   2
Atom  31H    basis set group =>   2
Atom  32C    basis set group =>   1
Atom  33H    basis set group =>   2
Atom  34H    basis set group =>   2
Atom  35H    basis set group =>   2
Atom  36H    basis set group =>   2
----------------------------------
AUXILIARY/JK BASIS SET INFORMATION
----------------------------------
There are 2 groups of distinct atoms

 Group   1 Type C   : 14s11p10d2f contracted to 14s11p10d2f pattern {11111111111111/11111111111/1111111111/11}
 Group   2 Type H   : 9s2p1d contracted to 9s2p1d pattern {111111111/11/1}

Atom   0C    basis set group =>   1
Atom   1C    basis set group =>   1
Atom   2C    basis set group =>   1
Atom   3C    basis set group =>   1
Atom   4C    basis set group =>   1
Atom   5C    basis set group =>   1
Atom   6C    basis set group =>   1
Atom   7H    basis set group =>   2
Atom   8H    basis set group =>   2
Atom   9C    basis set group =>   1
Atom  10H    basis set group =>   2
Atom  11C    basis set group =>   1
Atom  12H    basis set group =>   2
Atom  13H    basis set group =>   2
Atom  14C    basis set group =>   1
Atom  15H    basis set group =>   2
Atom  16H    basis set group =>   2
Atom  17C    basis set group =>   1
Atom  18H    basis set group =>   2
Atom  19H    basis set group =>   2
Atom  20C    basis set group =>   1
Atom  21H    basis set group =>   2
Atom  22H    basis set group =>   2
Atom  23C    basis set group =>   1
Atom  24H    basis set group =>   2
Atom  25H    basis set group =>   2
Atom  26C    basis set group =>   1
Atom  27H    basis set group =>   2
Atom  28H    basis set group =>   2
Atom  29C    basis set group =>   1
Atom  30H    basis set group =>   2
Atom  31H    basis set group =>   2
Atom  32C    basis set group =>   1
Atom  33H    basis set group =>   2
Atom  34H    basis set group =>   2
Atom  35H    basis set group =>   2
Atom  36H    basis set group =>   2

Checking for AutoStart:
The File: cc-pVDZ_i.gbw exists
Trying to determine its content:
     ... Fine, the file contains calculation information
     ... Fine, the calculation information was read
     ... Fine, the file contains a basis set
     ... Fine, the basis set was read
     ... Fine, the file contains a geometry
     ... Fine, the geometry was read
     ... Fine, the file contains a set of orbitals
     ... Fine, the orbitals can be read
     => possible old guess file was deleted
     => GBW file was renamed to GES file
     => GES file is set as startup file
     => Guess is set to MORead
     ... now leaving AutoStart



           ************************************************************
           *        Program running with 16 parallel MPI-processes    *
           *              working on a common directory               *
           ************************************************************
------------------------------------------------------------------------------
                           ORCA GTO INTEGRAL CALCULATION
                           -- RI-GTO INTEGRALS CHOSEN --
------------------------------------------------------------------------------
------------------------------------------------------------------------------
                   ___                                                        
                  /   \      - P O W E R E D   B Y -                         
                 /     \                                                     
                 |  |  |   _    _      __       _____    __    __             
                 |  |  |  | |  | |    /  \     |  _  \  |  |  /  |          
                  \  \/   | |  | |   /    \    | | | |  |  | /  /          
                 / \  \   | |__| |  /  /\  \   | |_| |  |  |/  /          
                |  |  |   |  __  | /  /__\  \  |    /   |      \           
                |  |  |   | |  | | |   __   |  |    \   |  |\   \          
                \     /   | |  | | |  |  |  |  | |\  \  |  | \   \       
                 \___/    |_|  |_| |__|  |__|  |_| \__\ |__|  \__/        
                                                                              
                      - O R C A' S   B I G   F R I E N D -                    
                                      &                                       
                       - I N T E G R A L  F E E D E R -                       
                                                                              
 v1 FN, 2020, v2 2021                                                         
------------------------------------------------------------------------------


Reading SHARK input file cc-pVDZ_i.SHARKINP.tmp ... ok
----------------------
SHARK INTEGRAL PACKAGE
----------------------

Number of atoms                             ...     37
Number of basis functions                   ...    425
Number of shells                            ...    255
Maximum angular momentum                    ...      2
Integral batch strategy                     ... SHARK/LIBINT Hybrid
RI-J (if used) integral strategy            ... SPLIT-RIJ (Revised 2003 algorithm where possible)
Printlevel                                  ...      1
Contraction scheme used                     ... PARTIAL GENERAL contraction
Coulomb Range Separation                    ... NOT USED
Exchange Range Separation                   ... NOT USED
Finite Nucleus Model                        ... NOT USED
Auxiliary Coulomb fitting basis             ... AVAILABLE
   # of basis functions in Aux-J            ...   2196
   # of shells in Aux-J                     ...    844
   Maximum angular momentum in Aux-J        ...      3
Auxiliary J/K fitting basis                 ... AVAILABLE
   # of basis functions in Aux-JK           ...   2196
   # of shells in Aux-JK                    ...    844
   Maximum angular momentum in Aux-JK       ...      3
Auxiliary Correlation fitting basis         ... AVAILABLE
   # of basis functions in Aux-C            ...   2196
   # of shells in Aux-C                     ...    844
   Maximum angular momentum in Aux-C        ...      3
Auxiliary 'external' fitting basis          ... NOT available
Integral threshold                          ...     1.000000e-10
Primitive cut-off                           ...     1.000000e-11
Primitive pair pre-selection threshold      ...     1.000000e-11

Calculating pre-screening integrals         ... done (  0.0 sec) Dimension = 255
Calculating pre-screening integrals (ORCA)  ... done (  0.1 sec) Dimension = 159
Organizing shell pair data                  ... done (  0.1 sec)
Shell pair information
Total number of shell pairs                 ...     32640
Shell pairs after pre-screening             ...     16237
Total number of primitive shell pairs       ...     54396
Primitive shell pairs kept                  ...     22616
          la=0 lb=0:   7242 shell pairs
          la=1 lb=0:   5665 shell pairs
          la=1 lb=1:    989 shell pairs
          la=2 lb=0:   1662 shell pairs
          la=2 lb=1:    582 shell pairs
          la=2 lb=2:     97 shell pairs

Calculating one electron integrals          ... done (  0.0 sec)
Calculating RI/J V-Matrix + Cholesky decomp.... done (  0.3 sec)
Calculating RI/JK V-Matrix + Cholesky decomp... done (  0.3 sec)
Calculating RI/C V-Matrix + Cholesky decomp.... done (  0.3 sec)
Calculating Nuclear repulsion               ... done (  0.0 sec) ENN=    969.235787761243 Eh

SHARK setup successfully completed in   1.5 seconds

Maximum memory used throughout the entire GTOINT-calculation: 26.0 MB


           ************************************************************
           *        Program running with 16 parallel MPI-processes    *
           *              working on a common directory               *
           ************************************************************
-------------------------------------------------------------------------------
                                 ORCA SCF
-------------------------------------------------------------------------------

------------
SCF SETTINGS
------------
Hamiltonian:
 Density Functional     Method          .... DFT(GTOs)
 Exchange Functional    Exchange        .... B88
   X-Alpha parameter    XAlpha          ....  0.666667
   Becke's b parameter  XBeta           ....  0.004200
 Correlation Functional Correlation     .... LYP
 LDA part of GGA corr.  LDAOpt          .... VWN-5
 Gradients option       PostSCFGGA      .... off
 Hybrid DFT is turned on
   Fraction HF Exchange ScalHFX         ....  0.200000
   Scaling of DF-GGA-X  ScalDFX         ....  0.720000
   Scaling of DF-GGA-C  ScalDFC         ....  0.810000
   Scaling of DF-LDA-C  ScalLDAC        ....  1.000000
   Perturbative correction              ....  0.000000
   Density functional embedding theory  .... OFF
   NL short-range parameter             ....  4.800000
 RI-approximation to the Coulomb term is turned on
   Number of AuxJ basis functions       .... 2196
   RIJ-COSX (HFX calculated with COS-X)).... on


General Settings:
 Integral files         IntName         .... cc-pVDZ_i
 Hartree-Fock type      HFTyp           .... UHF
 Total Charge           Charge          ....    0
 Multiplicity           Mult            ....    2
 Number of Electrons    NEL             ....  117
 Basis Dimension        Dim             ....  329
 Nuclear Repulsion      ENuc            ....    969.2357877612 Eh

Convergence Acceleration:
 DIIS                   CNVDIIS         .... on
   Start iteration      DIISMaxIt       ....    12
   Startup error        DIISStart       ....  0.200000
   # of expansion vecs  DIISMaxEq       ....     5
   Bias factor          DIISBfac        ....   1.050
   Max. coefficient     DIISMaxC        ....  10.000
 Trust-Rad. Augm. Hess. CNVTRAH         .... auto
   Auto Start mean grad. ratio tolernc. ....  1.125000
   Auto Start start iteration           ....     1
   Auto Start num. interpolation iter.  ....    10
   Max. Number of Micro iterations      ....    16
   Max. Number of Macro iterations      .... Maxiter - #DIIS iter
   Number of Davidson start vectors     ....     2
   Converg. threshold I  (grad. norm)   ....   5.000e-05
   Converg. threshold II (energy diff.) ....   1.000e-06
   Grad. Scal. Fac. for Micro threshold ....   0.100
   Minimum threshold for Micro iter.    ....   0.010
   NR start threshold (gradient norm)   ....   0.001
   Initial trust radius                 ....   0.400
   Minimum AH scaling param. (alpha)    ....   1.000
   Maximum AH scaling param. (alpha)    .... 1000.000
   Orbital update algorithm             .... Taylor
   White noise on init. David. guess    .... on
   Maximum white noise                  ....   0.010
   Quad. conv. algorithm                .... NR
 SOSCF                  CNVSOSCF        .... off
 Level Shifting         CNVShift        .... on
   Level shift para.    LevelShift      ....    0.2500
   Turn off err/grad.   ShiftErr        ....    0.0010
 Zerner damping         CNVZerner       .... off
 Static damping         CNVDamp         .... on
   Fraction old density DampFac         ....    0.7000
   Max. Damping (<1)    DampMax         ....    0.9800
   Min. Damping (>=0)   DampMin         ....    0.0000
   Turn off err/grad.   DampErr         ....    0.1000
 Fernandez-Rico         CNVRico         .... off

SCF Procedure:
 Maximum # iterations   MaxIter         ....   125
 SCF integral mode      SCFMode         .... Direct
   Integral package                     .... SHARK and LIBINT hybrid scheme
 Reset frequency        DirectResetFreq ....    20
 Integral Threshold     Thresh          ....  1.000e-10 Eh
 Primitive CutOff       TCut            ....  1.000e-11 Eh

Convergence Tolerance:
 Convergence Check Mode ConvCheckMode   .... Total+1el-Energy
 Convergence forced     ConvForced      .... 0
 Energy Change          TolE            ....  1.000e-06 Eh
 1-El. energy change                    ....  1.000e-03 Eh
 DIIS Error             TolErr          ....  1.000e-06


Diagonalization of the overlap matrix:
Smallest eigenvalue                        ... 1.556e-04
Time for diagonalization                   ...    0.023 sec
Threshold for overlap eigenvalues          ... 1.000e-08
Number of eigenvalues below threshold      ... 0
Time for construction of square roots      ...    0.031 sec
Total time needed                          ...    0.055 sec

---------------------
INITIAL GUESS: MOREAD
---------------------
Guess MOs are being read from file: cc-pVDZ_i.ges
Input geometry compatible with but different from current geometry
Input basis set matches current basis set (good)
MOs were renormalized
MOs were reorthogonalized (Cholesky)
                      ------------------
                      INITIAL GUESS DONE (   0.1 sec)
                      ------------------
-------------------
DFT GRID GENERATION
-------------------

General Integration Accuracy     IntAcc      ... 4.388
Radial Grid Type                 RadialGrid  ... OptM3 with GC (2021)
Angular Grid (max. ang.)         AngularGrid ... 4 (Lebedev-302)
Angular grid pruning method      GridPruning ... 4 (adaptive)
Weight generation scheme         WeightScheme... Becke
Basis function cutoff            BFCut       ... 1.0000e-10
Integration weight cutoff        WCut        ... 1.0000e-14
Angular grids for H and He will be reduced by one unit
Partially contracted basis set               ... off
Rotationally invariant grid construction     ... off

Total number of grid points                  ...   162767
Total number of batches                      ...     2562
Average number of points per batch           ...       63
Average number of grid points per atom       ...     4399
Time for grid setup =    0.829 sec

--------------------
COSX GRID GENERATION
--------------------

GRIDX 1
-------
General Integration Accuracy     IntAcc      ... 3.816
Radial Grid Type                 RadialGrid  ... OptM3 with GC (2021)
Angular Grid (max. ang.)         AngularGrid ... 1 (Lebedev-50)
Angular grid pruning method      GridPruning ... 4 (adaptive)
Weight generation scheme         WeightScheme... Becke
Basis function cutoff            BFCut       ... 1.0000e-10
Integration weight cutoff        WCut        ... 1.0000e-14
Angular grids for H and He will be reduced by one unit
Partially contracted basis set               ... on
Rotationally invariant grid construction     ... off

Total number of grid points                  ...    20777
Total number of batches                      ...      346
Average number of points per batch           ...       60
Average number of grid points per atom       ...      562
UseSFitting                                  ... on

GRIDX 2
-------
General Integration Accuracy     IntAcc      ... 4.020
Radial Grid Type                 RadialGrid  ... OptM3 with GC (2021)
Angular Grid (max. ang.)         AngularGrid ... 2 (Lebedev-110)
Angular grid pruning method      GridPruning ... 4 (adaptive)
Weight generation scheme         WeightScheme... Becke
Basis function cutoff            BFCut       ... 1.0000e-10
Integration weight cutoff        WCut        ... 1.0000e-14
Angular grids for H and He will be reduced by one unit
Partially contracted basis set               ... on
Rotationally invariant grid construction     ... off

Total number of grid points                  ...    43895
Total number of batches                      ...      705
Average number of points per batch           ...       62
Average number of grid points per atom       ...     1186
UseSFitting                                  ... on

GRIDX 3
-------
General Integration Accuracy     IntAcc      ... 4.338
Radial Grid Type                 RadialGrid  ... OptM3 with GC (2021)
Angular Grid (max. ang.)         AngularGrid ... 3 (Lebedev-194)
Angular grid pruning method      GridPruning ... 4 (adaptive)
Weight generation scheme         WeightScheme... Becke
Basis function cutoff            BFCut       ... 1.0000e-10
Integration weight cutoff        WCut        ... 1.0000e-14
Angular grids for H and He will be reduced by one unit
Partially contracted basis set               ... on
Rotationally invariant grid construction     ... off

Total number of grid points                  ...    95919
Total number of batches                      ...     1519
Average number of points per batch           ...       63
Average number of grid points per atom       ...     2592
UseSFitting                                  ... on

Time for X-Grid setup             =    1.576 sec

 re-compute Schwartz prescreening matrix in partically contracted basis (1) ...done (   0.116 sec)
--------------
SCF ITERATIONS
--------------
ITER       Energy         Delta-E        Max-DP      RMS-DP      [F,P]     Damp
               ***  Starting incremental Fock matrix formation  ***
  0   -621.8597379486   0.000000000000 0.00003681  0.00000105  0.0001425 0.7000
                 **** Energy Check signals convergence ****

               *****************************************************
               *                     SUCCESS                       *
               *           SCF CONVERGED AFTER   1 CYCLES          *
               *****************************************************

Old exchange energy                            =    -18.069023433 Eh
New exchange energy                            =    -18.069115321 Eh
Exchange energy change after final integration =     -0.000091887 Eh
Total energy after final integration           =   -621.859830422 Eh
Final COS-X integration done in                =     3.716 sec

----------------
TOTAL SCF ENERGY
----------------

Total Energy       :         -621.85983042 Eh          -16921.66627 eV

Components:
Nuclear Repulsion  :          969.23578776 Eh           26374.24663 eV
Electronic Energy  :        -1591.09561818 Eh          -43295.91289 eV
One Electron Energy:        -2760.68213185 Eh          -75121.97994 eV
Two Electron Energy:         1169.58651367 Eh           31826.06704 eV
Max COSX asymmetry :            0.00000043 Eh               0.00001 eV

Virial components:
Potential Energy   :        -1239.23830159 Eh          -33721.38855 eV
Kinetic Energy     :          617.37847117 Eh           16799.72228 eV
Virial Ratio       :            2.00725869


DFT components:
N(Alpha)           :       59.000108704678 electrons
N(Beta)            :       58.000102652415 electrons
N(Total)           :      117.000211357093 electrons
E(X)               :      -71.622398636546 Eh       
E(C)               :       -4.507461276994 Eh       
E(XC)              :      -76.129859913540 Eh       
DFET-embed. en.    :        0.000000000000 Eh       

---------------
SCF CONVERGENCE
---------------

  Last Energy change         ...   -5.8573e-07  Tolerance :   1.0000e-06
  Last MAX-Density change    ...    1.1132e-05  Tolerance :   1.0000e-05
  Last RMS-Density change    ...    3.2231e-07  Tolerance :   1.0000e-06
  Last DIIS Error            ...    1.1215e-04  Tolerance :   1.0000e-06

             **** THE GBW FILE WAS UPDATED (cc-pVDZ_i.gbw) ****
             **** DENSITY cc-pVDZ_i.scfp WAS UPDATED ****
             **** ENERGY FILE WAS UPDATED (cc-pVDZ_i.en.tmp) ****
----------------------
UHF SPIN CONTAMINATION
----------------------

Warning: in a DFT calculation there is little theoretical justification to 
         calculate <S**2> as in Hartree-Fock theory. We will do it anyways
         but you should keep in mind that the values have only limited relevance

Expectation value of <S**2>     :     0.781599
Ideal value S*(S+1) for S=0.5   :     0.750000
Deviation                       :     0.031599

             **** THE GBW FILE WAS UPDATED (cc-pVDZ_i.gbw) ****
             **** DENSITY cc-pVDZ_i.scfp WAS UPDATED ****
----------------
ORBITAL ENERGIES
----------------
                 SPIN UP ORBITALS
  NO   OCC          E(Eh)            E(eV) 
   0   1.0000     -10.207399      -277.7575 
   1   1.0000     -10.199204      -277.5344 
   2   1.0000     -10.192018      -277.3389 
   3   1.0000     -10.191440      -277.3232 
   4   1.0000     -10.190778      -277.3052 
   5   1.0000     -10.189321      -277.2655 
   6   1.0000     -10.188431      -277.2413 
   7   1.0000     -10.187111      -277.2054 
   8   1.0000     -10.184280      -277.1284 
   9   1.0000     -10.184223      -277.1268 
  10   1.0000     -10.184006      -277.1209 
  11   1.0000     -10.182605      -277.0828 
  12   1.0000     -10.180728      -277.0317 
  13   1.0000     -10.180533      -277.0264 
  14   1.0000     -10.176973      -276.9295 
  15   1.0000     -10.175109      -276.8788 
  16   1.0000      -0.865753       -23.5583 
  17   1.0000      -0.814442       -22.1621 
  18   1.0000      -0.794859       -21.6292 
  19   1.0000      -0.780033       -21.2258 
  20   1.0000      -0.763597       -20.7785 
  21   1.0000      -0.730554       -19.8794 
  22   1.0000      -0.723537       -19.6885 
  23   1.0000      -0.696228       -18.9453 
  24   1.0000      -0.653553       -17.7841 
  25   1.0000      -0.622603       -16.9419 
  26   1.0000      -0.612886       -16.6775 
  27   1.0000      -0.588276       -16.0078 
  28   1.0000      -0.578686       -15.7469 
  29   1.0000      -0.559123       -15.2145 
  30   1.0000      -0.525796       -14.3076 
  31   1.0000      -0.494632       -13.4596 
  32   1.0000      -0.472576       -12.8594 
  33   1.0000      -0.469141       -12.7660 
  34   1.0000      -0.462223       -12.5777 
  35   1.0000      -0.461711       -12.5638 
  36   1.0000      -0.428528       -11.6609 
  37   1.0000      -0.426125       -11.5955 
  38   1.0000      -0.422476       -11.4962 
  39   1.0000      -0.419436       -11.4134 
  40   1.0000      -0.410224       -11.1628 
  41   1.0000      -0.395354       -10.7581 
  42   1.0000      -0.387688       -10.5495 
  43   1.0000      -0.375278       -10.2118 
  44   1.0000      -0.374360       -10.1868 
  45   1.0000      -0.362843        -9.8735 
  46   1.0000      -0.348028        -9.4703 
  47   1.0000      -0.347612        -9.4590 
  48   1.0000      -0.338182        -9.2024 
  49   1.0000      -0.331275        -9.0144 
  50   1.0000      -0.330506        -8.9935 
  51   1.0000      -0.324918        -8.8415 
  52   1.0000      -0.322455        -8.7744 
  53   1.0000      -0.321189        -8.7400 
  54   1.0000      -0.307961        -8.3800 
  55   1.0000      -0.271987        -7.4012 
  56   1.0000      -0.267889        -7.2896 
  57   1.0000      -0.236253        -6.4288 
  58   1.0000      -0.171279        -4.6607 
  59   0.0000      -0.031427        -0.8552 
  60   0.0000       0.015248         0.4149 
  61   0.0000       0.048161         1.3105 
  62   0.0000       0.063217         1.7202 
  63   0.0000       0.063824         1.7367 
  64   0.0000       0.077492         2.1087 
  65   0.0000       0.083976         2.2851 
  66   0.0000       0.088720         2.4142 
  67   0.0000       0.088951         2.4205 
  68   0.0000       0.094493         2.5713 
  69   0.0000       0.097154         2.6437 
  70   0.0000       0.098656         2.6846 
  71   0.0000       0.104391         2.8406 
  72   0.0000       0.112071         3.0496 
  73   0.0000       0.129637         3.5276 
  74   0.0000       0.132723         3.6116 
  75   0.0000       0.147223         4.0061 
  76   0.0000       0.149368         4.0645 
  77   0.0000       0.149555         4.0696 
  78   0.0000       0.160260         4.3609 
  79   0.0000       0.163152         4.4396 
  80   0.0000       0.167995         4.5714 
  81   0.0000       0.169637         4.6161 
  82   0.0000       0.172126         4.6838 
  83   0.0000       0.181116         4.9284 
  84   0.0000       0.191926         5.2226 
  85   0.0000       0.206302         5.6138 
  86   0.0000       0.213080         5.7982 
  87   0.0000       0.224649         6.1130 
  88   0.0000       0.229073         6.2334 
  89   0.0000       0.238913         6.5012 
  90   0.0000       0.255359         6.9487 
  91   0.0000       0.262448         7.1416 
  92   0.0000       0.283262         7.7079 
  93   0.0000       0.301124         8.1940 
  94   0.0000       0.319190         8.6856 
  95   0.0000       0.341709         9.2984 
  96   0.0000       0.346894         9.4395 
  97   0.0000       0.363691         9.8965 
  98   0.0000       0.368701        10.0329 
  99   0.0000       0.403130        10.9697 
 100   0.0000       0.411047        11.1851 
 101   0.0000       0.413224        11.2444 
 102   0.0000       0.413495        11.2518 
 103   0.0000       0.421519        11.4701 
 104   0.0000       0.431016        11.7285 
 105   0.0000       0.445466        12.1217 
 106   0.0000       0.454105        12.3568 
 107   0.0000       0.466151        12.6846 
 108   0.0000       0.466401        12.6914 
 109   0.0000       0.479944        13.0599 
 110   0.0000       0.482100        13.1186 
 111   0.0000       0.485913        13.2224 
 112   0.0000       0.492877        13.4119 
 113   0.0000       0.509117        13.8538 
 114   0.0000       0.513488        13.9727 
 115   0.0000       0.518684        14.1141 
 116   0.0000       0.522883        14.2284 
 117   0.0000       0.527863        14.3639 
 118   0.0000       0.535372        14.5682 
 119   0.0000       0.545525        14.8445 
 120   0.0000       0.554519        15.0892 
 121   0.0000       0.560546        15.2532 
 122   0.0000       0.569520        15.4974 
 123   0.0000       0.592328        16.1181 
 124   0.0000       0.595566        16.2062 
 125   0.0000       0.605592        16.4790 
 126   0.0000       0.616390        16.7728 
 127   0.0000       0.616646        16.7798 
 128   0.0000       0.620799        16.8928 
 129   0.0000       0.621298        16.9064 
 130   0.0000       0.640340        17.4245 
 131   0.0000       0.641075        17.4445 
 132   0.0000       0.644614        17.5408 
 133   0.0000       0.645184        17.5564 
 134   0.0000       0.652705        17.7610 
 135   0.0000       0.654619        17.8131 
 136   0.0000       0.658917        17.9300 
 137   0.0000       0.660701        17.9786 
 138   0.0000       0.662180        18.0188 
 139   0.0000       0.663574        18.0568 
 140   0.0000       0.668470        18.1900 
 141   0.0000       0.671959        18.2849 
 142   0.0000       0.683991        18.6123 
 143   0.0000       0.689087        18.7510 
 144   0.0000       0.690907        18.8005 
 145   0.0000       0.694817        18.9069 
 146   0.0000       0.696485        18.9523 
 147   0.0000       0.704902        19.1814 
 148   0.0000       0.711425        19.3588 
 149   0.0000       0.714252        19.4358 
 150   0.0000       0.729839        19.8599 
 151   0.0000       0.733448        19.9581 
 152   0.0000       0.733707        19.9652 
 153   0.0000       0.743245        20.2247 
 154   0.0000       0.747696        20.3459 
 155   0.0000       0.753325        20.4990 
 156   0.0000       0.764348        20.7990 
 157   0.0000       0.785415        21.3722 
 158   0.0000       0.814250        22.1569 
 159   0.0000       0.819509        22.3000 
 160   0.0000       0.832991        22.6668 
 161   0.0000       0.836938        22.7742 
 162   0.0000       0.842671        22.9302 
 163   0.0000       0.871855        23.7244 
 164   0.0000       0.888302        24.1719 
 165   0.0000       0.904965        24.6254 
 166   0.0000       0.920562        25.0498 
 167   0.0000       0.923893        25.1404 
 168   0.0000       0.941189        25.6111 
 169   0.0000       0.950750        25.8712 
 170   0.0000       0.958644        26.0860 
 171   0.0000       0.994587        27.0641 
 172   0.0000       0.995333        27.0844 
 173   0.0000       1.011749        27.5311 
 174   0.0000       1.018820        27.7235 
 175   0.0000       1.037880        28.2421 
 176   0.0000       1.040441        28.3118 
 177   0.0000       1.053612        28.6702 
 178   0.0000       1.061139        28.8751 
 179   0.0000       1.069119        29.0922 
 180   0.0000       1.082030        29.4435 
 181   0.0000       1.082961        29.4689 
 182   0.0000       1.134573        30.8733 
 183   0.0000       1.160582        31.5810 
 184   0.0000       1.186433        32.2845 
 185   0.0000       1.205806        32.8117 
 186   0.0000       1.209480        32.9116 
 187   0.0000       1.210865        32.9493 
 188   0.0000       1.218277        33.1510 
 189   0.0000       1.219217        33.1766 
 190   0.0000       1.224684        33.3253 
 191   0.0000       1.227161        33.3927 
 192   0.0000       1.233668        33.5698 
 193   0.0000       1.253652        34.1136 
 194   0.0000       1.286205        34.9994 
 195   0.0000       1.295003        35.2388 
 196   0.0000       1.311793        35.6957 
 197   0.0000       1.323397        36.0115 
 198   0.0000       1.340500        36.4768 
 199   0.0000       1.342418        36.5291 
 200   0.0000       1.346240        36.6331 
 201   0.0000       1.374524        37.4027 
 202   0.0000       1.379346        37.5339 
 203   0.0000       1.392813        37.9004 
 204   0.0000       1.414657        38.4948 
 205   0.0000       1.425343        38.7856 
 206   0.0000       1.426889        38.8276 
 207   0.0000       1.427098        38.8333 
 208   0.0000       1.433828        39.0165 
 209   0.0000       1.445053        39.3219 
 210   0.0000       1.465445        39.8768 
 211   0.0000       1.469020        39.9741 
 212   0.0000       1.470779        40.0219 
 213   0.0000       1.492156        40.6036 
 214   0.0000       1.500120        40.8203 
 215   0.0000       1.523198        41.4483 
 216   0.0000       1.531695        41.6795 
 217   0.0000       1.546151        42.0729 
 218   0.0000       1.572982        42.8030 
 219   0.0000       1.579120        42.9700 
 220   0.0000       1.591967        43.3196 
 221   0.0000       1.596086        43.4317 
 222   0.0000       1.602802        43.6145 
 223   0.0000       1.616884        43.9977 
 224   0.0000       1.623329        44.1730 
 225   0.0000       1.627132        44.2765 
 226   0.0000       1.630664        44.3726 
 227   0.0000       1.632823        44.4314 
 228   0.0000       1.635466        44.5033 
 229   0.0000       1.640190        44.6318 
 230   0.0000       1.645686        44.7814 
 231   0.0000       1.653086        44.9827 
 232   0.0000       1.658323        45.1253 
 233   0.0000       1.671325        45.4791 
 234   0.0000       1.678613        45.6774 
 235   0.0000       1.684055        45.8255 
 236   0.0000       1.686221        45.8844 
 237   0.0000       1.693789        46.0903 
 238   0.0000       1.696099        46.1532 
 239   0.0000       1.702135        46.3174 
 240   0.0000       1.704637        46.3855 
 241   0.0000       1.709207        46.5099 
 242   0.0000       1.713700        46.6322 
 243   0.0000       1.724179        46.9173 
 244   0.0000       1.732626        47.1471 
 245   0.0000       1.742090        47.4047 
 246   0.0000       1.752023        47.6750 
 247   0.0000       1.755789        47.7774 
 248   0.0000       1.760210        47.8977 
 249   0.0000       1.776525        48.3417 
 250   0.0000       1.780735        48.4563 
 251   0.0000       1.791603        48.7520 
 252   0.0000       1.797297        48.9069 
 253   0.0000       1.798337        48.9352 
 254   0.0000       1.817421        49.4545 
 255   0.0000       1.820859        49.5481 
 256   0.0000       1.824371        49.6437 
 257   0.0000       1.837467        50.0000 
 258   0.0000       1.859974        50.6125 
 259   0.0000       1.878613        51.1197 
 260   0.0000       1.878936        51.1284 
 261   0.0000       1.894249        51.5451 
 262   0.0000       1.910715        51.9932 
 263   0.0000       1.920752        52.2663 
 264   0.0000       1.929188        52.4959 
 265   0.0000       1.937998        52.7356 
 266   0.0000       1.941604        52.8337 
 267   0.0000       1.950196        53.0675 
 268   0.0000       1.971145        53.6376 
 269   0.0000       1.997120        54.3444 
 270   0.0000       2.001723        54.4697 
 271   0.0000       2.011299        54.7302 
 272   0.0000       2.030782        55.2604 
 273   0.0000       2.043800        55.6146 
 274   0.0000       2.063419        56.1485 
 275   0.0000       2.076867        56.5144 
 276   0.0000       2.090460        56.8843 
 277   0.0000       2.091420        56.9104 
 278   0.0000       2.116008        57.5795 
 279   0.0000       2.135781        58.1175 
 280   0.0000       2.154020        58.6139 
 281   0.0000       2.158848        58.7452 
 282   0.0000       2.170320        59.0574 
 283   0.0000       2.180352        59.3304 
 284   0.0000       2.184673        59.4480 
 285   0.0000       2.202618        59.9363 
 286   0.0000       2.207811        60.0776 
 287   0.0000       2.221674        60.4548 
 288   0.0000       2.224337        60.5273 
 289   0.0000       2.227428        60.6114 
 290   0.0000       2.263953        61.6053 
 291   0.0000       2.279376        62.0250 
 292   0.0000       2.288334        62.2687 
 293   0.0000       2.294982        62.4496 
 294   0.0000       2.298916        62.5567 
 295   0.0000       2.303286        62.6756 
 296   0.0000       2.321667        63.1758 
 297   0.0000       2.334277        63.5189 
 298   0.0000       2.353021        64.0290 
 299   0.0000       2.355772        64.1038 
 300   0.0000       2.405995        65.4705 
 301   0.0000       2.410486        65.5927 
 302   0.0000       2.412652        65.6516 
 303   0.0000       2.413540        65.6758 
 304   0.0000       2.413633        65.6783 
 305   0.0000       2.426957        66.0409 
 306   0.0000       2.446081        66.5612 
 307   0.0000       2.466118        67.1065 
 308   0.0000       2.475004        67.3483 
 309   0.0000       2.507111        68.2220 
 310   0.0000       2.536133        69.0117 
 311   0.0000       2.536809        69.0301 
 312   0.0000       2.557445        69.5916 
 313   0.0000       2.596615        70.6575 
 314   0.0000       2.597181        70.6729 
 315   0.0000       2.626729        71.4769 
 316   0.0000       2.641715        71.8847 
 317   0.0000       2.680599        72.9428 
 318   0.0000       2.688907        73.1689 
 319   0.0000       2.714531        73.8661 
 320   0.0000       2.722934        74.0948 
 321   0.0000       2.742133        74.6172 
 322   0.0000       2.771313        75.4113 
 323   0.0000       2.820295        76.7441 
 324   0.0000       2.837328        77.2076 
 325   0.0000       2.930777        79.7505 
 326   0.0000       2.989627        81.3519 
 327   0.0000       3.196278        86.9752 
 328   0.0000       3.434651        93.4616 

                 SPIN DOWN ORBITALS
  NO   OCC          E(Eh)            E(eV) 
   0   1.0000     -10.208924      -277.7989 
   1   1.0000     -10.195671      -277.4383 
   2   1.0000     -10.194330      -277.4018 
   3   1.0000     -10.188062      -277.2313 
   4   1.0000     -10.187832      -277.2250 
   5   1.0000     -10.187649      -277.2200 
   6   1.0000     -10.186253      -277.1820 
   7   1.0000     -10.185689      -277.1667 
   8   1.0000     -10.184434      -277.1325 
   9   1.0000     -10.183963      -277.1197 
  10   1.0000     -10.183180      -277.0984 
  11   1.0000     -10.181005      -277.0392 
  12   1.0000     -10.180727      -277.0317 
  13   1.0000     -10.180531      -277.0263 
  14   1.0000     -10.176981      -276.9297 
  15   1.0000     -10.175110      -276.8788 
  16   1.0000      -0.862256       -23.4632 
  17   1.0000      -0.808569       -22.0023 
  18   1.0000      -0.793260       -21.5857 
  19   1.0000      -0.779328       -21.2066 
  20   1.0000      -0.761417       -20.7192 
  21   1.0000      -0.726434       -19.7673 
  22   1.0000      -0.721470       -19.6322 
  23   1.0000      -0.693923       -18.8826 
  24   1.0000      -0.650402       -17.6983 
  25   1.0000      -0.619927       -16.8691 
  26   1.0000      -0.607259       -16.5244 
  27   1.0000      -0.587172       -15.9778 
  28   1.0000      -0.576492       -15.6871 
  29   1.0000      -0.556465       -15.1422 
  30   1.0000      -0.524098       -14.2614 
  31   1.0000      -0.492228       -13.3942 
  32   1.0000      -0.470461       -12.8019 
  33   1.0000      -0.468321       -12.7437 
  34   1.0000      -0.460388       -12.5278 
  35   1.0000      -0.458221       -12.4688 
  36   1.0000      -0.426229       -11.5983 
  37   1.0000      -0.424977       -11.5642 
  38   1.0000      -0.421506       -11.4698 
  39   1.0000      -0.416938       -11.3455 
  40   1.0000      -0.409726       -11.1492 
  41   1.0000      -0.387508       -10.5446 
  42   1.0000      -0.386429       -10.5153 
  43   1.0000      -0.372199       -10.1281 
  44   1.0000      -0.370762       -10.0890 
  45   1.0000      -0.361825        -9.8458 
  46   1.0000      -0.346581        -9.4309 
  47   1.0000      -0.344978        -9.3873 
  48   1.0000      -0.336096        -9.1456 
  49   1.0000      -0.330626        -8.9968 
  50   1.0000      -0.328517        -8.9394 
  51   1.0000      -0.324413        -8.8277 
  52   1.0000      -0.321875        -8.7587 
  53   1.0000      -0.320276        -8.7152 
  54   1.0000      -0.305561        -8.3147 
  55   1.0000      -0.271902        -7.3988 
  56   1.0000      -0.252749        -6.8776 
  57   1.0000      -0.228030        -6.2050 
  58   0.0000      -0.074555        -2.0287 
  59   0.0000      -0.022331        -0.6077 
  60   0.0000       0.033069         0.8998 
  61   0.0000       0.048585         1.3221 
  62   0.0000       0.063803         1.7362 
  63   0.0000       0.064005         1.7417 
  64   0.0000       0.078746         2.1428 
  65   0.0000       0.084697         2.3047 
  66   0.0000       0.089460         2.4343 
  67   0.0000       0.092040         2.5045 
  68   0.0000       0.094397         2.5687 
  69   0.0000       0.098173         2.6714 
  70   0.0000       0.099061         2.6956 
  71   0.0000       0.105166         2.8617 
  72   0.0000       0.112574         3.0633 
  73   0.0000       0.130468         3.5502 
  74   0.0000       0.133171         3.6238 
  75   0.0000       0.147443         4.0121 
  76   0.0000       0.150604         4.0982 
  77   0.0000       0.151188         4.1140 
  78   0.0000       0.160892         4.3781 
  79   0.0000       0.163390         4.4461 
  80   0.0000       0.169036         4.5997 
  81   0.0000       0.171309         4.6616 
  82   0.0000       0.175770         4.7829 
  83   0.0000       0.181431         4.9370 
  84   0.0000       0.196168         5.3380 
  85   0.0000       0.207350         5.6423 
  86   0.0000       0.213736         5.8161 
  87   0.0000       0.224867         6.1189 
  88   0.0000       0.232029         6.3138 
  89   0.0000       0.240608         6.5473 
  90   0.0000       0.255946         6.9646 
  91   0.0000       0.265552         7.2260 
  92   0.0000       0.283441         7.7128 
  93   0.0000       0.303544         8.2599 
  94   0.0000       0.319524         8.6947 
  95   0.0000       0.343381         9.3439 
  96   0.0000       0.348384         9.4800 
  97   0.0000       0.364961         9.9311 
  98   0.0000       0.370401        10.0791 
  99   0.0000       0.404757        11.0140 
 100   0.0000       0.411278        11.1914 
 101   0.0000       0.413644        11.2558 
 102   0.0000       0.414021        11.2661 
 103   0.0000       0.422086        11.4855 
 104   0.0000       0.434620        11.8266 
 105   0.0000       0.457016        12.4360 
 106   0.0000       0.461222        12.5505 
 107   0.0000       0.466931        12.7058 
 108   0.0000       0.470299        12.7975 
 109   0.0000       0.482382        13.1263 
 110   0.0000       0.488555        13.2943 
 111   0.0000       0.491081        13.3630 
 112   0.0000       0.495576        13.4853 
 113   0.0000       0.510531        13.8923 
 114   0.0000       0.514523        14.0009 
 115   0.0000       0.523796        14.2532 
 116   0.0000       0.525356        14.2957 
 117   0.0000       0.538123        14.6431 
 118   0.0000       0.539037        14.6679 
 119   0.0000       0.546378        14.8677 
 120   0.0000       0.555721        15.1219 
 121   0.0000       0.571180        15.5426 
 122   0.0000       0.573801        15.6139 
 123   0.0000       0.594213        16.1694 
 124   0.0000       0.597072        16.2472 
 125   0.0000       0.606480        16.5032 
 126   0.0000       0.617218        16.7953 
 127   0.0000       0.618500        16.8302 
 128   0.0000       0.621772        16.9193 
 129   0.0000       0.626511        17.0482 
 130   0.0000       0.640815        17.4375 
 131   0.0000       0.641218        17.4484 
 132   0.0000       0.645358        17.5611 
 133   0.0000       0.648138        17.6367 
 134   0.0000       0.653437        17.7809 
 135   0.0000       0.656116        17.8538 
 136   0.0000       0.659255        17.9392 
 137   0.0000       0.661529        18.0011 
 138   0.0000       0.662471        18.0268 
 139   0.0000       0.666561        18.1381 
 140   0.0000       0.670138        18.2354 
 141   0.0000       0.673427        18.3249 
 142   0.0000       0.685639        18.6572 
 143   0.0000       0.689490        18.7620 
 144   0.0000       0.691833        18.8257 
 145   0.0000       0.695913        18.9368 
 146   0.0000       0.697582        18.9822 
 147   0.0000       0.705828        19.2066 
 148   0.0000       0.712789        19.3960 
 149   0.0000       0.716523        19.4976 
 150   0.0000       0.730600        19.8806 
 151   0.0000       0.734923        19.9983 
 152   0.0000       0.738772        20.1030 
 153   0.0000       0.746481        20.3128 
 154   0.0000       0.749428        20.3930 
 155   0.0000       0.755302        20.5528 
 156   0.0000       0.765274        20.8242 
 157   0.0000       0.788466        21.4552 
 158   0.0000       0.815404        22.1883 
 159   0.0000       0.821715        22.3600 
 160   0.0000       0.835200        22.7269 
 161   0.0000       0.837838        22.7987 
 162   0.0000       0.843774        22.9603 
 163   0.0000       0.875257        23.8169 
 164   0.0000       0.892178        24.2774 
 165   0.0000       0.905813        24.6484 
 166   0.0000       0.926870        25.2214 
 167   0.0000       0.928024        25.2528 
 168   0.0000       0.951519        25.8922 
 169   0.0000       0.952495        25.9187 
 170   0.0000       0.961405        26.1611 
 171   0.0000       0.995176        27.0801 
 172   0.0000       0.997594        27.1459 
 173   0.0000       1.013704        27.5843 
 174   0.0000       1.022897        27.8345 
 175   0.0000       1.040043        28.3010 
 176   0.0000       1.041326        28.3359 
 177   0.0000       1.058384        28.8001 
 178   0.0000       1.062446        28.9106 
 179   0.0000       1.069044        29.0902 
 180   0.0000       1.085313        29.5329 
 181   0.0000       1.085509        29.5382 
 182   0.0000       1.135501        30.8986 
 183   0.0000       1.160384        31.5757 
 184   0.0000       1.187528        32.3143 
 185   0.0000       1.206142        32.8208 
 186   0.0000       1.210079        32.9279 
 187   0.0000       1.211786        32.9744 
 188   0.0000       1.218843        33.1664 
 189   0.0000       1.220528        33.2123 
 190   0.0000       1.225048        33.3352 
 191   0.0000       1.228114        33.4187 
 192   0.0000       1.236762        33.6540 
 193   0.0000       1.254365        34.1330 
 194   0.0000       1.287397        35.0318 
 195   0.0000       1.296957        35.2920 
 196   0.0000       1.312610        35.7179 
 197   0.0000       1.328046        36.1380 
 198   0.0000       1.341737        36.5105 
 199   0.0000       1.343233        36.5512 
 200   0.0000       1.359073        36.9823 
 201   0.0000       1.376680        37.4614 
 202   0.0000       1.379954        37.5505 
 203   0.0000       1.397776        38.0354 
 204   0.0000       1.416424        38.5429 
 205   0.0000       1.425446        38.7884 
 206   0.0000       1.426910        38.8282 
 207   0.0000       1.428546        38.8727 
 208   0.0000       1.442843        39.2618 
 209   0.0000       1.446339        39.3569 
 210   0.0000       1.468121        39.9496 
 211   0.0000       1.469691        39.9923 
 212   0.0000       1.473471        40.0952 
 213   0.0000       1.495690        40.6998 
 214   0.0000       1.501908        40.8690 
 215   0.0000       1.525487        41.5106 
 216   0.0000       1.533774        41.7361 
 217   0.0000       1.550409        42.1888 
 218   0.0000       1.574830        42.8533 
 219   0.0000       1.581857        43.0445 
 220   0.0000       1.592914        43.3454 
 221   0.0000       1.598482        43.4969 
 222   0.0000       1.603751        43.6403 
 223   0.0000       1.617779        44.0220 
 224   0.0000       1.623816        44.1863 
 225   0.0000       1.629186        44.3324 
 226   0.0000       1.631047        44.3831 
 227   0.0000       1.634644        44.4809 
 228   0.0000       1.637061        44.5467 
 229   0.0000       1.640718        44.6462 
 230   0.0000       1.646260        44.7970 
 231   0.0000       1.654005        45.0078 
 232   0.0000       1.659389        45.1543 
 233   0.0000       1.674375        45.5621 
 234   0.0000       1.679391        45.6985 
 235   0.0000       1.684776        45.8451 
 236   0.0000       1.686495        45.8919 
 237   0.0000       1.696186        46.1556 
 238   0.0000       1.696541        46.1652 
 239   0.0000       1.703311        46.3494 
 240   0.0000       1.705844        46.4184 
 241   0.0000       1.711404        46.5697 
 242   0.0000       1.714957        46.6664 
 243   0.0000       1.724970        46.9388 
 244   0.0000       1.733576        47.1730 
 245   0.0000       1.746323        47.5199 
 246   0.0000       1.754673        47.7471 
 247   0.0000       1.757024        47.8111 
 248   0.0000       1.760653        47.9098 
 249   0.0000       1.778345        48.3912 
 250   0.0000       1.783632        48.5351 
 251   0.0000       1.793547        48.8049 
 252   0.0000       1.799448        48.9655 
 253   0.0000       1.800416        48.9918 
 254   0.0000       1.820295        49.5327 
 255   0.0000       1.823172        49.6110 
 256   0.0000       1.826600        49.7043 
 257   0.0000       1.840113        50.0720 
 258   0.0000       1.860861        50.6366 
 259   0.0000       1.879643        51.1477 
 260   0.0000       1.888228        51.3813 
 261   0.0000       1.894493        51.5518 
 262   0.0000       1.911781        52.0222 
 263   0.0000       1.924554        52.3698 
 264   0.0000       1.930701        52.5371 
 265   0.0000       1.938100        52.7384 
 266   0.0000       1.944527        52.9133 
 267   0.0000       1.951555        53.1045 
 268   0.0000       1.973203        53.6936 
 269   0.0000       2.002139        54.4810 
 270   0.0000       2.004770        54.5526 
 271   0.0000       2.012002        54.7493 
 272   0.0000       2.035498        55.3887 
 273   0.0000       2.047617        55.7185 
 274   0.0000       2.064588        56.1803 
 275   0.0000       2.077826        56.5405 
 276   0.0000       2.090973        56.8983 
 277   0.0000       2.095502        57.0215 
 278   0.0000       2.119555        57.6760 
 279   0.0000       2.139103        58.2080 
 280   0.0000       2.156762        58.6885 
 281   0.0000       2.162112        58.8341 
 282   0.0000       2.174718        59.1771 
 283   0.0000       2.181139        59.3518 
 284   0.0000       2.188516        59.5526 
 285   0.0000       2.203193        59.9519 
 286   0.0000       2.210514        60.1512 
 287   0.0000       2.223983        60.5177 
 288   0.0000       2.225178        60.5502 
 289   0.0000       2.229239        60.6607 
 290   0.0000       2.264547        61.6214 
 291   0.0000       2.282451        62.1086 
 292   0.0000       2.289221        62.2929 
 293   0.0000       2.295883        62.4742 
 294   0.0000       2.300807        62.6081 
 295   0.0000       2.306797        62.7711 
 296   0.0000       2.321884        63.1817 
 297   0.0000       2.335750        63.5590 
 298   0.0000       2.356677        64.1284 
 299   0.0000       2.358147        64.1685 
 300   0.0000       2.407047        65.4991 
 301   0.0000       2.411493        65.6201 
 302   0.0000       2.413084        65.6634 
 303   0.0000       2.414231        65.6946 
 304   0.0000       2.414834        65.7110 
 305   0.0000       2.428776        66.0904 
 306   0.0000       2.447197        66.5916 
 307   0.0000       2.468208        67.1634 
 308   0.0000       2.475709        67.3675 
 309   0.0000       2.508053        68.2476 
 310   0.0000       2.536817        69.0303 
 311   0.0000       2.538005        69.0626 
 312   0.0000       2.558430        69.6184 
 313   0.0000       2.597327        70.6769 
 314   0.0000       2.597987        70.6948 
 315   0.0000       2.628006        71.5117 
 316   0.0000       2.643155        71.9239 
 317   0.0000       2.682594        72.9971 
 318   0.0000       2.690261        73.2057 
 319   0.0000       2.714802        73.8735 
 320   0.0000       2.723496        74.1101 
 321   0.0000       2.743291        74.6487 
 322   0.0000       2.772614        75.4467 
 323   0.0000       2.821525        76.7776 
 324   0.0000       2.838774        77.2470 
 325   0.0000       2.931216        79.7624 
 326   0.0000       2.992417        81.4278 
 327   0.0000       3.195733        86.9603 
 328   0.0000       3.436385        93.5088 

                    ********************************
                    * MULLIKEN POPULATION ANALYSIS *
                    ********************************

--------------------------------------------
MULLIKEN ATOMIC CHARGES AND SPIN POPULATIONS
--------------------------------------------
   0 C :    0.619795    0.027103
   1 C :    0.027365    0.218164
   2 C :    0.084743   -0.160666
   3 C :   -0.003490    0.222981
   4 C :   -0.043000   -0.104274
   5 C :   -0.085373    0.241209
   6 C :    0.026638   -0.113533
   7 H :   -0.052867   -0.009487
   8 H :   -0.043190    0.004242
   9 C :   -0.073414    0.737371
  10 H :   -0.038023   -0.032290
  11 C :    0.029276   -0.050512
  12 H :    0.027963    0.033386
  13 H :    0.028030    0.033256
  14 C :   -0.040640    0.002298
  15 H :    0.011597    0.000548
  16 H :    0.011597    0.000531
  17 C :    0.003456   -0.000200
  18 H :    0.017859    0.000165
  19 H :    0.017890    0.000165
  20 C :    0.042951   -0.019275
  21 H :    0.031047    0.010465
  22 H :    0.030920    0.010225
  23 C :   -0.035009    0.000877
  24 H :    0.014197    0.000171
  25 H :    0.014372    0.000151
  26 C :   -0.025346    0.000018
  27 H :    0.006023    0.000054
  28 H :    0.006035    0.000055
  29 C :    0.002983   -0.000083
  30 H :    0.016506    0.000024
  31 H :    0.016531    0.000023
  32 C :   -0.593756   -0.045204
  33 H :   -0.030708    0.001791
  34 H :    0.013193   -0.000212
  35 H :    0.012659   -0.000006
  36 H :   -0.048809   -0.009529
Sum of atomic charges         :   -0.0000000
Sum of atomic spin populations:    1.0000000

-----------------------------------------------------
MULLIKEN REDUCED ORBITAL CHARGES AND SPIN POPULATIONS
-----------------------------------------------------
CHARGE
  0 C s       :     3.121762  s :     3.121762
      pz      :     0.960600  p :     2.203825
      px      :     0.310100
      py      :     0.933125
      dz2     :     0.003540  d :     0.054618
      dxz     :     0.021528
      dyz     :     0.000195
      dx2y2   :     0.009139
      dxy     :     0.020216
  1 C s       :     3.152962  s :     3.152962
      pz      :     0.978353  p :     2.754628
      px      :     0.817495
      py      :     0.958781
      dz2     :     0.003121  d :     0.065044
      dxz     :     0.003641
      dyz     :     0.013309
      dx2y2   :     0.026520
      dxy     :     0.018452
  2 C s       :     3.097178  s :     3.097178
      pz      :     0.954356  p :     2.732462
      px      :     0.950737
      py      :     0.827368
      dz2     :     0.004610  d :     0.085617
      dxz     :     0.012727
      dyz     :     0.014083
      dx2y2   :     0.027115
      dxy     :     0.027083
  3 C s       :     3.216062  s :     3.216062
      pz      :     0.988257  p :     2.723785
      px      :     0.894455
      py      :     0.841072
      dz2     :     0.003379  d :     0.063644
      dxz     :     0.010237
      dyz     :     0.006904
      dx2y2   :     0.019125
      dxy     :     0.023999
  4 C s       :     3.220537  s :     3.220537
      pz      :     1.001445  p :     2.734529
      px      :     0.814088
      py      :     0.918996
      dz2     :     0.004703  d :     0.087934
      dxz     :     0.012315
      dyz     :     0.013948
      dx2y2   :     0.029925
      dxy     :     0.027043
  5 C s       :     3.173684  s :     3.173684
      pz      :     0.955796  p :     2.828274
      px      :     0.938073
      py      :     0.934406
      dz2     :     0.004701  d :     0.083415
      dxz     :     0.014084
      dyz     :     0.012178
      dx2y2   :     0.024557
      dxy     :     0.027895
  6 C s       :     3.128087  s :     3.128087
      pz      :     0.996559  p :     2.780201
      px      :     0.951687
      py      :     0.831955
      dz2     :     0.003039  d :     0.065074
      dxz     :     0.010733
      dyz     :     0.006632
      dx2y2   :     0.020057
      dxy     :     0.024612
  7 H s       :     1.024703  s :     1.024703
      pz      :     0.006264  p :     0.028165
      px      :     0.008522
      py      :     0.013379
  8 H s       :     1.014548  s :     1.014548
      pz      :     0.006196  p :     0.028642
      px      :     0.008342
      py      :     0.014103
  9 C s       :     3.220157  s :     3.220157
      pz      :     0.995786  p :     2.793806
[...]
 A(DIA)         -0.0001               0.0002               0.0001    A(PC) =   0.0001
             ----------           ----------           ----------
 A(Tot)          2.0185               2.8561               4.3009    A(iso)=    3.0585
 Orientation: 
  X           0.9979282           -0.0251929           -0.0591996
  Y          -0.0590761            0.0056191           -0.9982377
  Z           0.0254811            0.9996668            0.0041191

Notes:  (1) The A matrix conforms to the "SAI" spin Hamiltonian convention.
        (2) Tensor is right-handed.

 -----------------------------------------------------------
 Nucleus  34H : A:ISTP=    1 I=  0.5 P=533.5514 MHz/au**3
                Q:ISTP=    2 I=  1.0 Q=  0.0029 barn     
 -----------------------------------------------------------
 Solving for nuclear perturbation:
Forming RHS of the CP-SCF equations         ... 
Calc. nucleus orbit integrals (SHARK)       ... done

------------------------------------------------------------------------------
                           ORCA CP-SCF CALCULATION
------------------------------------------------------------------------------

Input orbitals are from        ... cc-pVDZ_i.gbw
Input Perturbation             ... cc-pVDZ_i.pin.tmp
Wavefunction output            ... cc-pVDZ_i.pout.tmp
Perturbation mode              ... Imaginary perturbation
Solver                         ... POPLE
Max. number of iterations      ... 64
Convergence tolerance          ... 1.000e-03
Integral handling              ... Direct
DFT GridXC                     ... 1
COSX GridX                     ... 1
COSX IntAccX                   ... 3.067
COSX Algorithm                 ... Auto
Number of perturbations        ... 3
Number of operators            ... 2
Orbital ranges used for CP-SCF:
 Operator 0:  Orbitals   0... 58  to  59...328
 Operator 1:  Orbitals   0... 57  to  58...328
Variables per perturbation     ... 31648
DFT calculation                         ... on
XC functional terms                     ... off
Hybrid DFT                              ... on
   Exchange mixing (SCF)                ...  0.200
   Exchange mixing (CP-SCF)             ...  0.200
   GGA exch. scaling(SCF)               ...  0.720
   GGA exch. scaling (CP-SCF)           ...  0.720
   GGA corr. scaling (SCF)              ...  0.810
   GGA corr. scaling (CP-SCF)           ...  0.810

CP-SCF GRID
-----------

General Integration Accuracy     IntAcc      ... 3.467
Radial Grid Type                 RadialGrid  ... OptM3 with GC (2021)
Angular Grid (max. ang.)         AngularGrid ... 1 (Lebedev-50)
Angular grid pruning method      GridPruning ... 4 (adaptive)
Weight generation scheme         WeightScheme... Becke
Basis function cutoff            BFCut       ... 1.0000e-10
Integration weight cutoff        WCut        ... 1.0000e-14
Angular grids for H and He will be reduced by one unit
Partially contracted basis set               ... off
Rotationally invariant grid construction     ... off

Total number of grid points                  ...    22946
Total number of batches                      ...      374
Average number of points per batch           ...       61
Average number of grid points per atom       ...      620

CP-SCF GRIDX
------------

General Integration Accuracy     IntAcc      ... 3.067
Radial Grid Type                 RadialGrid  ... OptM3 with GC (2021)
Angular Grid (max. ang.)         AngularGrid ... 1 (Lebedev-50)
Angular grid pruning method      GridPruning ... 4 (adaptive)
Weight generation scheme         WeightScheme... Becke
Basis function cutoff            BFCut       ... 1.0000e-10
Integration weight cutoff        WCut        ... 1.0000e-14
Angular grids for H and He will be reduced by one unit
Partially contracted basis set               ... on
Rotationally invariant grid construction     ... off

Total number of grid points                  ...    10826
Total number of batches                      ...      191
Average number of points per batch           ...       56
Average number of grid points per atom       ...      293

Memory available               ... 916.1 MB
Memory needed per perturbation ...   6.9 MB
Perturbations treated per batch... 3
Number of batches              ... 1
     CP-SCF ITERATION   0:   3.6473e-02 (   0.9 sec   0/  3 done)
     CP-SCF ITERATION   1:   5.8043e-04 (   1.0 sec   3/  3 done)
                    *** THE CP-SCF HAS CONVERGED ***

Forming final perturbed densities           ... done
Transforming perturbed density to AO basis  ... done

 Raw HFC matrix (all values in MHz): 
 -----------------------------------
                -0.7967               0.2880               0.0001
                 0.2879               0.7447               0.0013
                 0.0001               0.0013              -0.8196

 A(FC)          -0.2906              -0.2906              -0.2906
 A(SD)           1.0869              -0.5289              -0.5580
 A(ORB+DIA)      0.0005              -0.0001              -0.0001    A(PC) =   0.0001
 A(ORB)          0.0004               0.0000              -0.0001    A(PC) =   0.0001
 A(DIA)          0.0001              -0.0001              -0.0000    A(PC) =  -0.0000
             ----------           ----------           ----------
 A(Tot)          0.7967              -0.8196              -0.8487    A(iso)=   -0.2905
 Orientation: 
  X           0.1778359            0.0055885           -0.9840443
  Y           0.9840598           -0.0001674            0.1778377
  Z           0.0008291           -0.9999844           -0.0055292

Notes:  (1) The A matrix conforms to the "SAI" spin Hamiltonian convention.
        (2) Tensor is right-handed.

 -----------------------------------------------------------
 Nucleus  35H : A:ISTP=    1 I=  0.5 P=533.5514 MHz/au**3
                Q:ISTP=    2 I=  1.0 Q=  0.0029 barn     
 -----------------------------------------------------------
 Solving for nuclear perturbation:
Forming RHS of the CP-SCF equations         ... 
Calc. nucleus orbit integrals (SHARK)       ... done

------------------------------------------------------------------------------
                           ORCA CP-SCF CALCULATION
------------------------------------------------------------------------------

Input orbitals are from        ... cc-pVDZ_i.gbw
Input Perturbation             ... cc-pVDZ_i.pin.tmp
Wavefunction output            ... cc-pVDZ_i.pout.tmp
Perturbation mode              ... Imaginary perturbation
Solver                         ... POPLE
Max. number of iterations      ... 64
Convergence tolerance          ... 1.000e-03
Integral handling              ... Direct
DFT GridXC                     ... 1
COSX GridX                     ... 1
COSX IntAccX                   ... 3.067
COSX Algorithm                 ... Auto
Number of perturbations        ... 3
Number of operators            ... 2
Orbital ranges used for CP-SCF:
 Operator 0:  Orbitals   0... 58  to  59...328
 Operator 1:  Orbitals   0... 57  to  58...328
Variables per perturbation     ... 31648
DFT calculation                         ... on
XC functional terms                     ... off
Hybrid DFT                              ... on
   Exchange mixing (SCF)                ...  0.200
   Exchange mixing (CP-SCF)             ...  0.200
   GGA exch. scaling(SCF)               ...  0.720
   GGA exch. scaling (CP-SCF)           ...  0.720
   GGA corr. scaling (SCF)              ...  0.810
   GGA corr. scaling (CP-SCF)           ...  0.810

CP-SCF GRID
-----------

General Integration Accuracy     IntAcc      ... 3.467
Radial Grid Type                 RadialGrid  ... OptM3 with GC (2021)
Angular Grid (max. ang.)         AngularGrid ... 1 (Lebedev-50)
Angular grid pruning method      GridPruning ... 4 (adaptive)
Weight generation scheme         WeightScheme... Becke
Basis function cutoff            BFCut       ... 1.0000e-10
Integration weight cutoff        WCut        ... 1.0000e-14
Angular grids for H and He will be reduced by one unit
Partially contracted basis set               ... off
Rotationally invariant grid construction     ... off

Total number of grid points                  ...    22946
Total number of batches                      ...      374
Average number of points per batch           ...       61
Average number of grid points per atom       ...      620

CP-SCF GRIDX
------------

General Integration Accuracy     IntAcc      ... 3.067
Radial Grid Type                 RadialGrid  ... OptM3 with GC (2021)
Angular Grid (max. ang.)         AngularGrid ... 1 (Lebedev-50)
Angular grid pruning method      GridPruning ... 4 (adaptive)
Weight generation scheme         WeightScheme... Becke
Basis function cutoff            BFCut       ... 1.0000e-10
Integration weight cutoff        WCut        ... 1.0000e-14
Angular grids for H and He will be reduced by one unit
Partially contracted basis set               ... on
Rotationally invariant grid construction     ... off

Total number of grid points                  ...    10826
Total number of batches                      ...      191
Average number of points per batch           ...       56
Average number of grid points per atom       ...      293

Memory available               ... 915.7 MB
Memory needed per perturbation ...   6.9 MB
Perturbations treated per batch... 3
Number of batches              ... 1
     CP-SCF ITERATION   0:   3.6571e-02 (   1.0 sec   0/  3 done)
     CP-SCF ITERATION   1:   6.0292e-04 (   1.0 sec   3/  3 done)
                    *** THE CP-SCF HAS CONVERGED ***

Forming final perturbed densities           ... done
Transforming perturbed density to AO basis  ... done

 Raw HFC matrix (all values in MHz): 
 -----------------------------------
                -0.1286               0.0562              -0.0000
                 0.0562               0.2411               0.0006
                -0.0000               0.0006              -0.1334

 A(FC)          -0.0070              -0.0070              -0.0070
 A(SD)          -0.1264              -0.1300               0.2564
 A(ORB+DIA)      0.0000               0.0000               0.0001    A(PC) =   0.0000
 A(ORB)          0.0000              -0.0000               0.0001    A(PC) =   0.0000
 A(DIA)          0.0000               0.0000               0.0000    A(PC) =   0.0000
             ----------           ----------           ----------
 A(Tot)         -0.1334              -0.1370               0.2495    A(iso)=   -0.0070
 Orientation: 
  X          -0.0262801            0.9888020            0.1469014
  Y           0.0023330           -0.1468911            0.9891499
  Z           0.9996519            0.0263377            0.0015535

Notes:  (1) The A matrix conforms to the "SAI" spin Hamiltonian convention.
        (2) Tensor is right-handed.

 -----------------------------------------------------------
 Nucleus  36H : A:ISTP=    1 I=  0.5 P=533.5514 MHz/au**3
                Q:ISTP=    2 I=  1.0 Q=  0.0029 barn     
 -----------------------------------------------------------
 Solving for nuclear perturbation:
Forming RHS of the CP-SCF equations         ... 
Calc. nucleus orbit integrals (SHARK)       ... done

------------------------------------------------------------------------------
                           ORCA CP-SCF CALCULATION
------------------------------------------------------------------------------

Input orbitals are from        ... cc-pVDZ_i.gbw
Input Perturbation             ... cc-pVDZ_i.pin.tmp
Wavefunction output            ... cc-pVDZ_i.pout.tmp
Perturbation mode              ... Imaginary perturbation
Solver                         ... POPLE
Max. number of iterations      ... 64
Convergence tolerance          ... 1.000e-03
Integral handling              ... Direct
DFT GridXC                     ... 1
COSX GridX                     ... 1
COSX IntAccX                   ... 3.067
COSX Algorithm                 ... Auto
Number of perturbations        ... 3
Number of operators            ... 2
Orbital ranges used for CP-SCF:
 Operator 0:  Orbitals   0... 58  to  59...328
 Operator 1:  Orbitals   0... 57  to  58...328
Variables per perturbation     ... 31648
DFT calculation                         ... on
XC functional terms                     ... off
Hybrid DFT                              ... on
   Exchange mixing (SCF)                ...  0.200
   Exchange mixing (CP-SCF)             ...  0.200
   GGA exch. scaling(SCF)               ...  0.720
   GGA exch. scaling (CP-SCF)           ...  0.720
   GGA corr. scaling (SCF)              ...  0.810
   GGA corr. scaling (CP-SCF)           ...  0.810

CP-SCF GRID
-----------

General Integration Accuracy     IntAcc      ... 3.467
Radial Grid Type                 RadialGrid  ... OptM3 with GC (2021)
Angular Grid (max. ang.)         AngularGrid ... 1 (Lebedev-50)
Angular grid pruning method      GridPruning ... 4 (adaptive)
Weight generation scheme         WeightScheme... Becke
Basis function cutoff            BFCut       ... 1.0000e-10
Integration weight cutoff        WCut        ... 1.0000e-14
Angular grids for H and He will be reduced by one unit
Partially contracted basis set               ... off
Rotationally invariant grid construction     ... off

Total number of grid points                  ...    22946
Total number of batches                      ...      374
Average number of points per batch           ...       61
Average number of grid points per atom       ...      620

CP-SCF GRIDX
------------

General Integration Accuracy     IntAcc      ... 3.067
Radial Grid Type                 RadialGrid  ... OptM3 with GC (2021)
Angular Grid (max. ang.)         AngularGrid ... 1 (Lebedev-50)
Angular grid pruning method      GridPruning ... 4 (adaptive)
Weight generation scheme         WeightScheme... Becke
Basis function cutoff            BFCut       ... 1.0000e-10
Integration weight cutoff        WCut        ... 1.0000e-14
Angular grids for H and He will be reduced by one unit
Partially contracted basis set               ... on
Rotationally invariant grid construction     ... off

Total number of grid points                  ...    10826
Total number of batches                      ...      191
Average number of points per batch           ...       56
Average number of grid points per atom       ...      293

Memory available               ... 915.4 MB
Memory needed per perturbation ...   6.9 MB
Perturbations treated per batch... 3
Number of batches              ... 1
     CP-SCF ITERATION   0:   4.4615e-02 (   0.9 sec   0/  3 done)
     CP-SCF ITERATION   1:   2.0060e-03 (   1.0 sec   0/  3 done)
     CP-SCF ITERATION   2:   1.0742e-04 (   1.0 sec   3/  3 done)
                    *** THE CP-SCF HAS CONVERGED ***

Forming final perturbed densities           ... done
Transforming perturbed density to AO basis  ... done

 Raw HFC matrix (all values in MHz): 
 -----------------------------------
                -6.6801              -1.6971               0.1889
                -1.6947             -19.1205              -0.0173
                 0.1889              -0.0174             -16.4627

 A(FC)         -14.0901             -14.0901             -14.0901
 A(SD)           7.6393              -2.3755              -5.2639
 A(ORB+DIA)      0.0013              -0.0007               0.0064    A(PC) =   0.0024
 A(ORB)         -0.0001               0.0002               0.0064    A(PC) =   0.0022
 A(DIA)          0.0014              -0.0009              -0.0000    A(PC) =   0.0002
             ----------           ----------           ----------
 A(Tot)         -6.4494             -16.4663             -19.3476    A(iso)=  -14.0877
 Orientation: 
  X          -0.9909690           -0.0183913            0.1328237
  Y           0.1327490            0.0052302            0.9911359
  Z          -0.0189230            0.9998172           -0.0027416

Notes:  (1) The A matrix conforms to the "SAI" spin Hamiltonian convention.
        (2) Tensor is right-handed.


--------------------------------------------------------------------------------
----------------------------------------------------------------------------
                           ORCA EULER ANGLE PROGRAM
----------------------------------------------------------------------------

Only g-tensor available        -->  using g-tensor as reference tensor

Reference tensor               ...  g

g-tensor ordering              ...  |g_min> --> |gx>
                                    |g_mid> --> |gy>
                                    |g_max> --> |gz>

A- and EFG-tensor ordering     ...  the axes |Ax>, |Qx>, |Ay>, etc. are assigned
                                    such that the Euler rotation is minimal. You
                                    can find the respective eigenvalues as Ax,
                                    EFGx, Ay, etc. in the tables below.
                                    The relation of |Ax>, |Ay>,  etc. to Amin, Amid, etc.
                                    (as printed in the ORCA EPR/NMR CALCULATION Output)
                                    is obtained in the detailed printout.

Euler rotation around          ...  z - y - z
   First rotation              -->  by alpha around z
   Second rotation             -->  by beta around y'
   Third rotation              -->  by gamma around z''
   Positive / Negative angle   -->  clockwise / counterclockwise rotation

Plot EFG-tensors                    (-)
Plot HFC-tensors                    (-)
Detailed Printout                   (-)

-------------------------------------------------------------------------
          Euler rotation of hyperfine tensor to g-tensor
-------------------------------------------------------------------------

-------------------------------------------------------------------
 Atom  |   Alpha    Beta    Gamma   |   Ax       Ay       Az 
       |          [degrees]         |           [MHz]         
-------------------------------------------------------------------
  7H      -92.1      2.3     92.2     -16.35    -6.89   -19.97
  8H      -90.1      2.4     90.2       3.83     4.76     9.26
 10H      -89.9     44.8     90.0     -47.81   -73.85   -17.41
 12H      -23.1     12.3      5.2      60.22    70.30    61.54
 13H     -156.6     11.8    174.5      59.92    69.99    61.25
 15H       17.8     27.2    -56.9      -3.37    -3.20     3.33
 16H      162.3     27.0   -122.4      -3.36    -3.20     3.33
 18H     -129.0     48.7    153.2      -0.09     2.36     0.04
 19H      -50.7     49.2     26.5      -0.10     2.36     0.04
 21H     -146.9     17.5   -170.6      21.05    21.64    24.93
 22H      -33.3     17.1     -8.1      20.60    21.17    24.47
 24H      -89.6     29.3    104.0      -0.97     1.10    -0.87
 25H      -93.4     29.3     80.1      -0.95     1.09    -0.86
 27H       71.5     31.0   -106.5      -0.13    -0.18     0.82
 28H      108.4     30.8    -72.6      -0.13    -0.17     0.82
 30H      -93.2     41.0     84.9      -0.13     0.40    -0.11
 31H      -88.3     40.9     97.8      -0.13     0.40    -0.11
 33H       89.6     43.9    -90.0       2.86     2.02     4.30
 34H       90.6     37.0    -89.7      -0.82    -0.85     0.80
 35H       89.3     38.8    -89.6      -0.13    -0.14     0.25
 36H       90.0     39.7    -90.0     -16.47    -6.45   -19.35
-------------------------------------------------------------------


Maximum memory used throughout the entire EPRNMR-calculation: 148.1 MB

Timings for individual modules:

Sum of individual times         ...     1468.229 sec (=  24.470 min)
GTO integral calculation        ...        3.715 sec (=   0.062 min)   0.3 %
Spin-Orbit-Coupling Matrices    ...        5.838 sec (=   0.097 min)   0.4 %
SCF iterations                  ...       18.655 sec (=   0.311 min)   1.3 %
EPR/NMR calculation             ...     1440.021 sec (=  24.000 min)  98.1 %
                             ****ORCA TERMINATED NORMALLY****
TOTAL RUN TIME: 0 days 0 hours 24 minutes 32 seconds 234 msec
