
                                 *****************
                                 * O   R   C   A *
                                 *****************

                                            #,                                       
                                            ###                                      
                                            ####                                     
                                            #####                                    
                                            ######                                   
                                           ########,                                 
                                     ,,################,,,,,                         
                               ,,#################################,,                 
                          ,,##########################################,,             
                       ,#########################################, ''#####,          
                    ,#############################################,,   '####,        
                  ,##################################################,,,,####,       
                ,###########''''           ''''###############################       
              ,#####''   ,,,,##########,,,,          '''####'''          '####       
            ,##' ,,,,###########################,,,                        '##       
           ' ,,###''''                  '''############,,,                           
         ,,##''                                '''############,,,,        ,,,,,,###''
      ,#''                                            '''#######################'''  
     '                                                          ''''####''''         
             ,#######,   #######,   ,#######,      ##                                
            ,#'     '#,  ##    ##  ,#'     '#,    #''#        ######   ,####,        
            ##       ##  ##   ,#'  ##            #'  '#       #        #'  '#        
            ##       ##  #######   ##           ,######,      #####,   #    #        
            '#,     ,#'  ##    ##  '#,     ,#' ,#      #,         ##   #,  ,#        
             '#######'   ##     ##  '#######'  #'      '#     #####' # '####'        



                  #######################################################
                  #                        -***-                        #
                  #          Department of theory and spectroscopy      #
                  #    Directorship and core code : Frank Neese         #
                  #        Max Planck Institute fuer Kohlenforschung    #
                  #                Kaiser Wilhelm Platz 1               #
                  #                 D-45470 Muelheim/Ruhr               #
                  #                      Germany                        #
                  #                                                     #
                  #                  All rights reserved                #
                  #                        -***-                        #
                  #######################################################


                         Program Version 5.0.4 -  RELEASE  -


 With contributions from (in alphabetic order):
   Daniel Aravena         : Magnetic Suceptibility
   Michael Atanasov       : Ab Initio Ligand Field Theory (pilot matlab implementation)
   Alexander A. Auer      : GIAO ZORA, VPT2 properties, NMR spectrum
   Ute Becker             : Parallelization
   Giovanni Bistoni       : ED, misc. LED, open-shell LED, HFLD
   Martin Brehm           : Molecular dynamics
   Dmytro Bykov           : SCF Hessian
   Vijay G. Chilkuri      : MRCI spin determinant printing, contributions to CSF-ICE
   Dipayan Datta          : RHF DLPNO-CCSD density
   Achintya Kumar Dutta   : EOM-CC, STEOM-CC
   Dmitry Ganyushin       : Spin-Orbit,Spin-Spin,Magnetic field MRCI
   Miquel Garcia          : C-PCM and meta-GGA Hessian, CC/C-PCM, Gaussian charge scheme
   Yang Guo               : DLPNO-NEVPT2, F12-NEVPT2, CIM, IAO-localization
   Andreas Hansen         : Spin unrestricted coupled pair/coupled cluster methods
   Benjamin Helmich-Paris : MC-RPA, TRAH-SCF, COSX integrals
   Lee Huntington         : MR-EOM, pCC
   Robert Izsak           : Overlap fitted RIJCOSX, COSX-SCS-MP3, EOM
   Marcus Kettner         : VPT2
   Christian Kollmar      : KDIIS, OOCD, Brueckner-CCSD(T), CCSD density, CASPT2, CASPT2-K
   Simone Kossmann        : Meta GGA functionals, TD-DFT gradient, OOMP2, MP2 Hessian
   Martin Krupicka        : Initial AUTO-CI
   Lucas Lang             : DCDCAS
   Marvin Lechner         : AUTO-CI (C++ implementation), FIC-MRCC
   Dagmar Lenk            : GEPOL surface, SMD
   Dimitrios Liakos       : Extrapolation schemes; Compound Job, initial MDCI parallelization
   Dimitrios Manganas     : Further ROCIS development; embedding schemes
   Dimitrios Pantazis     : SARC Basis sets
   Anastasios Papadopoulos: AUTO-CI, single reference methods and gradients
   Taras Petrenko         : DFT Hessian,TD-DFT gradient, ASA, ECA, R-Raman, ABS, FL, XAS/XES, NRVS
   Peter Pinski           : DLPNO-MP2, DLPNO-MP2 Gradient
   Christoph Reimann      : Effective Core Potentials
   Marius Retegan         : Local ZFS, SOC
   Christoph Riplinger    : Optimizer, TS searches, QM/MM, DLPNO-CCSD(T), (RO)-DLPNO pert. Triples
   Tobias Risthaus        : Range-separated hybrids, TD-DFT gradient, RPA, STAB
   Michael Roemelt        : Original ROCIS implementation
   Masaaki Saitow         : Open-shell DLPNO-CCSD energy and density
   Barbara Sandhoefer     : DKH picture change effects
   Avijit Sen             : IP-ROCIS
   Kantharuban Sivalingam : CASSCF convergence, NEVPT2, FIC-MRCI
   Bernardo de Souza      : ESD, SOC TD-DFT
   Georgi Stoychev        : AutoAux, RI-MP2 NMR, DLPNO-MP2 response
   Willem Van den Heuvel  : Paramagnetic NMR
   Boris Wezisla          : Elementary symmetry handling
   Frank Wennmohs         : Technical directorship


 We gratefully acknowledge several colleagues who have allowed us to
 interface, adapt or use parts of their codes:
   Stefan Grimme, W. Hujo, H. Kruse, P. Pracht,  : VdW corrections, initial TS optimization,
                  C. Bannwarth, S. Ehlert          DFT functionals, gCP, sTDA/sTD-DF
   Ed Valeev, F. Pavosevic, A. Kumar             : LibInt (2-el integral package), F12 methods
   Garnet Chan, S. Sharma, J. Yang, R. Olivares  : DMRG
   Ulf Ekstrom                                   : XCFun DFT Library
   Mihaly Kallay                                 : mrcc  (arbitrary order and MRCC methods)
   Jiri Pittner, Ondrej Demel                    : Mk-CCSD
   Frank Weinhold                                : gennbo (NPA and NBO analysis)
   Christopher J. Cramer and Donald G. Truhlar   : smd solvation model
   Lars Goerigk                                  : TD-DFT with DH, B97 family of functionals
   V. Asgeirsson, H. Jonsson                     : NEB implementation
   FAccTs GmbH                                   : IRC, NEB, NEB-TS, DLPNO-Multilevel, CI-OPT
                                                   MM, QMMM, 2- and 3-layer-ONIOM, Crystal-QMMM,
                                                   LR-CPCM, SF, NACMEs, symmetry and pop. for TD-DFT,
                                                   nearIR, NL-DFT gradient (VV10), updates on ESD,
                                                   ML-optimized integration grids
   S Lehtola, MJT Oliveira, MAL Marques          : LibXC Library
   Liviu Ungur et al                             : ANISO software


 Your calculation uses the libint2 library for the computation of 2-el integrals
 For citations please refer to: http://libint.valeyev.net

 Your ORCA version has been built with support for libXC version: 5.1.0
 For citations please refer to: https://tddft.org/programs/libxc/

 This ORCA versions uses:
   CBLAS   interface :  Fast vector & matrix operations
   LAPACKE interface :  Fast linear algebra routines
   SCALAPACK package :  Parallel linear algebra routines
   Shared memory     :  Shared parallel matrices
   BLAS/LAPACK       :  OpenBLAS 0.3.15  USE64BITINT DYNAMIC_ARCH NO_AFFINITY SkylakeX SINGLE_THREADED
        Core in use  :  SkylakeX
   Copyright (c) 2011-2014, The OpenBLAS Project




***************************************
The coordinates will be read from file: opt.xyz
***************************************


================================================================================

----- Orbital basis set information -----
Your calculation utilizes the basis: cc-pVDZ 
       H, B-Ne : Obtained from the ccRepo (grant-hill.group.shef.ac.uk/ccrepo) Feb. 2017
                 T. H. Dunning, Jr., J. Chem. Phys. 90, 1007 (1989)
            He : Obtained from the ccRepo (grant-hill.group.shef.ac.uk/ccrepo) Feb. 2017
                 D. E. Woon, T. H. Dunning, Jr., J. Chem. Phys. 100, 2975 (1994)
  Li-Be, Na-Mg : Obtained from the ccRepo (grant-hill.group.shef.ac.uk/ccrepo) Feb. 2017
                 B. P. Prascher, D. E. Woon, K. A. Peterson, T. H. Dunning, Jr., A. K. Wilson, Theor. Chem. Acc. 128, 69 (2011)
         Al-Ar : Obtained from the ccRepo (grant-hill.group.shef.ac.uk/ccrepo) Feb. 2017
                 D. E. Woon, T. H. Dunning, Jr., J. Chem. Phys. 98, 1358 (1993)
            Ca : Obtained from the Peterson Research Group Website (tyr0.chem.wsu.edu/~kipeters) Feb. 2017
                 J. Koput, K. A. Peterson, J. Phys. Chem. 106, 9595 (2002)
         Sc-Zn : Obtained from the ccRepo (grant-hill.group.shef.ac.uk/ccrepo) Feb. 2017
                 N. B. Balabanov, K. A. Peterson, J. Chem. Phys. 123, 064107 (2005)
                 N. B. Balabanov, K. A. Peterson, J. Chem. Phys. 125, 074110 (2006)
         Ga-Kr : Obtained from the ccRepo (grant-hill.group.shef.ac.uk/ccrepo) Feb. 2017
                 A. K. Wilson, D. E. Woon, K. A. Peterson, T. H. Dunning, Jr., J. Chem. Phys. 110, 7667 (1999)

----- AuxJ basis set information -----
Your calculation utilizes the AutoAux generation procedure.
  G. L. Stoychev, A. A. Auer, F. Neese, J. Chem. Theory Comput. 13, 554 (2017)

----- AuxC basis set information -----
Your calculation utilizes the AutoAux generation procedure.
  G. L. Stoychev, A. A. Auer, F. Neese, J. Chem. Theory Comput. 13, 554 (2017)

----- AuxJK basis set information -----
Your calculation utilizes the AutoAux generation procedure.
  G. L. Stoychev, A. A. Auer, F. Neese, J. Chem. Theory Comput. 13, 554 (2017)

================================================================================
                                        WARNINGS
                       Please study these warnings very carefully!
================================================================================

WARNING: Old DensityContainer found on disk!
         Will remove this file - 
         If you want to keep old densities, please start your calculation with a different basename. 


WARNING: your system is open-shell and RHF/RKS was chosen
  ===> : WILL SWITCH to UHF/UKS


INFO   : the flag for use of the SHARK integral package has been found!

================================================================================
                                       INPUT FILE
================================================================================
NAME = cc-pVDZ.inp
|  1> ! B3LYP cc-pVDZ AUTOAUX
|  2> %pal nprocs 16 end
|  3> *XYZFile 0 2 opt.xyz
|  4> %EPRNMR
|  5>         GTENSOR   TRUE
|  6>         NUCLEI    = ALL H {SHIFT, AISO, ADIP, AORB}
|  7>         ORI       CenterOfElCharge
|  8> END
|  9> 
| 10>                          ****END OF INPUT****
================================================================================

                       ****************************
                       * Single Point Calculation *
                       ****************************

---------------------------------
CARTESIAN COORDINATES (ANGSTROEM)
---------------------------------
  C     -2.934073   -0.018766   -0.033821
  C      1.296326    0.061617    0.042355
  C      0.590316    1.299012    0.023646
  C     -0.830012    1.218758   -0.002083
  C     -1.498941   -0.010710   -0.008376
  C     -0.774370   -1.238300    0.010896
  C      0.629305   -1.156514    0.035978
  H     -1.426643    2.131592   -0.017243
  H      1.218068   -2.074806    0.050925
  C      1.286599    2.534948    0.031266
  H      2.380846    2.491530    0.052874
  C      0.640774    3.887237    0.012787
  H     -0.012358    3.982869   -0.879700
  H     -0.049610    3.989014    0.876092
  C      1.643397    5.048244    0.030137
  H      2.282865    4.958144    0.927400
  H      2.320748    4.952086   -0.838264
  C      0.972655    6.422996    0.011073
  H      0.314265    6.559972    0.886339
  H      0.351320    6.553366   -0.891860
  C     -1.525236   -2.553953    0.005144
  H     -2.211934   -2.565966    0.872443
  H     -2.196235   -2.567265   -0.874138
  C     -0.682959   -3.832515    0.013733
  H     -0.008492   -3.844031   -0.862466
  H     -0.029866   -3.846912    0.905937
  C     -1.540346   -5.103812    0.002012
  H     -2.217942   -5.093520    0.875899
  H     -2.195918   -5.092106   -0.888500
  C     -0.711165   -6.390340    0.011269
  H     -0.071581   -6.448752    0.909014
  H     -0.048195   -6.446330   -0.869486
  C     -4.149637   -0.020449   -0.056778
  H     -5.221734   -0.017269   -0.080213
  H      1.717399    7.235047    0.023638
  H     -1.353742   -7.285750    0.001613
  H      2.389514    0.078501    0.062394

----------------------------
CARTESIAN COORDINATES (A.U.)
----------------------------
  NO LB      ZA    FRAG     MASS         X           Y           Z
   0 C     6.0000    0    12.011   -5.544595   -0.035462   -0.063912
   1 C     6.0000    0    12.011    2.449702    0.116440    0.080040
   2 C     6.0000    0    12.011    1.115535    2.454777    0.044685
   3 C     6.0000    0    12.011   -1.568496    2.303118   -0.003936
   4 C     6.0000    0    12.011   -2.832588   -0.020239   -0.015828
   5 C     6.0000    0    12.011   -1.463347   -2.340047    0.020591
   6 C     6.0000    0    12.011    1.189213   -2.185496    0.067989
   7 H     1.0000    0     1.008   -2.695965    4.028126   -0.032585
   8 H     1.0000    0     1.008    2.301815   -3.920815    0.096233
   9 C     6.0000    0    12.011    2.431319    4.790357    0.059083
  10 H     1.0000    0     1.008    4.499146    4.708310    0.099917
  11 C     6.0000    0    12.011    1.210887    7.345813    0.024163
  12 H     1.0000    0     1.008   -0.023354    7.526532   -1.662393
  13 H     1.0000    0     1.008   -0.093748    7.538145    1.655575
  14 C     6.0000    0    12.011    3.105570    9.539799    0.056950
  15 H     1.0000    0     1.008    4.313990    9.369534    1.752532
  16 H     1.0000    0     1.008    4.385578    9.358086   -1.584090
  17 C     6.0000    0    12.011    1.838051   12.137704    0.020924
  18 H     1.0000    0     1.008    0.593874   12.396551    1.674939
  19 H     1.0000    0     1.008    0.663899   12.384067   -1.685372
  20 C     6.0000    0    12.011   -2.882279   -4.826272    0.009722
  21 H     1.0000    0     1.008   -4.179950   -4.848972    1.648678
  22 H     1.0000    0     1.008   -4.150282   -4.851428   -1.651882
  23 C     6.0000    0    12.011   -1.290606   -7.242403    0.025952
  24 H     1.0000    0     1.008   -0.016048   -7.264166   -1.629825
  25 H     1.0000    0     1.008   -0.056439   -7.269610    1.711973
  26 C     6.0000    0    12.011   -2.910832   -9.644806    0.003802
  27 H     1.0000    0     1.008   -4.191303   -9.625357    1.655210
  28 H     1.0000    0     1.008   -4.149684   -9.622686   -1.679022
  29 C     6.0000    0    12.011   -1.343908  -12.075992    0.021295
  30 H     1.0000    0     1.008   -0.135268  -12.186376    1.717787
  31 H     1.0000    0     1.008   -0.091074  -12.181798   -1.643091
  32 C     6.0000    0    12.011   -7.841677   -0.038643   -0.107294
  33 H     1.0000    0     1.008   -9.867647   -0.032633   -0.151580
  34 H     1.0000    0     1.008    3.245413   13.672258    0.044669
  35 H     1.0000    0     1.008   -2.558202  -13.768072    0.003049
  36 H     1.0000    0     1.008    4.515527    0.148345    0.117908

--------------------------------
INTERNAL COORDINATES (ANGSTROEM)
--------------------------------
 C      0   0   0     0.000000000000     0.00000000     0.00000000
 C      1   0   0     4.231848939847     0.00000000     0.00000000
 C      2   1   0     1.424762060632    61.37344351     0.00000000
 C      3   2   1     1.422825886963   116.48151840     0.00000000
 C      4   3   2     1.399677359441   121.78305841     0.00000000
 C      5   4   3     1.425605629839   120.89196210     0.00000000
 C      2   1   3     1.388813772745    60.20751446   180.00689524
 H      4   3   2     1.090626055393   119.94276010   179.99792087
 H      7   2   1     1.090928671512   118.62250577   180.00005822
 C      3   2   1     1.418592591911   120.88899395   179.95563514
 H     10   3   2     1.095321098643   117.12389638   359.94844694
 C     10   3   2     1.498705157018   125.06816424   179.98164747
 H     12  10   3     1.110072117945   109.94925009   302.56206846
 H     12  10   3     1.110083212556   109.94621140    57.16239201
 C     12  10   3     1.534109735725   113.64635141   179.85516404
 H     15  12  10     1.105494941857   108.99853322   302.34391275
 H     15  12  10     1.105518470360   109.00932731    57.64727482
 C     15  12  10     1.529771797325   113.16672195   180.00099529
 H     18  15  12     1.103780613789   111.29528058    59.88161723
 H     18  15  12     1.103784895252   111.29386069   300.17982201
 C      6   5   4     1.514852331370   119.72846641   179.92922622
 H     21   6   5     1.106302396969   108.30789276   303.18976293
 H     21   6   5     1.106143653315   108.30943594    55.70878025
 C     21   6   5     1.531085820367   116.90814177   179.45460909
 H     24  21   6     1.105786818929   109.86424906   301.96965616
 H     24  21   6     1.105787266606   109.89547614    58.46843302
 C     24  21   6     1.533442247174   112.62413367   180.20133835
 H     27  24  21     1.105857717831   109.19832109   302.38643287
 H     27  24  21     1.105858913116   109.19832160    57.68661707
 C     27  24  21     1.530614619735   113.19729136   180.03394763
 H     30  27  24     1.103823611824   111.30244500    59.90416299
 H     30  27  24     1.103809094676   111.29589034   300.19584285
 C      1   2   3     1.215781472594   178.98969451     2.58275710
 H     33   1   5     1.072357782986   179.69813644    19.04955831
 H     18  15  12     1.101920293683   111.45587995   180.02775680
 H     30  27  24     1.102160184204   111.52875570   180.05131216
 H      2   1   3     1.093501760516   179.79545470   175.07056308

---------------------------
INTERNAL COORDINATES (A.U.)
---------------------------
 C      0   0   0     0.000000000000     0.00000000     0.00000000
 C      1   0   0     7.997035536435     0.00000000     0.00000000
 C      2   1   0     2.692410100595    61.37344351     0.00000000
 C      3   2   1     2.688751262613   116.48151840     0.00000000
 C      4   3   2     2.645006885193   121.78305841     0.00000000
 C      5   4   3     2.694004215372   120.89196210     0.00000000
 C      2   1   3     2.624477681505    60.20751446   180.00689524
 H      4   3   2     2.060984559211   119.94276010   179.99792087
 H      7   2   1     2.061556420801   118.62250577   180.00005822
 C      3   2   1     2.680751494321   120.88899395   179.95563514
 H     10   3   2     2.069856905141   117.12389638   359.94844694
 C     10   3   2     2.832142302260   125.06816424   179.98164747
 H     12  10   3     2.097732291818   109.94925009   302.56206846
 H     12  10   3     2.097753257595   109.94621140    57.16239201
 C     12  10   3     2.899047259903   113.64635141   179.85516404
 H     15  12  10     2.089082682545   108.99853322   302.34391275
 H     15  12  10     2.089127144972   109.00932731    57.64727482
 C     15  12  10     2.890849744340   113.16672195   180.00099529
 H     18  15  12     2.085843071993   111.29528058    59.88161723
 H     18  15  12     2.085851162785   111.29386069   300.17982201
 C      6   5   4     2.862656039621   119.72846641   179.92922622
 H     21   6   5     2.090608551572   108.30789276   303.18976293
 H     21   6   5     2.090308569541   108.30943594    55.70878025
 C     21   6   5     2.893332888024   116.90814177   179.45460909
 H     24  21   6     2.089634250275   109.86424906   301.96965616
 H     24  21   6     2.089635096263   109.89547614    58.46843302
 C     24  21   6     2.897785889343   112.62413367   180.20133835
 H     27  24  21     2.089768229784   109.19832109   302.38643287
 H     27  24  21     2.089770488544   109.19832160    57.68661707
 C     27  24  21     2.892442447875   113.19729136   180.03394763
 H     30  27  24     2.085924326504   111.30244500    59.90416299
 H     30  27  24     2.085896893069   111.29589034   300.19584285
 C      1   2   3     2.297494021899   178.98969451     2.58275710
 H     33   1   5     2.026462527422   179.69813644    19.04955831
 H     18  15  12     2.082327576472   111.45587995   180.02775680
 H     30  27  24     2.082780903857   111.52875570   180.05131216
 H      2   1   3     2.066418854336   179.79545470   175.07056308

---------------------
BASIS SET INFORMATION
---------------------
There are 2 groups of distinct atoms

 Group   1 Type C   : 17s4p1d contracted to 3s2p1d pattern {881/31/1}
 Group   2 Type H   : 4s1p contracted to 2s1p pattern {31/1}

Atom   0C    basis set group =>   1
Atom   1C    basis set group =>   1
Atom   2C    basis set group =>   1
Atom   3C    basis set group =>   1
Atom   4C    basis set group =>   1
Atom   5C    basis set group =>   1
Atom   6C    basis set group =>   1
Atom   7H    basis set group =>   2
Atom   8H    basis set group =>   2
Atom   9C    basis set group =>   1
Atom  10H    basis set group =>   2
Atom  11C    basis set group =>   1
Atom  12H    basis set group =>   2
Atom  13H    basis set group =>   2
Atom  14C    basis set group =>   1
Atom  15H    basis set group =>   2
Atom  16H    basis set group =>   2
Atom  17C    basis set group =>   1
Atom  18H    basis set group =>   2
Atom  19H    basis set group =>   2
Atom  20C    basis set group =>   1
Atom  21H    basis set group =>   2
Atom  22H    basis set group =>   2
Atom  23C    basis set group =>   1
Atom  24H    basis set group =>   2
Atom  25H    basis set group =>   2
Atom  26C    basis set group =>   1
Atom  27H    basis set group =>   2
Atom  28H    basis set group =>   2
Atom  29C    basis set group =>   1
Atom  30H    basis set group =>   2
Atom  31H    basis set group =>   2
Atom  32C    basis set group =>   1
Atom  33H    basis set group =>   2
Atom  34H    basis set group =>   2
Atom  35H    basis set group =>   2
Atom  36H    basis set group =>   2
---------------------------------
AUXILIARY/J BASIS SET INFORMATION
---------------------------------
There are 2 groups of distinct atoms

 Group   1 Type C   : 14s11p10d2f contracted to 14s11p10d2f pattern {11111111111111/11111111111/1111111111/11}
 Group   2 Type H   : 9s2p1d contracted to 9s2p1d pattern {111111111/11/1}

Atom   0C    basis set group =>   1
Atom   1C    basis set group =>   1
Atom   2C    basis set group =>   1
Atom   3C    basis set group =>   1
Atom   4C    basis set group =>   1
Atom   5C    basis set group =>   1
Atom   6C    basis set group =>   1
Atom   7H    basis set group =>   2
Atom   8H    basis set group =>   2
Atom   9C    basis set group =>   1
Atom  10H    basis set group =>   2
Atom  11C    basis set group =>   1
Atom  12H    basis set group =>   2
Atom  13H    basis set group =>   2
Atom  14C    basis set group =>   1
Atom  15H    basis set group =>   2
Atom  16H    basis set group =>   2
Atom  17C    basis set group =>   1
Atom  18H    basis set group =>   2
Atom  19H    basis set group =>   2
Atom  20C    basis set group =>   1
Atom  21H    basis set group =>   2
Atom  22H    basis set group =>   2
Atom  23C    basis set group =>   1
Atom  24H    basis set group =>   2
Atom  25H    basis set group =>   2
Atom  26C    basis set group =>   1
Atom  27H    basis set group =>   2
Atom  28H    basis set group =>   2
Atom  29C    basis set group =>   1
Atom  30H    basis set group =>   2
Atom  31H    basis set group =>   2
Atom  32C    basis set group =>   1
Atom  33H    basis set group =>   2
Atom  34H    basis set group =>   2
Atom  35H    basis set group =>   2
Atom  36H    basis set group =>   2
---------------------------------
AUXILIARY/C BASIS SET INFORMATION
---------------------------------
There are 2 groups of distinct atoms

 Group   1 Type C   : 14s11p10d2f contracted to 14s11p10d2f pattern {11111111111111/11111111111/1111111111/11}
 Group   2 Type H   : 9s2p1d contracted to 9s2p1d pattern {111111111/11/1}

Atom   0C    basis set group =>   1
Atom   1C    basis set group =>   1
Atom   2C    basis set group =>   1
Atom   3C    basis set group =>   1
Atom   4C    basis set group =>   1
Atom   5C    basis set group =>   1
Atom   6C    basis set group =>   1
Atom   7H    basis set group =>   2
Atom   8H    basis set group =>   2
Atom   9C    basis set group =>   1
Atom  10H    basis set group =>   2
Atom  11C    basis set group =>   1
Atom  12H    basis set group =>   2
Atom  13H    basis set group =>   2
Atom  14C    basis set group =>   1
Atom  15H    basis set group =>   2
Atom  16H    basis set group =>   2
Atom  17C    basis set group =>   1
Atom  18H    basis set group =>   2
Atom  19H    basis set group =>   2
Atom  20C    basis set group =>   1
Atom  21H    basis set group =>   2
Atom  22H    basis set group =>   2
Atom  23C    basis set group =>   1
Atom  24H    basis set group =>   2
Atom  25H    basis set group =>   2
Atom  26C    basis set group =>   1
Atom  27H    basis set group =>   2
Atom  28H    basis set group =>   2
Atom  29C    basis set group =>   1
Atom  30H    basis set group =>   2
Atom  31H    basis set group =>   2
Atom  32C    basis set group =>   1
Atom  33H    basis set group =>   2
Atom  34H    basis set group =>   2
Atom  35H    basis set group =>   2
Atom  36H    basis set group =>   2
----------------------------------
AUXILIARY/JK BASIS SET INFORMATION
----------------------------------
There are 2 groups of distinct atoms

 Group   1 Type C   : 14s11p10d2f contracted to 14s11p10d2f pattern {11111111111111/11111111111/1111111111/11}
 Group   2 Type H   : 9s2p1d contracted to 9s2p1d pattern {111111111/11/1}

Atom   0C    basis set group =>   1
Atom   1C    basis set group =>   1
Atom   2C    basis set group =>   1
Atom   3C    basis set group =>   1
Atom   4C    basis set group =>   1
Atom   5C    basis set group =>   1
Atom   6C    basis set group =>   1
Atom   7H    basis set group =>   2
Atom   8H    basis set group =>   2
Atom   9C    basis set group =>   1
Atom  10H    basis set group =>   2
Atom  11C    basis set group =>   1
Atom  12H    basis set group =>   2
Atom  13H    basis set group =>   2
Atom  14C    basis set group =>   1
Atom  15H    basis set group =>   2
Atom  16H    basis set group =>   2
Atom  17C    basis set group =>   1
Atom  18H    basis set group =>   2
Atom  19H    basis set group =>   2
Atom  20C    basis set group =>   1
Atom  21H    basis set group =>   2
Atom  22H    basis set group =>   2
Atom  23C    basis set group =>   1
Atom  24H    basis set group =>   2
Atom  25H    basis set group =>   2
Atom  26C    basis set group =>   1
Atom  27H    basis set group =>   2
Atom  28H    basis set group =>   2
Atom  29C    basis set group =>   1
Atom  30H    basis set group =>   2
Atom  31H    basis set group =>   2
Atom  32C    basis set group =>   1
Atom  33H    basis set group =>   2
Atom  34H    basis set group =>   2
Atom  35H    basis set group =>   2
Atom  36H    basis set group =>   2

Checking for AutoStart:
The File: cc-pVDZ.gbw exists
Trying to determine its content:
     ... Fine, the file contains calculation information
     ... Fine, the calculation information was read
     ... Fine, the file contains a basis set
     ... Fine, the basis set was read
     ... Fine, the file contains a geometry
     ... Fine, the geometry was read
     ... Fine, the file contains a set of orbitals
     ... Fine, the orbitals can be read
     => possible old guess file was deleted
     => GBW file was renamed to GES file
     => GES file is set as startup file
     => Guess is set to MORead
     ... now leaving AutoStart



           ************************************************************
           *        Program running with 16 parallel MPI-processes    *
           *              working on a common directory               *
           ************************************************************
------------------------------------------------------------------------------
                           ORCA GTO INTEGRAL CALCULATION
                           -- RI-GTO INTEGRALS CHOSEN --
------------------------------------------------------------------------------
------------------------------------------------------------------------------
                   ___                                                        
                  /   \      - P O W E R E D   B Y -                         
                 /     \                                                     
                 |  |  |   _    _      __       _____    __    __             
                 |  |  |  | |  | |    /  \     |  _  \  |  |  /  |          
                  \  \/   | |  | |   /    \    | | | |  |  | /  /          
                 / \  \   | |__| |  /  /\  \   | |_| |  |  |/  /          
                |  |  |   |  __  | /  /__\  \  |    /   |      \           
                |  |  |   | |  | | |   __   |  |    \   |  |\   \          
                \     /   | |  | | |  |  |  |  | |\  \  |  | \   \       
                 \___/    |_|  |_| |__|  |__|  |_| \__\ |__|  \__/        
                                                                              
                      - O R C A' S   B I G   F R I E N D -                    
                                      &                                       
                       - I N T E G R A L  F E E D E R -                       
                                                                              
 v1 FN, 2020, v2 2021                                                         
------------------------------------------------------------------------------


Reading SHARK input file cc-pVDZ.SHARKINP.tmp ... ok
----------------------
SHARK INTEGRAL PACKAGE
----------------------

Number of atoms                             ...     37
Number of basis functions                   ...    425
Number of shells                            ...    255
Maximum angular momentum                    ...      2
Integral batch strategy                     ... SHARK/LIBINT Hybrid
RI-J (if used) integral strategy            ... SPLIT-RIJ (Revised 2003 algorithm where possible)
Printlevel                                  ...      1
Contraction scheme used                     ... PARTIAL GENERAL contraction
Coulomb Range Separation                    ... NOT USED
Exchange Range Separation                   ... NOT USED
Finite Nucleus Model                        ... NOT USED
Auxiliary Coulomb fitting basis             ... AVAILABLE
   # of basis functions in Aux-J            ...   2196
   # of shells in Aux-J                     ...    844
   Maximum angular momentum in Aux-J        ...      3
Auxiliary J/K fitting basis                 ... AVAILABLE
   # of basis functions in Aux-JK           ...   2196
   # of shells in Aux-JK                    ...    844
   Maximum angular momentum in Aux-JK       ...      3
Auxiliary Correlation fitting basis         ... AVAILABLE
   # of basis functions in Aux-C            ...   2196
   # of shells in Aux-C                     ...    844
   Maximum angular momentum in Aux-C        ...      3
Auxiliary 'external' fitting basis          ... NOT available
Integral threshold                          ...     1.000000e-10
Primitive cut-off                           ...     1.000000e-11
Primitive pair pre-selection threshold      ...     1.000000e-11

Calculating pre-screening integrals         ... done (  0.0 sec) Dimension = 255
Calculating pre-screening integrals (ORCA)  ... done (  0.1 sec) Dimension = 159
Organizing shell pair data                  ... done (  0.1 sec)
Shell pair information
Total number of shell pairs                 ...     32640
Shell pairs after pre-screening             ...     16238
Total number of primitive shell pairs       ...     54396
Primitive shell pairs kept                  ...     22620
          la=0 lb=0:   7241 shell pairs
          la=1 lb=0:   5667 shell pairs
          la=1 lb=1:    989 shell pairs
          la=2 lb=0:   1662 shell pairs
          la=2 lb=1:    582 shell pairs
          la=2 lb=2:     97 shell pairs

Calculating one electron integrals          ... done (  0.0 sec)
Calculating RI/J V-Matrix + Cholesky decomp.... done (  0.5 sec)
Calculating RI/JK V-Matrix + Cholesky decomp... done (  0.4 sec)
Calculating RI/C V-Matrix + Cholesky decomp.... done (  0.4 sec)
Calculating Nuclear repulsion               ... done (  0.0 sec) ENN=    969.243257158093 Eh

SHARK setup successfully completed in   2.1 seconds

Maximum memory used throughout the entire GTOINT-calculation: 26.0 MB


           ************************************************************
           *        Program running with 16 parallel MPI-processes    *
           *              working on a common directory               *
           ************************************************************
-------------------------------------------------------------------------------
                                 ORCA SCF
-------------------------------------------------------------------------------

------------
SCF SETTINGS
------------
Hamiltonian:
 Density Functional     Method          .... DFT(GTOs)
 Exchange Functional    Exchange        .... B88
   X-Alpha parameter    XAlpha          ....  0.666667
   Becke's b parameter  XBeta           ....  0.004200
 Correlation Functional Correlation     .... LYP
 LDA part of GGA corr.  LDAOpt          .... VWN-5
 Gradients option       PostSCFGGA      .... off
 Hybrid DFT is turned on
   Fraction HF Exchange ScalHFX         ....  0.200000
   Scaling of DF-GGA-X  ScalDFX         ....  0.720000
   Scaling of DF-GGA-C  ScalDFC         ....  0.810000
   Scaling of DF-LDA-C  ScalLDAC        ....  1.000000
   Perturbative correction              ....  0.000000
   Density functional embedding theory  .... OFF
   NL short-range parameter             ....  4.800000
 RI-approximation to the Coulomb term is turned on
   Number of AuxJ basis functions       .... 2196
   RIJ-COSX (HFX calculated with COS-X)).... on


General Settings:
 Integral files         IntName         .... cc-pVDZ
 Hartree-Fock type      HFTyp           .... UHF
 Total Charge           Charge          ....    0
 Multiplicity           Mult            ....    2
 Number of Electrons    NEL             ....  117
 Basis Dimension        Dim             ....  329
 Nuclear Repulsion      ENuc            ....    969.2432571581 Eh

Convergence Acceleration:
 DIIS                   CNVDIIS         .... on
   Start iteration      DIISMaxIt       ....    12
   Startup error        DIISStart       ....  0.200000
   # of expansion vecs  DIISMaxEq       ....     5
   Bias factor          DIISBfac        ....   1.050
   Max. coefficient     DIISMaxC        ....  10.000
 Trust-Rad. Augm. Hess. CNVTRAH         .... auto
   Auto Start mean grad. ratio tolernc. ....  1.125000
   Auto Start start iteration           ....     1
   Auto Start num. interpolation iter.  ....    10
   Max. Number of Micro iterations      ....    16
   Max. Number of Macro iterations      .... Maxiter - #DIIS iter
   Number of Davidson start vectors     ....     2
   Converg. threshold I  (grad. norm)   ....   5.000e-05
   Converg. threshold II (energy diff.) ....   1.000e-06
   Grad. Scal. Fac. for Micro threshold ....   0.100
   Minimum threshold for Micro iter.    ....   0.010
   NR start threshold (gradient norm)   ....   0.001
   Initial trust radius                 ....   0.400
   Minimum AH scaling param. (alpha)    ....   1.000
   Maximum AH scaling param. (alpha)    .... 1000.000
   Orbital update algorithm             .... Taylor
   White noise on init. David. guess    .... on
   Maximum white noise                  ....   0.010
   Quad. conv. algorithm                .... NR
 SOSCF                  CNVSOSCF        .... off
 Level Shifting         CNVShift        .... on
   Level shift para.    LevelShift      ....    0.2500
   Turn off err/grad.   ShiftErr        ....    0.0010
 Zerner damping         CNVZerner       .... off
 Static damping         CNVDamp         .... on
   Fraction old density DampFac         ....    0.7000
   Max. Damping (<1)    DampMax         ....    0.9800
   Min. Damping (>=0)   DampMin         ....    0.0000
   Turn off err/grad.   DampErr         ....    0.1000
 Fernandez-Rico         CNVRico         .... off

SCF Procedure:
 Maximum # iterations   MaxIter         ....   125
 SCF integral mode      SCFMode         .... Direct
   Integral package                     .... SHARK and LIBINT hybrid scheme
 Reset frequency        DirectResetFreq ....    20
 Integral Threshold     Thresh          ....  1.000e-10 Eh
 Primitive CutOff       TCut            ....  1.000e-11 Eh

Convergence Tolerance:
 Convergence Check Mode ConvCheckMode   .... Total+1el-Energy
 Convergence forced     ConvForced      .... 0
 Energy Change          TolE            ....  1.000e-06 Eh
 1-El. energy change                    ....  1.000e-03 Eh
 DIIS Error             TolErr          ....  1.000e-06


Diagonalization of the overlap matrix:
Smallest eigenvalue                        ... 1.556e-04
Time for diagonalization                   ...    0.030 sec
Threshold for overlap eigenvalues          ... 1.000e-08
Number of eigenvalues below threshold      ... 0
Time for construction of square roots      ...    0.029 sec
Total time needed                          ...    0.060 sec

---------------------
INITIAL GUESS: MOREAD
---------------------
Guess MOs are being read from file: cc-pVDZ.ges
Input Geometry matches current geometry (good)
Input basis set matches current basis set (good)
MOs were renormalized
MOs were reorthogonalized (Cholesky)
                      ------------------
                      INITIAL GUESS DONE (   0.1 sec)
                      ------------------
-------------------
DFT GRID GENERATION
-------------------

General Integration Accuracy     IntAcc      ... 4.388
Radial Grid Type                 RadialGrid  ... OptM3 with GC (2021)
Angular Grid (max. ang.)         AngularGrid ... 4 (Lebedev-302)
Angular grid pruning method      GridPruning ... 4 (adaptive)
Weight generation scheme         WeightScheme... Becke
Basis function cutoff            BFCut       ... 1.0000e-10
Integration weight cutoff        WCut        ... 1.0000e-14
Angular grids for H and He will be reduced by one unit
Partially contracted basis set               ... off
Rotationally invariant grid construction     ... off

Total number of grid points                  ...   162768
Total number of batches                      ...     2562
Average number of points per batch           ...       63
Average number of grid points per atom       ...     4399
Time for grid setup =    0.866 sec

--------------------
COSX GRID GENERATION
--------------------

GRIDX 1
-------
General Integration Accuracy     IntAcc      ... 3.816
Radial Grid Type                 RadialGrid  ... OptM3 with GC (2021)
Angular Grid (max. ang.)         AngularGrid ... 1 (Lebedev-50)
Angular grid pruning method      GridPruning ... 4 (adaptive)
Weight generation scheme         WeightScheme... Becke
Basis function cutoff            BFCut       ... 1.0000e-10
Integration weight cutoff        WCut        ... 1.0000e-14
Angular grids for H and He will be reduced by one unit
Partially contracted basis set               ... on
Rotationally invariant grid construction     ... off

Total number of grid points                  ...    20778
Total number of batches                      ...      346
Average number of points per batch           ...       60
Average number of grid points per atom       ...      562
UseSFitting                                  ... on

GRIDX 2
-------
General Integration Accuracy     IntAcc      ... 4.020
Radial Grid Type                 RadialGrid  ... OptM3 with GC (2021)
Angular Grid (max. ang.)         AngularGrid ... 2 (Lebedev-110)
Angular grid pruning method      GridPruning ... 4 (adaptive)
Weight generation scheme         WeightScheme... Becke
Basis function cutoff            BFCut       ... 1.0000e-10
Integration weight cutoff        WCut        ... 1.0000e-14
Angular grids for H and He will be reduced by one unit
Partially contracted basis set               ... on
Rotationally invariant grid construction     ... off

Total number of grid points                  ...    43896
Total number of batches                      ...      706
Average number of points per batch           ...       62
Average number of grid points per atom       ...     1186
UseSFitting                                  ... on

GRIDX 3
-------
General Integration Accuracy     IntAcc      ... 4.338
Radial Grid Type                 RadialGrid  ... OptM3 with GC (2021)
Angular Grid (max. ang.)         AngularGrid ... 3 (Lebedev-194)
Angular grid pruning method      GridPruning ... 4 (adaptive)
Weight generation scheme         WeightScheme... Becke
Basis function cutoff            BFCut       ... 1.0000e-10
Integration weight cutoff        WCut        ... 1.0000e-14
Angular grids for H and He will be reduced by one unit
Partially contracted basis set               ... on
Rotationally invariant grid construction     ... off

Total number of grid points                  ...    95920
Total number of batches                      ...     1518
Average number of points per batch           ...       63
Average number of grid points per atom       ...     2592
UseSFitting                                  ... on

Time for X-Grid setup             =    1.675 sec

 re-compute Schwartz prescreening matrix in partically contracted basis (1) ...done (   0.133 sec)
--------------
SCF ITERATIONS
--------------
ITER       Energy         Delta-E        Max-DP      RMS-DP      [F,P]     Damp
               ***  Starting incremental Fock matrix formation  ***
  0   -621.8597396158   0.000000000000 0.00000400  0.00000006  0.0000109 0.7000
                 **** Energy Check signals convergence ****

               *****************************************************
               *                     SUCCESS                       *
               *           SCF CONVERGED AFTER   1 CYCLES          *
               *****************************************************

Old exchange energy                            =    -18.069035670 Eh
New exchange energy                            =    -18.069127374 Eh
Exchange energy change after final integration =     -0.000091704 Eh
Total energy after final integration           =   -621.859831337 Eh
Final COS-X integration done in                =     3.641 sec

----------------
TOTAL SCF ENERGY
----------------

Total Energy       :         -621.85983134 Eh          -16921.66629 eV

Components:
Nuclear Repulsion  :          969.24325716 Eh           26374.44988 eV
Electronic Energy  :        -1591.10308850 Eh          -43296.11617 eV
One Electron Energy:        -2760.69690284 Eh          -75122.38187 eV
Two Electron Energy:         1169.59381434 Eh           31826.26570 eV
Max COSX asymmetry :            0.00000043 Eh               0.00001 eV

Virial components:
Potential Energy   :        -1239.23854568 Eh          -33721.39519 eV
Kinetic Energy     :          617.37871435 Eh           16799.72890 eV
Virial Ratio       :            2.00725830


DFT components:
N(Alpha)           :       59.000108672400 electrons
N(Beta)            :       58.000102644169 electrons
N(Total)           :      117.000211316569 electrons
E(X)               :      -71.622440208421 Eh       
E(C)               :       -4.507466230954 Eh       
E(XC)              :      -76.129906439375 Eh       
DFET-embed. en.    :        0.000000000000 Eh       

---------------
SCF CONVERGENCE
---------------

  Last Energy change         ...   -1.7756e-08  Tolerance :   1.0000e-06
  Last MAX-Density change    ...    1.3001e-06  Tolerance :   1.0000e-05
  Last RMS-Density change    ...    2.1178e-08  Tolerance :   1.0000e-06
  Last DIIS Error            ...    8.5383e-06  Tolerance :   1.0000e-06

             **** THE GBW FILE WAS UPDATED (cc-pVDZ.gbw) ****
             **** DENSITY cc-pVDZ.scfp WAS UPDATED ****
             **** ENERGY FILE WAS UPDATED (cc-pVDZ.en.tmp) ****
----------------------
UHF SPIN CONTAMINATION
----------------------

Warning: in a DFT calculation there is little theoretical justification to 
         calculate <S**2> as in Hartree-Fock theory. We will do it anyways
         but you should keep in mind that the values have only limited relevance

Expectation value of <S**2>     :     0.781599
Ideal value S*(S+1) for S=0.5   :     0.750000
Deviation                       :     0.031599

             **** THE GBW FILE WAS UPDATED (cc-pVDZ.gbw) ****
             **** DENSITY cc-pVDZ.scfp WAS UPDATED ****
----------------
ORBITAL ENERGIES
----------------
                 SPIN UP ORBITALS
  NO   OCC          E(Eh)            E(eV) 
   0   1.0000     -10.207408      -277.7577 
   1   1.0000     -10.199210      -277.5346 
   2   1.0000     -10.192014      -277.3388 
   3   1.0000     -10.191439      -277.3232 
   4   1.0000     -10.190787      -277.3054 
   5   1.0000     -10.189322      -277.2655 
   6   1.0000     -10.188431      -277.2413 
   7   1.0000     -10.187097      -277.2050 
   8   1.0000     -10.184289      -277.1286 
   9   1.0000     -10.184215      -277.1266 
  10   1.0000     -10.184001      -277.1208 
  11   1.0000     -10.182606      -277.0828 
  12   1.0000     -10.180733      -277.0318 
  13   1.0000     -10.180524      -277.0261 
  14   1.0000     -10.176975      -276.9296 
  15   1.0000     -10.175108      -276.8788 
  16   1.0000      -0.865756       -23.5584 
  17   1.0000      -0.814440       -22.1620 
  18   1.0000      -0.794868       -21.6294 
  19   1.0000      -0.780037       -21.2259 
  20   1.0000      -0.763607       -20.7788 
  21   1.0000      -0.730560       -19.8796 
  22   1.0000      -0.723544       -19.6886 
  23   1.0000      -0.696228       -18.9453 
  24   1.0000      -0.653547       -17.7839 
  25   1.0000      -0.622609       -16.9421 
  26   1.0000      -0.612889       -16.6776 
  27   1.0000      -0.588277       -16.0078 
  28   1.0000      -0.578675       -15.7465 
  29   1.0000      -0.559116       -15.2143 
  30   1.0000      -0.525802       -14.3078 
  31   1.0000      -0.494641       -13.4599 
  32   1.0000      -0.472571       -12.8593 
  33   1.0000      -0.469143       -12.7660 
  34   1.0000      -0.462232       -12.5780 
  35   1.0000      -0.461710       -12.5638 
  36   1.0000      -0.428525       -11.6608 
  37   1.0000      -0.426136       -11.5957 
  38   1.0000      -0.422489       -11.4965 
  39   1.0000      -0.419435       -11.4134 
  40   1.0000      -0.410234       -11.1630 
  41   1.0000      -0.395343       -10.7578 
  42   1.0000      -0.387690       -10.5496 
  43   1.0000      -0.375295       -10.2123 
  44   1.0000      -0.374351       -10.1866 
  45   1.0000      -0.362850        -9.8737 
  46   1.0000      -0.348023        -9.4702 
  47   1.0000      -0.347619        -9.4592 
  48   1.0000      -0.338181        -9.2024 
  49   1.0000      -0.331268        -9.0143 
  50   1.0000      -0.330498        -8.9933 
  51   1.0000      -0.324918        -8.8415 
  52   1.0000      -0.322440        -8.7740 
  53   1.0000      -0.321189        -8.7400 
  54   1.0000      -0.307959        -8.3800 
  55   1.0000      -0.271990        -7.4012 
  56   1.0000      -0.267889        -7.2896 
  57   1.0000      -0.236260        -6.4289 
  58   1.0000      -0.171282        -4.6608 
  59   0.0000      -0.031428        -0.8552 
  60   0.0000       0.015241         0.4147 
  61   0.0000       0.048163         1.3106 
  62   0.0000       0.063215         1.7202 
  63   0.0000       0.063828         1.7369 
  64   0.0000       0.077495         2.1088 
  65   0.0000       0.083978         2.2851 
  66   0.0000       0.088719         2.4142 
  67   0.0000       0.088949         2.4204 
  68   0.0000       0.094495         2.5713 
  69   0.0000       0.097158         2.6438 
  70   0.0000       0.098657         2.6846 
  71   0.0000       0.104388         2.8406 
  72   0.0000       0.112070         3.0496 
  73   0.0000       0.129639         3.5277 
  74   0.0000       0.132722         3.6116 
  75   0.0000       0.147214         4.0059 
  76   0.0000       0.149371         4.0646 
  77   0.0000       0.149555         4.0696 
  78   0.0000       0.160261         4.3609 
  79   0.0000       0.163141         4.4393 
  80   0.0000       0.168011         4.5718 
  81   0.0000       0.169633         4.6160 
  82   0.0000       0.172121         4.6837 
  83   0.0000       0.181126         4.9287 
  84   0.0000       0.191917         5.2223 
  85   0.0000       0.206293         5.6135 
  86   0.0000       0.213075         5.7981 
  87   0.0000       0.224662         6.1134 
  88   0.0000       0.229097         6.2341 
  89   0.0000       0.238931         6.5017 
  90   0.0000       0.255375         6.9491 
  91   0.0000       0.262460         7.1419 
  92   0.0000       0.283259         7.7079 
  93   0.0000       0.301104         8.1935 
  94   0.0000       0.319181         8.6854 
  95   0.0000       0.341720         9.2987 
  96   0.0000       0.346886         9.4392 
  97   0.0000       0.363687         9.8964 
  98   0.0000       0.368701        10.0329 
  99   0.0000       0.403110        10.9692 
 100   0.0000       0.411049        11.1852 
 101   0.0000       0.413232        11.2446 
 102   0.0000       0.413497        11.2518 
 103   0.0000       0.421530        11.4704 
 104   0.0000       0.431023        11.7287 
 105   0.0000       0.445462        12.1216 
 106   0.0000       0.454108        12.3569 
 107   0.0000       0.466114        12.6836 
 108   0.0000       0.466410        12.6917 
 109   0.0000       0.479940        13.0598 
 110   0.0000       0.482113        13.1190 
 111   0.0000       0.485910        13.2223 
 112   0.0000       0.492878        13.4119 
 113   0.0000       0.509111        13.8536 
 114   0.0000       0.513485        13.9726 
 115   0.0000       0.518688        14.1142 
 116   0.0000       0.522879        14.2283 
 117   0.0000       0.527856        14.3637 
 118   0.0000       0.535369        14.5681 
 119   0.0000       0.545530        14.8446 
 120   0.0000       0.554534        15.0896 
 121   0.0000       0.560543        15.2531 
 122   0.0000       0.569539        15.4979 
 123   0.0000       0.592323        16.1179 
 124   0.0000       0.595591        16.2069 
 125   0.0000       0.605610        16.4795 
 126   0.0000       0.616378        16.7725 
 127   0.0000       0.616642        16.7797 
 128   0.0000       0.620788        16.8925 
 129   0.0000       0.621338        16.9075 
 130   0.0000       0.640336        17.4244 
 131   0.0000       0.641098        17.4452 
 132   0.0000       0.644603        17.5405 
 133   0.0000       0.645191        17.5566 
 134   0.0000       0.652696        17.7608 
 135   0.0000       0.654631        17.8134 
 136   0.0000       0.658912        17.9299 
 137   0.0000       0.660699        17.9785 
 138   0.0000       0.662193        18.0192 
 139   0.0000       0.663573        18.0567 
 140   0.0000       0.668473        18.1901 
 141   0.0000       0.671938        18.2844 
 142   0.0000       0.683998        18.6125 
 143   0.0000       0.689072        18.7506 
 144   0.0000       0.690896        18.8002 
 145   0.0000       0.694834        18.9074 
 146   0.0000       0.696476        18.9521 
 147   0.0000       0.704898        19.1812 
 148   0.0000       0.711423        19.3588 
 149   0.0000       0.714255        19.4359 
 150   0.0000       0.729829        19.8597 
 151   0.0000       0.733421        19.9574 
 152   0.0000       0.733715        19.9654 
 153   0.0000       0.743247        20.2248 
 154   0.0000       0.747708        20.3462 
 155   0.0000       0.753350        20.4997 
 156   0.0000       0.764370        20.7996 
 157   0.0000       0.785416        21.3723 
 158   0.0000       0.814205        22.1556 
 159   0.0000       0.819510        22.3000 
 160   0.0000       0.832979        22.6665 
 161   0.0000       0.836978        22.7753 
 162   0.0000       0.842663        22.9300 
 163   0.0000       0.871856        23.7244 
 164   0.0000       0.888311        24.1722 
 165   0.0000       0.904933        24.6245 
 166   0.0000       0.920586        25.0504 
 167   0.0000       0.923891        25.1403 
 168   0.0000       0.941172        25.6106 
 169   0.0000       0.950773        25.8718 
 170   0.0000       0.958637        26.0858 
 171   0.0000       0.994589        27.0641 
 172   0.0000       0.995356        27.0850 
 173   0.0000       1.011763        27.5315 
 174   0.0000       1.018817        27.7234 
 175   0.0000       1.037867        28.2418 
 176   0.0000       1.040464        28.3125 
 177   0.0000       1.053613        28.6703 
 178   0.0000       1.061126        28.8747 
 179   0.0000       1.069116        29.0921 
 180   0.0000       1.082024        29.4434 
 181   0.0000       1.082956        29.4687 
 182   0.0000       1.134561        30.8730 
 183   0.0000       1.160587        31.5812 
 184   0.0000       1.186429        32.2844 
 185   0.0000       1.205837        32.8125 
 186   0.0000       1.209495        32.9120 
 187   0.0000       1.210900        32.9503 
 188   0.0000       1.218326        33.1523 
 189   0.0000       1.219260        33.1777 
 190   0.0000       1.224701        33.3258 
 191   0.0000       1.227145        33.3923 
 192   0.0000       1.233644        33.5692 
 193   0.0000       1.253632        34.1131 
 194   0.0000       1.286209        34.9995 
 195   0.0000       1.294986        35.2384 
 196   0.0000       1.311797        35.6958 
 197   0.0000       1.323371        36.0108 
 198   0.0000       1.340471        36.4761 
 199   0.0000       1.342383        36.5281 
 200   0.0000       1.346231        36.6328 
 201   0.0000       1.374541        37.4032 
 202   0.0000       1.379327        37.5334 
 203   0.0000       1.392816        37.9004 
 204   0.0000       1.414660        38.4949 
 205   0.0000       1.425342        38.7855 
 206   0.0000       1.426923        38.8286 
 207   0.0000       1.427094        38.8332 
 208   0.0000       1.433824        39.0163 
 209   0.0000       1.445019        39.3210 
 210   0.0000       1.465440        39.8767 
 211   0.0000       1.469064        39.9753 
 212   0.0000       1.470780        40.0220 
 213   0.0000       1.492182        40.6043 
 214   0.0000       1.500125        40.8205 
 215   0.0000       1.523187        41.4480 
 216   0.0000       1.531681        41.6792 
 217   0.0000       1.546178        42.0736 
 218   0.0000       1.572971        42.8027 
 219   0.0000       1.579115        42.9699 
 220   0.0000       1.591951        43.3192 
 221   0.0000       1.596082        43.4316 
 222   0.0000       1.602795        43.6143 
 223   0.0000       1.616922        43.9987 
 224   0.0000       1.623375        44.1743 
 225   0.0000       1.627134        44.2766 
 226   0.0000       1.630675        44.3729 
 227   0.0000       1.632837        44.4318 
 228   0.0000       1.635478        44.5036 
 229   0.0000       1.640201        44.6321 
 230   0.0000       1.645684        44.7813 
 231   0.0000       1.653053        44.9818 
 232   0.0000       1.658317        45.1251 
 233   0.0000       1.671337        45.4794 
 234   0.0000       1.678609        45.6773 
 235   0.0000       1.684066        45.8258 
 236   0.0000       1.686251        45.8852 
 237   0.0000       1.693769        46.0898 
 238   0.0000       1.696111        46.1535 
 239   0.0000       1.702147        46.3178 
 240   0.0000       1.704662        46.3862 
 241   0.0000       1.709226        46.5104 
 242   0.0000       1.713717        46.6326 
 243   0.0000       1.724197        46.9178 
 244   0.0000       1.732688        47.1489 
 245   0.0000       1.742096        47.4048 
 246   0.0000       1.752013        47.6747 
 247   0.0000       1.755770        47.7769 
 248   0.0000       1.760241        47.8986 
 249   0.0000       1.776473        48.3403 
 250   0.0000       1.780733        48.4562 
 251   0.0000       1.791614        48.7523 
 252   0.0000       1.797277        48.9064 
 253   0.0000       1.798357        48.9358 
 254   0.0000       1.817401        49.4540 
 255   0.0000       1.820919        49.5497 
 256   0.0000       1.824366        49.6435 
 257   0.0000       1.837450        49.9996 
 258   0.0000       1.859984        50.6127 
 259   0.0000       1.878603        51.1194 
 260   0.0000       1.878898        51.1274 
 261   0.0000       1.894240        51.5449 
 262   0.0000       1.910695        51.9927 
 263   0.0000       1.920752        52.2663 
 264   0.0000       1.929155        52.4950 
 265   0.0000       1.938110        52.7387 
 266   0.0000       1.941624        52.8343 
 267   0.0000       1.950219        53.0682 
 268   0.0000       1.971158        53.6379 
 269   0.0000       1.997104        54.3440 
 270   0.0000       2.001728        54.4698 
 271   0.0000       2.011244        54.7287 
 272   0.0000       2.030787        55.2605 
 273   0.0000       2.043773        55.6139 
 274   0.0000       2.063434        56.1489 
 275   0.0000       2.076869        56.5145 
 276   0.0000       2.090495        56.8853 
 277   0.0000       2.091396        56.9098 
 278   0.0000       2.116042        57.5804 
 279   0.0000       2.135861        58.1197 
 280   0.0000       2.154015        58.6137 
 281   0.0000       2.158857        58.7455 
 282   0.0000       2.170310        59.0571 
 283   0.0000       2.180406        59.3319 
 284   0.0000       2.184683        59.4482 
 285   0.0000       2.202620        59.9363 
 286   0.0000       2.207766        60.0764 
 287   0.0000       2.221651        60.4542 
 288   0.0000       2.224402        60.5291 
 289   0.0000       2.227424        60.6113 
 290   0.0000       2.263924        61.6045 
 291   0.0000       2.279378        62.0250 
 292   0.0000       2.288303        62.2679 
 293   0.0000       2.294964        62.4492 
 294   0.0000       2.298926        62.5569 
 295   0.0000       2.303304        62.6761 
 296   0.0000       2.321676        63.1760 
 297   0.0000       2.334264        63.5185 
 298   0.0000       2.353025        64.0291 
 299   0.0000       2.355758        64.1034 
 300   0.0000       2.405977        65.4700 
 301   0.0000       2.410466        65.5921 
 302   0.0000       2.412627        65.6509 
 303   0.0000       2.413507        65.6749 
 304   0.0000       2.413595        65.6773 
 305   0.0000       2.426986        66.0417 
 306   0.0000       2.446134        66.5627 
 307   0.0000       2.466155        67.1075 
 308   0.0000       2.474979        67.3476 
 309   0.0000       2.507108        68.2219 
 310   0.0000       2.536134        69.0117 
 311   0.0000       2.536850        69.0312 
 312   0.0000       2.557436        69.5914 
 313   0.0000       2.596658        70.6587 
 314   0.0000       2.597193        70.6732 
 315   0.0000       2.626788        71.4785 
 316   0.0000       2.641706        71.8845 
 317   0.0000       2.680601        72.9429 
 318   0.0000       2.688884        73.1682 
 319   0.0000       2.714560        73.8669 
 320   0.0000       2.722974        74.0959 
 321   0.0000       2.742103        74.6164 
 322   0.0000       2.771298        75.4108 
 323   0.0000       2.820264        76.7433 
 324   0.0000       2.837312        77.2072 
 325   0.0000       2.930837        79.7521 
 326   0.0000       2.989696        81.3538 
 327   0.0000       3.196287        86.9754 
 328   0.0000       3.434680        93.4624 

                 SPIN DOWN ORBITALS
  NO   OCC          E(Eh)            E(eV) 
   0   1.0000     -10.208932      -277.7992 
   1   1.0000     -10.195677      -277.4385 
   2   1.0000     -10.194325      -277.4017 
   3   1.0000     -10.188062      -277.2313 
   4   1.0000     -10.187818      -277.2246 
   5   1.0000     -10.187658      -277.2203 
   6   1.0000     -10.186256      -277.1821 
   7   1.0000     -10.185696      -277.1669 
   8   1.0000     -10.184426      -277.1323 
   9   1.0000     -10.183959      -277.1196 
  10   1.0000     -10.183181      -277.0985 
  11   1.0000     -10.181004      -277.0392 
  12   1.0000     -10.180733      -277.0318 
  13   1.0000     -10.180521      -277.0261 
  14   1.0000     -10.176983      -276.9298 
  15   1.0000     -10.175110      -276.8788 
  16   1.0000      -0.862259       -23.4633 
  17   1.0000      -0.808569       -22.0023 
  18   1.0000      -0.793269       -21.5859 
  19   1.0000      -0.779331       -21.2067 
  20   1.0000      -0.761427       -20.7195 
  21   1.0000      -0.726440       -19.7674 
  22   1.0000      -0.721475       -19.6323 
  23   1.0000      -0.693923       -18.8826 
  24   1.0000      -0.650395       -17.6981 
  25   1.0000      -0.619933       -16.8692 
  26   1.0000      -0.607263       -16.5245 
  27   1.0000      -0.587173       -15.9778 
  28   1.0000      -0.576479       -15.6868 
  29   1.0000      -0.556459       -15.1420 
  30   1.0000      -0.524104       -14.2616 
  31   1.0000      -0.492237       -13.3945 
  32   1.0000      -0.470457       -12.8018 
  33   1.0000      -0.468323       -12.7437 
  34   1.0000      -0.460397       -12.5280 
  35   1.0000      -0.458220       -12.4688 
  36   1.0000      -0.426230       -11.5983 
  37   1.0000      -0.424984       -11.5644 
  38   1.0000      -0.421517       -11.4701 
  39   1.0000      -0.416938       -11.3454 
  40   1.0000      -0.409736       -11.1495 
  41   1.0000      -0.387494       -10.5442 
  42   1.0000      -0.386431       -10.5153 
  43   1.0000      -0.372216       -10.1285 
  44   1.0000      -0.370754       -10.0887 
  45   1.0000      -0.361833        -9.8460 
  46   1.0000      -0.346588        -9.4312 
  47   1.0000      -0.344975        -9.3872 
  48   1.0000      -0.336094        -9.1456 
  49   1.0000      -0.330620        -8.9966 
  50   1.0000      -0.328507        -8.9391 
  51   1.0000      -0.324413        -8.8277 
  52   1.0000      -0.321860        -8.7583 
  53   1.0000      -0.320277        -8.7152 
  54   1.0000      -0.305560        -8.3147 
  55   1.0000      -0.271904        -7.3989 
  56   1.0000      -0.252751        -6.8777 
  57   1.0000      -0.228035        -6.2052 
  58   0.0000      -0.074556        -2.0288 
  59   0.0000      -0.022333        -0.6077 
  60   0.0000       0.033062         0.8997 
  61   0.0000       0.048587         1.3221 
  62   0.0000       0.063804         1.7362 
  63   0.0000       0.064006         1.7417 
  64   0.0000       0.078749         2.1429 
  65   0.0000       0.084699         2.3048 
  66   0.0000       0.089460         2.4343 
  67   0.0000       0.092035         2.5044 
  68   0.0000       0.094400         2.5688 
  69   0.0000       0.098176         2.6715 
  70   0.0000       0.099062         2.6956 
  71   0.0000       0.105163         2.8616 
  72   0.0000       0.112572         3.0632 
  73   0.0000       0.130471         3.5503 
  74   0.0000       0.133170         3.6238 
  75   0.0000       0.147433         4.0119 
  76   0.0000       0.150605         4.0982 
  77   0.0000       0.151192         4.1142 
  78   0.0000       0.160893         4.3781 
  79   0.0000       0.163380         4.4458 
  80   0.0000       0.169052         4.6001 
  81   0.0000       0.171302         4.6614 
  82   0.0000       0.175767         4.7829 
  83   0.0000       0.181442         4.9373 
  84   0.0000       0.196161         5.3378 
  85   0.0000       0.207342         5.6421 
  86   0.0000       0.213731         5.8159 
  87   0.0000       0.224878         6.1192 
  88   0.0000       0.232059         6.3147 
  89   0.0000       0.240619         6.5476 
  90   0.0000       0.255959         6.9650 
  91   0.0000       0.265567         7.2264 
  92   0.0000       0.283438         7.7128 
  93   0.0000       0.303524         8.2593 
  94   0.0000       0.319515         8.6945 
  95   0.0000       0.343392         9.3442 
  96   0.0000       0.348377         9.4798 
  97   0.0000       0.364957         9.9310 
  98   0.0000       0.370400        10.0791 
  99   0.0000       0.404737        11.0135 
 100   0.0000       0.411280        11.1915 
 101   0.0000       0.413651        11.2560 
 102   0.0000       0.414023        11.2661 
 103   0.0000       0.422097        11.4858 
 104   0.0000       0.434627        11.8268 
 105   0.0000       0.457018        12.4361 
 106   0.0000       0.461216        12.5503 
 107   0.0000       0.466907        12.7052 
 108   0.0000       0.470297        12.7974 
 109   0.0000       0.482390        13.1265 
 110   0.0000       0.488559        13.2944 
 111   0.0000       0.491080        13.3630 
 112   0.0000       0.495577        13.4853 
 113   0.0000       0.510525        13.8921 
 114   0.0000       0.514520        14.0008 
 115   0.0000       0.523801        14.2533 
 116   0.0000       0.525353        14.2956 
 117   0.0000       0.538117        14.6429 
 118   0.0000       0.539034        14.6679 
 119   0.0000       0.546384        14.8679 
 120   0.0000       0.555737        15.1224 
 121   0.0000       0.571198        15.5431 
 122   0.0000       0.573800        15.6139 
 123   0.0000       0.594207        16.1692 
 124   0.0000       0.597096        16.2478 
 125   0.0000       0.606497        16.5036 
 126   0.0000       0.617207        16.7951 
 127   0.0000       0.618494        16.8301 
 128   0.0000       0.621800        16.9200 
 129   0.0000       0.626511        17.0482 
 130   0.0000       0.640810        17.4373 
 131   0.0000       0.641240        17.4490 
 132   0.0000       0.645360        17.5611 
 133   0.0000       0.648134        17.6366 
 134   0.0000       0.653430        17.7807 
 135   0.0000       0.656128        17.8542 
 136   0.0000       0.659253        17.9392 
 137   0.0000       0.661524        18.0010 
 138   0.0000       0.662484        18.0271 
 139   0.0000       0.666558        18.1380 
 140   0.0000       0.670144        18.2356 
 141   0.0000       0.673405        18.3243 
 142   0.0000       0.685646        18.6574 
 143   0.0000       0.689476        18.7616 
 144   0.0000       0.691820        18.8254 
 145   0.0000       0.695929        18.9372 
 146   0.0000       0.697575        18.9820 
 147   0.0000       0.705824        19.2065 
 148   0.0000       0.712786        19.3959 
 149   0.0000       0.716525        19.4976 
 150   0.0000       0.730602        19.8807 
 151   0.0000       0.734903        19.9977 
 152   0.0000       0.738769        20.1029 
 153   0.0000       0.746474        20.3126 
 154   0.0000       0.749434        20.3931 
 155   0.0000       0.755337        20.5538 
 156   0.0000       0.765295        20.8247 
 157   0.0000       0.788466        21.4552 
 158   0.0000       0.815353        22.1869 
 159   0.0000       0.821722        22.3602 
 160   0.0000       0.835185        22.7265 
 161   0.0000       0.837881        22.7999 
 162   0.0000       0.843765        22.9600 
 163   0.0000       0.875255        23.8169 
 164   0.0000       0.892188        24.2777 
 165   0.0000       0.905780        24.6475 
 166   0.0000       0.926900        25.2222 
 167   0.0000       0.928019        25.2527 
 168   0.0000       0.951495        25.8915 
 169   0.0000       0.952522        25.9194 
 170   0.0000       0.961396        26.1609 
 171   0.0000       0.995199        27.0807 
 172   0.0000       0.997596        27.1460 
 173   0.0000       1.013718        27.5847 
 174   0.0000       1.022894        27.8344 
 175   0.0000       1.040050        28.3012 
 176   0.0000       1.041328        28.3360 
 177   0.0000       1.058384        28.8001 
 178   0.0000       1.062433        28.9103 
 179   0.0000       1.069040        29.0901 
 180   0.0000       1.085305        29.5326 
 181   0.0000       1.085509        29.5382 
 182   0.0000       1.135490        30.8982 
 183   0.0000       1.160390        31.5758 
 184   0.0000       1.187524        32.3142 
 185   0.0000       1.206172        32.8216 
 186   0.0000       1.210090        32.9282 
 187   0.0000       1.211821        32.9753 
 188   0.0000       1.218888        33.1676 
 189   0.0000       1.220578        33.2136 
 190   0.0000       1.225069        33.3358 
 191   0.0000       1.228094        33.4181 
 192   0.0000       1.236741        33.6534 
 193   0.0000       1.254346        34.1325 
 194   0.0000       1.287402        35.0320 
 195   0.0000       1.296941        35.2916 
 196   0.0000       1.312615        35.7181 
 197   0.0000       1.328017        36.1372 
 198   0.0000       1.341693        36.5093 
 199   0.0000       1.343214        36.5507 
 200   0.0000       1.359068        36.9821 
 201   0.0000       1.376681        37.4614 
 202   0.0000       1.379949        37.5503 
 203   0.0000       1.397778        38.0355 
 204   0.0000       1.416429        38.5430 
 205   0.0000       1.425445        38.7883 
 206   0.0000       1.426945        38.8291 
 207   0.0000       1.428543        38.8726 
 208   0.0000       1.442838        39.2616 
 209   0.0000       1.446305        39.3560 
 210   0.0000       1.468117        39.9495 
 211   0.0000       1.469728        39.9933 
 212   0.0000       1.473476        40.0953 
 213   0.0000       1.495711        40.7004 
 214   0.0000       1.501917        40.8692 
 215   0.0000       1.525477        41.5103 
 216   0.0000       1.533760        41.7357 
 217   0.0000       1.550440        42.1896 
 218   0.0000       1.574821        42.8531 
 219   0.0000       1.581852        43.0444 
 220   0.0000       1.592898        43.3449 
 221   0.0000       1.598479        43.4968 
 222   0.0000       1.603746        43.6401 
 223   0.0000       1.617816        44.0230 
 224   0.0000       1.623863        44.1876 
 225   0.0000       1.629186        44.3324 
 226   0.0000       1.631059        44.3834 
 227   0.0000       1.634661        44.4814 
 228   0.0000       1.637070        44.5469 
 229   0.0000       1.640729        44.6465 
 230   0.0000       1.646259        44.7970 
 231   0.0000       1.653976        45.0070 
 232   0.0000       1.659382        45.1541 
 233   0.0000       1.674384        45.5623 
 234   0.0000       1.679389        45.6985 
 235   0.0000       1.684788        45.8454 
 236   0.0000       1.686525        45.8927 
 237   0.0000       1.696157        46.1548 
 238   0.0000       1.696561        46.1658 
 239   0.0000       1.703321        46.3497 
 240   0.0000       1.705871        46.4191 
 241   0.0000       1.711421        46.5701 
 242   0.0000       1.714972        46.6668 
 243   0.0000       1.724986        46.9393 
 244   0.0000       1.733641        47.1748 
 245   0.0000       1.746330        47.5201 
 246   0.0000       1.754661        47.7467 
 247   0.0000       1.756999        47.8104 
 248   0.0000       1.760691        47.9108 
 249   0.0000       1.778295        48.3899 
 250   0.0000       1.783628        48.5350 
 251   0.0000       1.793560        48.8053 
 252   0.0000       1.799454        48.9656 
 253   0.0000       1.800407        48.9916 
 254   0.0000       1.820274        49.5322 
 255   0.0000       1.823219        49.6123 
 256   0.0000       1.826609        49.7046 
 257   0.0000       1.840091        50.0714 
 258   0.0000       1.860872        50.6369 
 259   0.0000       1.879623        51.1471 
 260   0.0000       1.888198        51.3805 
 261   0.0000       1.894483        51.5515 
 262   0.0000       1.911761        52.0217 
 263   0.0000       1.924554        52.3698 
 264   0.0000       1.930671        52.5362 
 265   0.0000       1.938212        52.7414 
 266   0.0000       1.944546        52.9138 
 267   0.0000       1.951581        53.1052 
 268   0.0000       1.973217        53.6940 
 269   0.0000       2.002123        54.4805 
 270   0.0000       2.004777        54.5528 
 271   0.0000       2.011946        54.7478 
 272   0.0000       2.035498        55.3887 
 273   0.0000       2.047592        55.7178 
 274   0.0000       2.064601        56.1806 
 275   0.0000       2.077829        56.5406 
 276   0.0000       2.091009        56.8992 
 277   0.0000       2.095477        57.0208 
 278   0.0000       2.119589        57.6770 
 279   0.0000       2.139184        58.2101 
 280   0.0000       2.156757        58.6883 
 281   0.0000       2.162125        58.8344 
 282   0.0000       2.174704        59.1767 
 283   0.0000       2.181198        59.3534 
 284   0.0000       2.188527        59.5528 
 285   0.0000       2.203195        59.9520 
 286   0.0000       2.210471        60.1500 
 287   0.0000       2.223961        60.5170 
 288   0.0000       2.225243        60.5519 
 289   0.0000       2.229234        60.6605 
 290   0.0000       2.264519        61.6207 
 291   0.0000       2.282451        62.1087 
 292   0.0000       2.289187        62.2919 
 293   0.0000       2.295868        62.4738 
 294   0.0000       2.300822        62.6086 
 295   0.0000       2.306810        62.7715 
 296   0.0000       2.321893        63.1819 
 297   0.0000       2.335740        63.5587 
 298   0.0000       2.356650        64.1277 
 299   0.0000       2.358162        64.1689 
 300   0.0000       2.407030        65.4986 
 301   0.0000       2.411467        65.6194 
 302   0.0000       2.413043        65.6622 
 303   0.0000       2.414206        65.6939 
 304   0.0000       2.414809        65.7103 
 305   0.0000       2.428805        66.0911 
 306   0.0000       2.447248        66.5930 
 307   0.0000       2.468245        67.1644 
 308   0.0000       2.475684        67.3668 
 309   0.0000       2.508048        68.2475 
 310   0.0000       2.536824        69.0305 
 311   0.0000       2.538040        69.0636 
 312   0.0000       2.558422        69.6182 
 313   0.0000       2.597407        70.6790 
 314   0.0000       2.597964        70.6942 
 315   0.0000       2.628063        71.5132 
 316   0.0000       2.643147        71.9237 
 317   0.0000       2.682596        72.9972 
 318   0.0000       2.690237        73.2051 
 319   0.0000       2.714830        73.8743 
 320   0.0000       2.723537        74.1112 
 321   0.0000       2.743261        74.6479 
 322   0.0000       2.772598        75.4462 
 323   0.0000       2.821492        76.7767 
 324   0.0000       2.838760        77.2466 
 325   0.0000       2.931275        79.7641 
 326   0.0000       2.992487        81.4297 
 327   0.0000       3.195741        86.9605 
 328   0.0000       3.436414        93.5096 

                    ********************************
                    * MULLIKEN POPULATION ANALYSIS *
                    ********************************

--------------------------------------------
MULLIKEN ATOMIC CHARGES AND SPIN POPULATIONS
--------------------------------------------
   0 C :    0.619807    0.027102
   1 C :    0.027376    0.218157
   2 C :    0.084722   -0.160665
   3 C :   -0.003471    0.222973
   4 C :   -0.042972   -0.104273
   5 C :   -0.085417    0.241213
   6 C :    0.026660   -0.113533
   7 H :   -0.052863   -0.009487
   8 H :   -0.043198    0.004242
   9 C :   -0.073401    0.737375
  10 H :   -0.038023   -0.032290
  11 C :    0.029229   -0.050512
  12 H :    0.027961    0.033376
  13 H :    0.028026    0.033272
  14 C :   -0.040619    0.002299
  15 H :    0.011599    0.000546
  16 H :    0.011590    0.000533
  17 C :    0.003456   -0.000200
  18 H :    0.017859    0.000165
  19 H :    0.017884    0.000165
  20 C :    0.043000   -0.019276
  21 H :    0.031044    0.010470
  22 H :    0.030910    0.010218
  23 C :   -0.035064    0.000877
  24 H :    0.014176    0.000171
  25 H :    0.014389    0.000150
  26 C :   -0.025293    0.000018
  27 H :    0.006029    0.000054
  28 H :    0.006040    0.000055
  29 C :    0.002956   -0.000083
  30 H :    0.016500    0.000024
  31 H :    0.016523    0.000023
  32 C :   -0.593745   -0.045204
  33 H :   -0.030713    0.001791
  34 H :    0.013197   -0.000212
  35 H :    0.012655   -0.000006
  36 H :   -0.048807   -0.009529
Sum of atomic charges         :    0.0000000
Sum of atomic spin populations:    1.0000000

-----------------------------------------------------
MULLIKEN REDUCED ORBITAL CHARGES AND SPIN POPULATIONS
-----------------------------------------------------
CHARGE
  0 C s       :     3.121756  s :     3.121756
      pz      :     0.960594  p :     2.203820
      px      :     0.310090
      py      :     0.933136
      dz2     :     0.003540  d :     0.054617
      dxz     :     0.021527
      dyz     :     0.000195
      dx2y2   :     0.009139
      dxy     :     0.020216
  1 C s       :     3.152962  s :     3.152962
      pz      :     0.978345  p :     2.754617
      px      :     0.817499
      py      :     0.958773
      dz2     :     0.003121  d :     0.065045
      dxz     :     0.003642
      dyz     :     0.013310
      dx2y2   :     0.026520
      dxy     :     0.018452
  2 C s       :     3.097165  s :     3.097165
      pz      :     0.954350  p :     2.732496
      px      :     0.950736
      py      :     0.827410
      dz2     :     0.004611  d :     0.085617
      dxz     :     0.012728
      dyz     :     0.014081
      dx2y2   :     0.027113
      dxy     :     0.027084
  3 C s       :     3.216035  s :     3.216035
      pz      :     0.988256  p :     2.723790
      px      :     0.894570
      py      :     0.840964
      dz2     :     0.003379  d :     0.063647
      dxz     :     0.010238
      dyz     :     0.006904
      dx2y2   :     0.019130
      dxy     :     0.023995
  4 C s       :     3.220543  s :     3.220543
      pz      :     1.001443  p :     2.734494
      px      :     0.814085
      py      :     0.918966
      dz2     :     0.004703  d :     0.087934
      dxz     :     0.012315
      dyz     :     0.013948
      dx2y2   :     0.029925
      dxy     :     0.027043
  5 C s       :     3.173703  s :     3.173703
      pz      :     0.955797  p :     2.828306
      px      :     0.938070
      py      :     0.934440
      dz2     :     0.004701  d :     0.083407
      dxz     :     0.014083
      dyz     :     0.012176
      dx2y2   :     0.024555
      dxy     :     0.027893
  6 C s       :     3.128074  s :     3.128074
      pz      :     0.996553  p :     2.780193
      px      :     0.951735
      py      :     0.831905
      dz2     :     0.003039  d :     0.065073
      dxz     :     0.010733
      dyz     :     0.006632
      dx2y2   :     0.020061
      dxy     :     0.024607
  7 H s       :     1.024698  s :     1.024698
      pz      :     0.006264  p :     0.028165
      px      :     0.008519
      py      :     0.013382
  8 H s       :     1.014554  s :     1.014554
      pz      :     0.006197  p :     0.028644
      px      :     0.008340
      py      :     0.014107
  9 C s       :     3.220166  s :     3.220166
      pz      :     0.995779  p :     2.793786
      px      :     0.884401
[...]
 A(DIA)         -0.0001               0.0002               0.0001    A(PC) =   0.0001
             ----------           ----------           ----------
 A(Tot)          2.0184               2.8561               4.3009    A(iso)=    3.0585
 Orientation: 
  X           0.9979051           -0.0252705           -0.0595550
  Y          -0.0594296            0.0056854           -0.9982163
  Z           0.0255640            0.9996645            0.0041717

Notes:  (1) The A matrix conforms to the "SAI" spin Hamiltonian convention.
        (2) Tensor is right-handed.

 -----------------------------------------------------------
 Nucleus  34H : A:ISTP=    1 I=  0.5 P=533.5514 MHz/au**3
                Q:ISTP=    2 I=  1.0 Q=  0.0029 barn     
 -----------------------------------------------------------
 Solving for nuclear perturbation:
Forming RHS of the CP-SCF equations         ... 
Calc. nucleus orbit integrals (SHARK)       ... done

------------------------------------------------------------------------------
                           ORCA CP-SCF CALCULATION
------------------------------------------------------------------------------

Input orbitals are from        ... cc-pVDZ.gbw
Input Perturbation             ... cc-pVDZ.pin.tmp
Wavefunction output            ... cc-pVDZ.pout.tmp
Perturbation mode              ... Imaginary perturbation
Solver                         ... POPLE
Max. number of iterations      ... 64
Convergence tolerance          ... 1.000e-03
Integral handling              ... Direct
DFT GridXC                     ... 1
COSX GridX                     ... 1
COSX IntAccX                   ... 3.067
COSX Algorithm                 ... Auto
Number of perturbations        ... 3
Number of operators            ... 2
Orbital ranges used for CP-SCF:
 Operator 0:  Orbitals   0... 58  to  59...328
 Operator 1:  Orbitals   0... 57  to  58...328
Variables per perturbation     ... 31648
DFT calculation                         ... on
XC functional terms                     ... off
Hybrid DFT                              ... on
   Exchange mixing (SCF)                ...  0.200
   Exchange mixing (CP-SCF)             ...  0.200
   GGA exch. scaling(SCF)               ...  0.720
   GGA exch. scaling (CP-SCF)           ...  0.720
   GGA corr. scaling (SCF)              ...  0.810
   GGA corr. scaling (CP-SCF)           ...  0.810

CP-SCF GRID
-----------

General Integration Accuracy     IntAcc      ... 3.467
Radial Grid Type                 RadialGrid  ... OptM3 with GC (2021)
Angular Grid (max. ang.)         AngularGrid ... 1 (Lebedev-50)
Angular grid pruning method      GridPruning ... 4 (adaptive)
Weight generation scheme         WeightScheme... Becke
Basis function cutoff            BFCut       ... 1.0000e-10
Integration weight cutoff        WCut        ... 1.0000e-14
Angular grids for H and He will be reduced by one unit
Partially contracted basis set               ... off
Rotationally invariant grid construction     ... off

Total number of grid points                  ...    22945
Total number of batches                      ...      374
Average number of points per batch           ...       61
Average number of grid points per atom       ...      620

CP-SCF GRIDX
------------

General Integration Accuracy     IntAcc      ... 3.067
Radial Grid Type                 RadialGrid  ... OptM3 with GC (2021)
Angular Grid (max. ang.)         AngularGrid ... 1 (Lebedev-50)
Angular grid pruning method      GridPruning ... 4 (adaptive)
Weight generation scheme         WeightScheme... Becke
Basis function cutoff            BFCut       ... 1.0000e-10
Integration weight cutoff        WCut        ... 1.0000e-14
Angular grids for H and He will be reduced by one unit
Partially contracted basis set               ... on
Rotationally invariant grid construction     ... off

Total number of grid points                  ...    10826
Total number of batches                      ...      191
Average number of points per batch           ...       56
Average number of grid points per atom       ...      293

Memory available               ... 916.3 MB
Memory needed per perturbation ...   6.9 MB
Perturbations treated per batch... 3
Number of batches              ... 1
     CP-SCF ITERATION   0:   3.6473e-02 (   1.0 sec   0/  3 done)
     CP-SCF ITERATION   1:   5.8043e-04 (   1.0 sec   3/  3 done)
                    *** THE CP-SCF HAS CONVERGED ***

Forming final perturbed densities           ... done
Transforming perturbed density to AO basis  ... done

 Raw HFC matrix (all values in MHz): 
 -----------------------------------
                -0.7967               0.2879              -0.0002
                 0.2879               0.7448               0.0003
                -0.0002               0.0003              -0.8196

 A(FC)          -0.2906              -0.2906              -0.2906
 A(SD)           1.0869              -0.5289              -0.5580
 A(ORB+DIA)      0.0005              -0.0001              -0.0001    A(PC) =   0.0001
 A(ORB)          0.0004               0.0000              -0.0001    A(PC) =   0.0001
 A(DIA)          0.0001              -0.0001              -0.0000    A(PC) =  -0.0000
             ----------           ----------           ----------
 A(Tot)          0.7968              -0.8196              -0.8487    A(iso)=   -0.2905
 Orientation: 
  X           0.1777928            0.0072724           -0.9840411
  Y           0.9840679           -0.0011529            0.1777891
  Z           0.0001584           -0.9999729           -0.0073616

Notes:  (1) The A matrix conforms to the "SAI" spin Hamiltonian convention.
        (2) Tensor is right-handed.

 -----------------------------------------------------------
 Nucleus  35H : A:ISTP=    1 I=  0.5 P=533.5514 MHz/au**3
                Q:ISTP=    2 I=  1.0 Q=  0.0029 barn     
 -----------------------------------------------------------
 Solving for nuclear perturbation:
Forming RHS of the CP-SCF equations         ... 
Calc. nucleus orbit integrals (SHARK)       ... done

------------------------------------------------------------------------------
                           ORCA CP-SCF CALCULATION
------------------------------------------------------------------------------

Input orbitals are from        ... cc-pVDZ.gbw
Input Perturbation             ... cc-pVDZ.pin.tmp
Wavefunction output            ... cc-pVDZ.pout.tmp
Perturbation mode              ... Imaginary perturbation
Solver                         ... POPLE
Max. number of iterations      ... 64
Convergence tolerance          ... 1.000e-03
Integral handling              ... Direct
DFT GridXC                     ... 1
COSX GridX                     ... 1
COSX IntAccX                   ... 3.067
COSX Algorithm                 ... Auto
Number of perturbations        ... 3
Number of operators            ... 2
Orbital ranges used for CP-SCF:
 Operator 0:  Orbitals   0... 58  to  59...328
 Operator 1:  Orbitals   0... 57  to  58...328
Variables per perturbation     ... 31648
DFT calculation                         ... on
XC functional terms                     ... off
Hybrid DFT                              ... on
   Exchange mixing (SCF)                ...  0.200
   Exchange mixing (CP-SCF)             ...  0.200
   GGA exch. scaling(SCF)               ...  0.720
   GGA exch. scaling (CP-SCF)           ...  0.720
   GGA corr. scaling (SCF)              ...  0.810
   GGA corr. scaling (CP-SCF)           ...  0.810

CP-SCF GRID
-----------

General Integration Accuracy     IntAcc      ... 3.467
Radial Grid Type                 RadialGrid  ... OptM3 with GC (2021)
Angular Grid (max. ang.)         AngularGrid ... 1 (Lebedev-50)
Angular grid pruning method      GridPruning ... 4 (adaptive)
Weight generation scheme         WeightScheme... Becke
Basis function cutoff            BFCut       ... 1.0000e-10
Integration weight cutoff        WCut        ... 1.0000e-14
Angular grids for H and He will be reduced by one unit
Partially contracted basis set               ... off
Rotationally invariant grid construction     ... off

Total number of grid points                  ...    22945
Total number of batches                      ...      374
Average number of points per batch           ...       61
Average number of grid points per atom       ...      620

CP-SCF GRIDX
------------

General Integration Accuracy     IntAcc      ... 3.067
Radial Grid Type                 RadialGrid  ... OptM3 with GC (2021)
Angular Grid (max. ang.)         AngularGrid ... 1 (Lebedev-50)
Angular grid pruning method      GridPruning ... 4 (adaptive)
Weight generation scheme         WeightScheme... Becke
Basis function cutoff            BFCut       ... 1.0000e-10
Integration weight cutoff        WCut        ... 1.0000e-14
Angular grids for H and He will be reduced by one unit
Partially contracted basis set               ... on
Rotationally invariant grid construction     ... off

Total number of grid points                  ...    10826
Total number of batches                      ...      191
Average number of points per batch           ...       56
Average number of grid points per atom       ...      293

Memory available               ... 916.0 MB
Memory needed per perturbation ...   6.9 MB
Perturbations treated per batch... 3
Number of batches              ... 1
     CP-SCF ITERATION   0:   3.6571e-02 (   1.0 sec   0/  3 done)
     CP-SCF ITERATION   1:   6.0294e-04 (   1.0 sec   3/  3 done)
                    *** THE CP-SCF HAS CONVERGED ***

Forming final perturbed densities           ... done
Transforming perturbed density to AO basis  ... done

 Raw HFC matrix (all values in MHz): 
 -----------------------------------
                -0.1286               0.0561               0.0000
                 0.0561               0.2412               0.0008
                 0.0000               0.0008              -0.1334

 A(FC)          -0.0070              -0.0070              -0.0070
 A(SD)          -0.1264              -0.1300               0.2564
 A(ORB+DIA)      0.0000               0.0000               0.0001    A(PC) =   0.0000
 A(ORB)          0.0000              -0.0000               0.0001    A(PC) =   0.0000
 A(DIA)          0.0000               0.0000               0.0000    A(PC) =   0.0000
             ----------           ----------           ----------
 A(Tot)         -0.1334              -0.1370               0.2495    A(iso)=   -0.0070
 Orientation: 
  X          -0.0283030            0.9887693            0.1467452
  Y           0.0021750           -0.1467427            0.9891723
  Z           0.9995970            0.0283157            0.0020027

Notes:  (1) The A matrix conforms to the "SAI" spin Hamiltonian convention.
        (2) Tensor is right-handed.

 -----------------------------------------------------------
 Nucleus  36H : A:ISTP=    1 I=  0.5 P=533.5514 MHz/au**3
                Q:ISTP=    2 I=  1.0 Q=  0.0029 barn     
 -----------------------------------------------------------
 Solving for nuclear perturbation:
Forming RHS of the CP-SCF equations         ... 
Calc. nucleus orbit integrals (SHARK)       ... done

------------------------------------------------------------------------------
                           ORCA CP-SCF CALCULATION
------------------------------------------------------------------------------

Input orbitals are from        ... cc-pVDZ.gbw
Input Perturbation             ... cc-pVDZ.pin.tmp
Wavefunction output            ... cc-pVDZ.pout.tmp
Perturbation mode              ... Imaginary perturbation
Solver                         ... POPLE
Max. number of iterations      ... 64
Convergence tolerance          ... 1.000e-03
Integral handling              ... Direct
DFT GridXC                     ... 1
COSX GridX                     ... 1
COSX IntAccX                   ... 3.067
COSX Algorithm                 ... Auto
Number of perturbations        ... 3
Number of operators            ... 2
Orbital ranges used for CP-SCF:
 Operator 0:  Orbitals   0... 58  to  59...328
 Operator 1:  Orbitals   0... 57  to  58...328
Variables per perturbation     ... 31648
DFT calculation                         ... on
XC functional terms                     ... off
Hybrid DFT                              ... on
   Exchange mixing (SCF)                ...  0.200
   Exchange mixing (CP-SCF)             ...  0.200
   GGA exch. scaling(SCF)               ...  0.720
   GGA exch. scaling (CP-SCF)           ...  0.720
   GGA corr. scaling (SCF)              ...  0.810
   GGA corr. scaling (CP-SCF)           ...  0.810

CP-SCF GRID
-----------

General Integration Accuracy     IntAcc      ... 3.467
Radial Grid Type                 RadialGrid  ... OptM3 with GC (2021)
Angular Grid (max. ang.)         AngularGrid ... 1 (Lebedev-50)
Angular grid pruning method      GridPruning ... 4 (adaptive)
Weight generation scheme         WeightScheme... Becke
Basis function cutoff            BFCut       ... 1.0000e-10
Integration weight cutoff        WCut        ... 1.0000e-14
Angular grids for H and He will be reduced by one unit
Partially contracted basis set               ... off
Rotationally invariant grid construction     ... off

Total number of grid points                  ...    22945
Total number of batches                      ...      374
Average number of points per batch           ...       61
Average number of grid points per atom       ...      620

CP-SCF GRIDX
------------

General Integration Accuracy     IntAcc      ... 3.067
Radial Grid Type                 RadialGrid  ... OptM3 with GC (2021)
Angular Grid (max. ang.)         AngularGrid ... 1 (Lebedev-50)
Angular grid pruning method      GridPruning ... 4 (adaptive)
Weight generation scheme         WeightScheme... Becke
Basis function cutoff            BFCut       ... 1.0000e-10
Integration weight cutoff        WCut        ... 1.0000e-14
Angular grids for H and He will be reduced by one unit
Partially contracted basis set               ... on
Rotationally invariant grid construction     ... off

Total number of grid points                  ...    10826
Total number of batches                      ...      191
Average number of points per batch           ...       56
Average number of grid points per atom       ...      293

Memory available               ... 915.6 MB
Memory needed per perturbation ...   6.9 MB
Perturbations treated per batch... 3
Number of batches              ... 1
     CP-SCF ITERATION   0:   4.4615e-02 (   1.0 sec   0/  3 done)
     CP-SCF ITERATION   1:   2.0061e-03 (   1.0 sec   0/  3 done)
     CP-SCF ITERATION   2:   1.0742e-04 (   1.0 sec   3/  3 done)
                    *** THE CP-SCF HAS CONVERGED ***

Forming final perturbed densities           ... done
Transforming perturbed density to AO basis  ... done

 Raw HFC matrix (all values in MHz): 
 -----------------------------------
                -6.6809              -1.6984               0.1916
                -1.6960             -19.1195              -0.0190
                 0.1916              -0.0191             -16.4627

 A(FC)         -14.0900             -14.0900             -14.0900
 A(SD)           7.6389              -2.3757              -5.2633
 A(ORB+DIA)      0.0013              -0.0007               0.0064    A(PC) =   0.0024
 A(ORB)         -0.0001               0.0002               0.0064    A(PC) =   0.0022
 A(DIA)          0.0014              -0.0009              -0.0000    A(PC) =   0.0002
             ----------           ----------           ----------
 A(Tot)         -6.4498             -16.4664             -19.3469    A(iso)=  -14.0877
 Orientation: 
  X          -0.9909482           -0.0187365            0.1329310
  Y           0.1328631            0.0048247            0.9911227
  Z          -0.0192115            0.9998128           -0.0022917

Notes:  (1) The A matrix conforms to the "SAI" spin Hamiltonian convention.
        (2) Tensor is right-handed.


--------------------------------------------------------------------------------
----------------------------------------------------------------------------
                           ORCA EULER ANGLE PROGRAM
----------------------------------------------------------------------------

Only g-tensor available        -->  using g-tensor as reference tensor

Reference tensor               ...  g

g-tensor ordering              ...  |g_min> --> |gx>
                                    |g_mid> --> |gy>
                                    |g_max> --> |gz>

A- and EFG-tensor ordering     ...  the axes |Ax>, |Qx>, |Ay>, etc. are assigned
                                    such that the Euler rotation is minimal. You
                                    can find the respective eigenvalues as Ax,
                                    EFGx, Ay, etc. in the tables below.
                                    The relation of |Ax>, |Ay>,  etc. to Amin, Amid, etc.
                                    (as printed in the ORCA EPR/NMR CALCULATION Output)
                                    is obtained in the detailed printout.

Euler rotation around          ...  z - y - z
   First rotation              -->  by alpha around z
   Second rotation             -->  by beta around y'
   Third rotation              -->  by gamma around z''
   Positive / Negative angle   -->  clockwise / counterclockwise rotation

Plot EFG-tensors                    (-)
Plot HFC-tensors                    (-)
Detailed Printout                   (-)

-------------------------------------------------------------------------
          Euler rotation of hyperfine tensor to g-tensor
-------------------------------------------------------------------------

-------------------------------------------------------------------
 Atom  |   Alpha    Beta    Gamma   |   Ax       Ay       Az 
       |          [degrees]         |           [MHz]         
-------------------------------------------------------------------
  7H      -90.1     37.6     90.2     -16.35    -6.89   -19.97
  8H      -90.0     37.8     90.0       3.83     4.76     9.26
 10H       89.8      9.9    -89.8     -47.81   -17.41   -73.85
 12H      -91.9     38.2     70.0      60.20    70.27    61.52
 13H      -87.7     38.1    109.4      59.95    70.02    61.28
 15H      -82.8     18.7     39.0      -3.37    -3.20     3.33
 16H      -96.2     18.5    140.4      -3.36    -3.20     3.33
 18H      105.2     20.8    -60.6      -0.09     0.04     2.36
 19H       74.2     20.6   -119.1      -0.10     0.04     2.36
 21H     -162.2     36.3    120.2      21.65    21.06    24.94
 22H      -17.4     36.5     60.7      21.15    20.58    24.45
 24H       71.6     27.5    -61.8      -0.97    -0.87     1.10
 25H      109.6     27.4   -117.0      -0.95    -0.86     1.09
 27H     -179.9     10.0    147.5      -0.13    -0.18     0.82
 28H        0.6     10.5     32.4      -0.13    -0.17     0.82
 30H      114.0     15.2   -118.1      -0.13    -0.11     0.40
 31H       66.0     15.4    -59.8      -0.13    -0.11     0.40
 33H       89.8      8.6    -90.1       2.86     2.02     4.30
 34H       87.5      1.7    -86.8      -0.82    -0.85     0.80
 35H       85.7      3.5    -86.1      -0.13    -0.14     0.25
 36H       89.9      4.3    -89.9     -16.47    -6.45   -19.35
-------------------------------------------------------------------


Maximum memory used throughout the entire EPRNMR-calculation: 147.8 MB

Timings for individual modules:

Sum of individual times         ...     1466.172 sec (=  24.436 min)
GTO integral calculation        ...        4.697 sec (=   0.078 min)   0.3 %
Spin-Orbit-Coupling Matrices    ...        5.926 sec (=   0.099 min)   0.4 %
SCF iterations                  ...       18.900 sec (=   0.315 min)   1.3 %
EPR/NMR calculation             ...     1436.650 sec (=  23.944 min)  98.0 %
                             ****ORCA TERMINATED NORMALLY****
TOTAL RUN TIME: 0 days 0 hours 24 minutes 30 seconds 615 msec
