
                                 *****************
                                 * O   R   C   A *
                                 *****************

                                            #,                                       
                                            ###                                      
                                            ####                                     
                                            #####                                    
                                            ######                                   
                                           ########,                                 
                                     ,,################,,,,,                         
                               ,,#################################,,                 
                          ,,##########################################,,             
                       ,#########################################, ''#####,          
                    ,#############################################,,   '####,        
                  ,##################################################,,,,####,       
                ,###########''''           ''''###############################       
              ,#####''   ,,,,##########,,,,          '''####'''          '####       
            ,##' ,,,,###########################,,,                        '##       
           ' ,,###''''                  '''############,,,                           
         ,,##''                                '''############,,,,        ,,,,,,###''
      ,#''                                            '''#######################'''  
     '                                                          ''''####''''         
             ,#######,   #######,   ,#######,      ##                                
            ,#'     '#,  ##    ##  ,#'     '#,    #''#        ######   ,####,        
            ##       ##  ##   ,#'  ##            #'  '#       #        #'  '#        
            ##       ##  #######   ##           ,######,      #####,   #    #        
            '#,     ,#'  ##    ##  '#,     ,#' ,#      #,         ##   #,  ,#        
             '#######'   ##     ##  '#######'  #'      '#     #####' # '####'        



                  #######################################################
                  #                        -***-                        #
                  #          Department of theory and spectroscopy      #
                  #    Directorship and core code : Frank Neese         #
                  #        Max Planck Institute fuer Kohlenforschung    #
                  #                Kaiser Wilhelm Platz 1               #
                  #                 D-45470 Muelheim/Ruhr               #
                  #                      Germany                        #
                  #                                                     #
                  #                  All rights reserved                #
                  #                        -***-                        #
                  #######################################################


                         Program Version 5.0.4 -  RELEASE  -


 With contributions from (in alphabetic order):
   Daniel Aravena         : Magnetic Suceptibility
   Michael Atanasov       : Ab Initio Ligand Field Theory (pilot matlab implementation)
   Alexander A. Auer      : GIAO ZORA, VPT2 properties, NMR spectrum
   Ute Becker             : Parallelization
   Giovanni Bistoni       : ED, misc. LED, open-shell LED, HFLD
   Martin Brehm           : Molecular dynamics
   Dmytro Bykov           : SCF Hessian
   Vijay G. Chilkuri      : MRCI spin determinant printing, contributions to CSF-ICE
   Dipayan Datta          : RHF DLPNO-CCSD density
   Achintya Kumar Dutta   : EOM-CC, STEOM-CC
   Dmitry Ganyushin       : Spin-Orbit,Spin-Spin,Magnetic field MRCI
   Miquel Garcia          : C-PCM and meta-GGA Hessian, CC/C-PCM, Gaussian charge scheme
   Yang Guo               : DLPNO-NEVPT2, F12-NEVPT2, CIM, IAO-localization
   Andreas Hansen         : Spin unrestricted coupled pair/coupled cluster methods
   Benjamin Helmich-Paris : MC-RPA, TRAH-SCF, COSX integrals
   Lee Huntington         : MR-EOM, pCC
   Robert Izsak           : Overlap fitted RIJCOSX, COSX-SCS-MP3, EOM
   Marcus Kettner         : VPT2
   Christian Kollmar      : KDIIS, OOCD, Brueckner-CCSD(T), CCSD density, CASPT2, CASPT2-K
   Simone Kossmann        : Meta GGA functionals, TD-DFT gradient, OOMP2, MP2 Hessian
   Martin Krupicka        : Initial AUTO-CI
   Lucas Lang             : DCDCAS
   Marvin Lechner         : AUTO-CI (C++ implementation), FIC-MRCC
   Dagmar Lenk            : GEPOL surface, SMD
   Dimitrios Liakos       : Extrapolation schemes; Compound Job, initial MDCI parallelization
   Dimitrios Manganas     : Further ROCIS development; embedding schemes
   Dimitrios Pantazis     : SARC Basis sets
   Anastasios Papadopoulos: AUTO-CI, single reference methods and gradients
   Taras Petrenko         : DFT Hessian,TD-DFT gradient, ASA, ECA, R-Raman, ABS, FL, XAS/XES, NRVS
   Peter Pinski           : DLPNO-MP2, DLPNO-MP2 Gradient
   Christoph Reimann      : Effective Core Potentials
   Marius Retegan         : Local ZFS, SOC
   Christoph Riplinger    : Optimizer, TS searches, QM/MM, DLPNO-CCSD(T), (RO)-DLPNO pert. Triples
   Tobias Risthaus        : Range-separated hybrids, TD-DFT gradient, RPA, STAB
   Michael Roemelt        : Original ROCIS implementation
   Masaaki Saitow         : Open-shell DLPNO-CCSD energy and density
   Barbara Sandhoefer     : DKH picture change effects
   Avijit Sen             : IP-ROCIS
   Kantharuban Sivalingam : CASSCF convergence, NEVPT2, FIC-MRCI
   Bernardo de Souza      : ESD, SOC TD-DFT
   Georgi Stoychev        : AutoAux, RI-MP2 NMR, DLPNO-MP2 response
   Willem Van den Heuvel  : Paramagnetic NMR
   Boris Wezisla          : Elementary symmetry handling
   Frank Wennmohs         : Technical directorship


 We gratefully acknowledge several colleagues who have allowed us to
 interface, adapt or use parts of their codes:
   Stefan Grimme, W. Hujo, H. Kruse, P. Pracht,  : VdW corrections, initial TS optimization,
                  C. Bannwarth, S. Ehlert          DFT functionals, gCP, sTDA/sTD-DF
   Ed Valeev, F. Pavosevic, A. Kumar             : LibInt (2-el integral package), F12 methods
   Garnet Chan, S. Sharma, J. Yang, R. Olivares  : DMRG
   Ulf Ekstrom                                   : XCFun DFT Library
   Mihaly Kallay                                 : mrcc  (arbitrary order and MRCC methods)
   Jiri Pittner, Ondrej Demel                    : Mk-CCSD
   Frank Weinhold                                : gennbo (NPA and NBO analysis)
   Christopher J. Cramer and Donald G. Truhlar   : smd solvation model
   Lars Goerigk                                  : TD-DFT with DH, B97 family of functionals
   V. Asgeirsson, H. Jonsson                     : NEB implementation
   FAccTs GmbH                                   : IRC, NEB, NEB-TS, DLPNO-Multilevel, CI-OPT
                                                   MM, QMMM, 2- and 3-layer-ONIOM, Crystal-QMMM,
                                                   LR-CPCM, SF, NACMEs, symmetry and pop. for TD-DFT,
                                                   nearIR, NL-DFT gradient (VV10), updates on ESD,
                                                   ML-optimized integration grids
   S Lehtola, MJT Oliveira, MAL Marques          : LibXC Library
   Liviu Ungur et al                             : ANISO software


 Your calculation uses the libint2 library for the computation of 2-el integrals
 For citations please refer to: http://libint.valeyev.net

 Your ORCA version has been built with support for libXC version: 5.1.0
 For citations please refer to: https://tddft.org/programs/libxc/

 This ORCA versions uses:
   CBLAS   interface :  Fast vector & matrix operations
   LAPACKE interface :  Fast linear algebra routines
   SCALAPACK package :  Parallel linear algebra routines
   Shared memory     :  Shared parallel matrices
   BLAS/LAPACK       :  OpenBLAS 0.3.15  USE64BITINT DYNAMIC_ARCH NO_AFFINITY SkylakeX SINGLE_THREADED
        Core in use  :  SkylakeX
   Copyright (c) 2011-2014, The OpenBLAS Project




***************************************
The coordinates will be read from file: opt_cc-pVDZ.xyz
***************************************


================================================================================

----- Orbital basis set information -----
Your calculation utilizes the basis: cc-pVDZ 
       H, B-Ne : Obtained from the ccRepo (grant-hill.group.shef.ac.uk/ccrepo) Feb. 2017
                 T. H. Dunning, Jr., J. Chem. Phys. 90, 1007 (1989)
            He : Obtained from the ccRepo (grant-hill.group.shef.ac.uk/ccrepo) Feb. 2017
                 D. E. Woon, T. H. Dunning, Jr., J. Chem. Phys. 100, 2975 (1994)
  Li-Be, Na-Mg : Obtained from the ccRepo (grant-hill.group.shef.ac.uk/ccrepo) Feb. 2017
                 B. P. Prascher, D. E. Woon, K. A. Peterson, T. H. Dunning, Jr., A. K. Wilson, Theor. Chem. Acc. 128, 69 (2011)
         Al-Ar : Obtained from the ccRepo (grant-hill.group.shef.ac.uk/ccrepo) Feb. 2017
                 D. E. Woon, T. H. Dunning, Jr., J. Chem. Phys. 98, 1358 (1993)
            Ca : Obtained from the Peterson Research Group Website (tyr0.chem.wsu.edu/~kipeters) Feb. 2017
                 J. Koput, K. A. Peterson, J. Phys. Chem. 106, 9595 (2002)
         Sc-Zn : Obtained from the ccRepo (grant-hill.group.shef.ac.uk/ccrepo) Feb. 2017
                 N. B. Balabanov, K. A. Peterson, J. Chem. Phys. 123, 064107 (2005)
                 N. B. Balabanov, K. A. Peterson, J. Chem. Phys. 125, 074110 (2006)
         Ga-Kr : Obtained from the ccRepo (grant-hill.group.shef.ac.uk/ccrepo) Feb. 2017
                 A. K. Wilson, D. E. Woon, K. A. Peterson, T. H. Dunning, Jr., J. Chem. Phys. 110, 7667 (1999)

----- AuxJ basis set information -----
Your calculation utilizes the AutoAux generation procedure.
  G. L. Stoychev, A. A. Auer, F. Neese, J. Chem. Theory Comput. 13, 554 (2017)

----- AuxC basis set information -----
Your calculation utilizes the AutoAux generation procedure.
  G. L. Stoychev, A. A. Auer, F. Neese, J. Chem. Theory Comput. 13, 554 (2017)

----- AuxJK basis set information -----
Your calculation utilizes the AutoAux generation procedure.
  G. L. Stoychev, A. A. Auer, F. Neese, J. Chem. Theory Comput. 13, 554 (2017)

================================================================================
                                        WARNINGS
                       Please study these warnings very carefully!
================================================================================

WARNING: Old DensityContainer found on disk!
         Will remove this file - 
         If you want to keep old densities, please start your calculation with a different basename. 


WARNING: your system is open-shell and RHF/RKS was chosen
  ===> : WILL SWITCH to UHF/UKS


INFO   : the flag for use of the SHARK integral package has been found!

================================================================================
                                       INPUT FILE
================================================================================
NAME = cc-pVDZ.inp
|  1> ! B3LYP cc-pVDZ AUTOAUX
|  2> %pal nprocs 16 end
|  3> *XYZFile 0 2 opt_cc-pVDZ.xyz
|  4> %EPRNMR
|  5>         GTENSOR   TRUE
|  6>         NUCLEI    = ALL H {SHIFT, AISO, ADIP, AORB}
|  7>         ORI       CenterOfElCharge
|  8> END
|  9> 
| 10>                          ****END OF INPUT****
================================================================================

                       ****************************
                       * Single Point Calculation *
                       ****************************

---------------------------------
CARTESIAN COORDINATES (ANGSTROEM)
---------------------------------
  C     -2.933965   -0.019156   -0.033968
  C      1.296444    0.061824    0.040566
  C      0.590322    1.299161    0.022548
  C     -0.830039    1.218699   -0.002568
  C     -1.498847   -0.010865   -0.008782
  C     -0.774122   -1.238368    0.009788
  C      0.629525   -1.156383    0.034189
  H     -1.427048    2.131305   -0.017267
  H      1.218575   -2.074536    0.048583
  C      1.286379    2.535197    0.030201
  H      2.380650    2.491770    0.051082
  C      0.640532    3.887507    0.012493
  H     -0.012376    3.983662   -0.880092
  H     -0.049999    3.988622    0.875732
  C      1.643345    5.048380    0.030876
  H      2.282617    4.957558    0.928191
  H      2.320901    4.952811   -0.837413
  C      0.972750    6.423267    0.012627
  H      0.314169    6.559669    0.887828
  H      0.351814    6.554369   -0.890468
  C     -1.524725   -2.554079    0.003958
  H     -2.212077   -2.565707    0.870720
  H     -2.195078   -2.567781   -0.875816
  C     -0.682422   -3.832632    0.013830
  H     -0.007492   -3.844979   -0.861979
  H     -0.029847   -3.846602    0.906400
  C     -1.540410   -5.103659    0.002474
  H     -2.218502   -5.092318    0.875946
  H     -2.195501   -5.092127   -0.888376
  C     -0.711859   -6.390673    0.013110
  H     -0.072869   -6.448665    0.911291
  H     -0.048487   -6.447504   -0.867274
  C     -4.149537   -0.021067   -0.056637
  H     -5.221657   -0.018204   -0.079579
  H      1.717527    7.235284    0.026000
  H     -1.354931   -7.285723    0.003734
  H      2.389642    0.078813    0.059985

----------------------------
CARTESIAN COORDINATES (A.U.)
----------------------------
  NO LB      ZA    FRAG     MASS         X           Y           Z
   0 C     6.0000    0    12.011   -5.544390   -0.036199   -0.064190
   1 C     6.0000    0    12.011    2.449923    0.116831    0.076658
   2 C     6.0000    0    12.011    1.115546    2.455058    0.042610
   3 C     6.0000    0    12.011   -1.568546    2.303007   -0.004852
   4 C     6.0000    0    12.011   -2.832411   -0.020532   -0.016596
   5 C     6.0000    0    12.011   -1.462879   -2.340176    0.018497
   6 C     6.0000    0    12.011    1.189631   -2.185246    0.064608
   7 H     1.0000    0     1.008   -2.696730    4.027582   -0.032630
   8 H     1.0000    0     1.008    2.302774   -3.920305    0.091808
   9 C     6.0000    0    12.011    2.430904    4.790828    0.057072
  10 H     1.0000    0     1.008    4.498776    4.708762    0.096531
  11 C     6.0000    0    12.011    1.210430    7.346323    0.023609
  12 H     1.0000    0     1.008   -0.023387    7.528031   -1.663132
  13 H     1.0000    0     1.008   -0.094484    7.537402    1.654893
  14 C     6.0000    0    12.011    3.105473    9.540056    0.058348
  15 H     1.0000    0     1.008    4.313522    9.368426    1.754027
  16 H     1.0000    0     1.008    4.385867    9.359456   -1.582482
  17 C     6.0000    0    12.011    1.838232   12.138215    0.023862
  18 H     1.0000    0     1.008    0.593694   12.395978    1.677753
  19 H     1.0000    0     1.008    0.664833   12.385963   -1.682740
  20 C     6.0000    0    12.011   -2.881313   -4.826509    0.007479
  21 H     1.0000    0     1.008   -4.180220   -4.848484    1.645422
  22 H     1.0000    0     1.008   -4.148096   -4.852403   -1.655052
  23 C     6.0000    0    12.011   -1.289591   -7.242625    0.026135
  24 H     1.0000    0     1.008   -0.014157   -7.265958   -1.628904
  25 H     1.0000    0     1.008   -0.056403   -7.269025    1.712848
  26 C     6.0000    0    12.011   -2.910954   -9.644518    0.004675
  27 H     1.0000    0     1.008   -4.192361   -9.623086    1.655298
  28 H     1.0000    0     1.008   -4.148895   -9.622725   -1.678787
  29 C     6.0000    0    12.011   -1.345219  -12.076622    0.024775
  30 H     1.0000    0     1.008   -0.137702  -12.186210    1.722090
  31 H     1.0000    0     1.008   -0.091627  -12.184017   -1.638910
  32 C     6.0000    0    12.011   -7.841488   -0.039810   -0.107028
  33 H     1.0000    0     1.008   -9.867501   -0.034401   -0.150383
  34 H     1.0000    0     1.008    3.245655   13.672706    0.049133
  35 H     1.0000    0     1.008   -2.560448  -13.768022    0.007056
  36 H     1.0000    0     1.008    4.515768    0.148934    0.113356

--------------------------------
INTERNAL COORDINATES (ANGSTROEM)
--------------------------------
 C      0   0   0     0.000000000000     0.00000000     0.00000000
 C      1   0   0     4.231839839988     0.00000000     0.00000000
 C      2   1   0     1.424757839195    61.37695963     0.00000000
 C      3   2   1     1.422859233864   116.47776677     0.00000000
 C      4   3   2     1.399704010375   121.78520727     0.00000000
 C      5   4   3     1.425599666827   120.89151196     0.00000000
 C      2   1   3     1.388829863509    60.20455783   180.00001633
 H      4   3   2     1.090635557442   119.95725189   180.00267780
 H      7   2   1     1.090959403994   118.61151497   179.99234950
 C      3   2   1     1.418569824586   120.89425019   179.96044466
 H     10   3   2     1.095330947794   117.11364857   359.96044858
 C     10   3   2     1.498724101429   125.07808334   179.98503556
 H     12  10   3     1.110063984890   109.94520040   302.51480008
 H     12  10   3     1.110061838941   109.94205453    57.11640051
 C     12  10   3     1.534144812994   113.63709047   179.80734258
 H     15  12  10     1.105482416420   108.99923954   302.34634584
 H     15  12  10     1.105505174031   109.01396285    57.64902577
 C     15  12  10     1.529818248525   113.16507722   180.00225780
 H     18  15  12     1.103771820071   111.29387851    59.87960125
 H     18  15  12     1.103779898556   111.29083898   300.16793672
 C      6   5   4     1.514771933309   119.73137393   179.93722750
 H     21   6   5     1.106283803219   108.29988528   303.27332398
 H     21   6   5     1.106147394597   108.30764053    55.78545598
 C     21   6   5     1.531101392865   116.91649187   179.54080037
 H     24  21   6     1.105768681416   109.87692168   301.94034745
 H     24  21   6     1.105771158416   109.90216781    58.45183187
 C     24  21   6     1.533552225836   112.59848328   180.17849024
 H     27  24  21     1.105843647558   109.19089701   302.39415653
 H     27  24  21     1.105843493349   109.19299241    57.68300028
 C     27  24  21     1.530691072341   113.20223941   180.03828029
 H     30  27  24     1.103811451802   111.29556740    59.90229133
 H     30  27  24     1.103797071972   111.28824036   300.19309541
 C      1   2   3     1.215784932523   178.99186528     3.10071765
 H     33   1   5     1.072369011991   179.71040678    18.30095439
 H     18  15  12     1.101926979723   111.46040523   180.02337470
 H     30  27  24     1.102154214228   111.52614216   180.04872649
 H      2   1   3     1.093502341995   179.79352754   177.93812307

---------------------------
INTERNAL COORDINATES (A.U.)
---------------------------
 C      0   0   0     0.000000000000     0.00000000     0.00000000
 C      1   0   0     7.997018340194     0.00000000     0.00000000
 C      2   1   0     2.692402123237    61.37695963     0.00000000
 C      3   2   1     2.688814279125   116.47776677     0.00000000
 C      4   3   2     2.645057248159   121.78520727     0.00000000
 C      5   4   3     2.693992946913   120.89151196     0.00000000
 C      2   1   3     2.624508088643    60.20455783   180.00001633
 H      4   3   2     2.061002515481   119.95725189   180.00267780
 H      7   2   1     2.061614496775   118.61151497   179.99234950
 C      3   2   1     2.680708470311   120.89425019   179.96044466
 H     10   3   2     2.069875517339   117.11364857   359.96044858
 C     10   3   2     2.832178102008   125.07808334   179.98503556
 H     12  10   3     2.097716922572   109.94520040   302.51480008
 H     12  10   3     2.097712867316   109.94205453    57.11640051
 C     12  10   3     2.899113546334   113.63709047   179.80734258
 H     15  12  10     2.089059012899   108.99923954   302.34634584
 H     15  12  10     2.089102018551   109.01396285    57.64902577
 C     15  12  10     2.890937524387   113.16507722   180.00225780
 H     18  15  12     2.085826454273   111.29387851    59.87960125
 H     18  15  12     2.085841720398   111.29083898   300.16793672
 C      6   5   4     2.862504109305   119.73137393   179.93722750
 H     21   6   5     2.090573414478   108.29988528   303.27332398
 H     21   6   5     2.090315639540   108.30764053    55.78545598
 C     21   6   5     2.893362315780   116.91649187   179.54080037
 H     24  21   6     2.089599975343   109.87692168   301.94034745
 H     24  21   6     2.089604656195   109.90216781    58.45183187
 C     24  21   6     2.897993718896   112.59848328   180.17849024
 H     27  24  21     2.089741640820   109.19089701   302.39415653
 H     27  24  21     2.089741349408   109.19299241    57.68300028
 C     27  24  21     2.892586922363   113.20223941   180.03828029
 H     30  27  24     2.085901347391   111.29556740    59.90229133
 H     30  27  24     2.085874173451   111.28824036   300.19309541
 C      1   2   3     2.297500560216   178.99186528     3.10071765
 H     33   1   5     2.026483747166   179.71040678    18.30095439
 H     18  15  12     2.082340211255   111.46040523   180.02337470
 H     30  27  24     2.082769622237   111.52614216   180.04872649
 H      2   1   3     2.066419953171   179.79352754   177.93812307

---------------------
BASIS SET INFORMATION
---------------------
There are 2 groups of distinct atoms

 Group   1 Type C   : 17s4p1d contracted to 3s2p1d pattern {881/31/1}
 Group   2 Type H   : 4s1p contracted to 2s1p pattern {31/1}

Atom   0C    basis set group =>   1
Atom   1C    basis set group =>   1
Atom   2C    basis set group =>   1
Atom   3C    basis set group =>   1
Atom   4C    basis set group =>   1
Atom   5C    basis set group =>   1
Atom   6C    basis set group =>   1
Atom   7H    basis set group =>   2
Atom   8H    basis set group =>   2
Atom   9C    basis set group =>   1
Atom  10H    basis set group =>   2
Atom  11C    basis set group =>   1
Atom  12H    basis set group =>   2
Atom  13H    basis set group =>   2
Atom  14C    basis set group =>   1
Atom  15H    basis set group =>   2
Atom  16H    basis set group =>   2
Atom  17C    basis set group =>   1
Atom  18H    basis set group =>   2
Atom  19H    basis set group =>   2
Atom  20C    basis set group =>   1
Atom  21H    basis set group =>   2
Atom  22H    basis set group =>   2
Atom  23C    basis set group =>   1
Atom  24H    basis set group =>   2
Atom  25H    basis set group =>   2
Atom  26C    basis set group =>   1
Atom  27H    basis set group =>   2
Atom  28H    basis set group =>   2
Atom  29C    basis set group =>   1
Atom  30H    basis set group =>   2
Atom  31H    basis set group =>   2
Atom  32C    basis set group =>   1
Atom  33H    basis set group =>   2
Atom  34H    basis set group =>   2
Atom  35H    basis set group =>   2
Atom  36H    basis set group =>   2
---------------------------------
AUXILIARY/J BASIS SET INFORMATION
---------------------------------
There are 2 groups of distinct atoms

 Group   1 Type C   : 14s11p10d2f contracted to 14s11p10d2f pattern {11111111111111/11111111111/1111111111/11}
 Group   2 Type H   : 9s2p1d contracted to 9s2p1d pattern {111111111/11/1}

Atom   0C    basis set group =>   1
Atom   1C    basis set group =>   1
Atom   2C    basis set group =>   1
Atom   3C    basis set group =>   1
Atom   4C    basis set group =>   1
Atom   5C    basis set group =>   1
Atom   6C    basis set group =>   1
Atom   7H    basis set group =>   2
Atom   8H    basis set group =>   2
Atom   9C    basis set group =>   1
Atom  10H    basis set group =>   2
Atom  11C    basis set group =>   1
Atom  12H    basis set group =>   2
Atom  13H    basis set group =>   2
Atom  14C    basis set group =>   1
Atom  15H    basis set group =>   2
Atom  16H    basis set group =>   2
Atom  17C    basis set group =>   1
Atom  18H    basis set group =>   2
Atom  19H    basis set group =>   2
Atom  20C    basis set group =>   1
Atom  21H    basis set group =>   2
Atom  22H    basis set group =>   2
Atom  23C    basis set group =>   1
Atom  24H    basis set group =>   2
Atom  25H    basis set group =>   2
Atom  26C    basis set group =>   1
Atom  27H    basis set group =>   2
Atom  28H    basis set group =>   2
Atom  29C    basis set group =>   1
Atom  30H    basis set group =>   2
Atom  31H    basis set group =>   2
Atom  32C    basis set group =>   1
Atom  33H    basis set group =>   2
Atom  34H    basis set group =>   2
Atom  35H    basis set group =>   2
Atom  36H    basis set group =>   2
---------------------------------
AUXILIARY/C BASIS SET INFORMATION
---------------------------------
There are 2 groups of distinct atoms

 Group   1 Type C   : 14s11p10d2f contracted to 14s11p10d2f pattern {11111111111111/11111111111/1111111111/11}
 Group   2 Type H   : 9s2p1d contracted to 9s2p1d pattern {111111111/11/1}

Atom   0C    basis set group =>   1
Atom   1C    basis set group =>   1
Atom   2C    basis set group =>   1
Atom   3C    basis set group =>   1
Atom   4C    basis set group =>   1
Atom   5C    basis set group =>   1
Atom   6C    basis set group =>   1
Atom   7H    basis set group =>   2
Atom   8H    basis set group =>   2
Atom   9C    basis set group =>   1
Atom  10H    basis set group =>   2
Atom  11C    basis set group =>   1
Atom  12H    basis set group =>   2
Atom  13H    basis set group =>   2
Atom  14C    basis set group =>   1
Atom  15H    basis set group =>   2
Atom  16H    basis set group =>   2
Atom  17C    basis set group =>   1
Atom  18H    basis set group =>   2
Atom  19H    basis set group =>   2
Atom  20C    basis set group =>   1
Atom  21H    basis set group =>   2
Atom  22H    basis set group =>   2
Atom  23C    basis set group =>   1
Atom  24H    basis set group =>   2
Atom  25H    basis set group =>   2
Atom  26C    basis set group =>   1
Atom  27H    basis set group =>   2
Atom  28H    basis set group =>   2
Atom  29C    basis set group =>   1
Atom  30H    basis set group =>   2
Atom  31H    basis set group =>   2
Atom  32C    basis set group =>   1
Atom  33H    basis set group =>   2
Atom  34H    basis set group =>   2
Atom  35H    basis set group =>   2
Atom  36H    basis set group =>   2
----------------------------------
AUXILIARY/JK BASIS SET INFORMATION
----------------------------------
There are 2 groups of distinct atoms

 Group   1 Type C   : 14s11p10d2f contracted to 14s11p10d2f pattern {11111111111111/11111111111/1111111111/11}
 Group   2 Type H   : 9s2p1d contracted to 9s2p1d pattern {111111111/11/1}

Atom   0C    basis set group =>   1
Atom   1C    basis set group =>   1
Atom   2C    basis set group =>   1
Atom   3C    basis set group =>   1
Atom   4C    basis set group =>   1
Atom   5C    basis set group =>   1
Atom   6C    basis set group =>   1
Atom   7H    basis set group =>   2
Atom   8H    basis set group =>   2
Atom   9C    basis set group =>   1
Atom  10H    basis set group =>   2
Atom  11C    basis set group =>   1
Atom  12H    basis set group =>   2
Atom  13H    basis set group =>   2
Atom  14C    basis set group =>   1
Atom  15H    basis set group =>   2
Atom  16H    basis set group =>   2
Atom  17C    basis set group =>   1
Atom  18H    basis set group =>   2
Atom  19H    basis set group =>   2
Atom  20C    basis set group =>   1
Atom  21H    basis set group =>   2
Atom  22H    basis set group =>   2
Atom  23C    basis set group =>   1
Atom  24H    basis set group =>   2
Atom  25H    basis set group =>   2
Atom  26C    basis set group =>   1
Atom  27H    basis set group =>   2
Atom  28H    basis set group =>   2
Atom  29C    basis set group =>   1
Atom  30H    basis set group =>   2
Atom  31H    basis set group =>   2
Atom  32C    basis set group =>   1
Atom  33H    basis set group =>   2
Atom  34H    basis set group =>   2
Atom  35H    basis set group =>   2
Atom  36H    basis set group =>   2

Checking for AutoStart:
The File: cc-pVDZ.gbw exists
Trying to determine its content:
     ... Fine, the file contains calculation information
     ... Fine, the calculation information was read
     ... Fine, the file contains a basis set
     ... Fine, the basis set was read
     ... Fine, the file contains a geometry
     ... Fine, the geometry was read
     ... Fine, the file contains a set of orbitals
     ... Fine, the orbitals can be read
     => possible old guess file was deleted
     => GBW file was renamed to GES file
     => GES file is set as startup file
     => Guess is set to MORead
     ... now leaving AutoStart



           ************************************************************
           *        Program running with 16 parallel MPI-processes    *
           *              working on a common directory               *
           ************************************************************
------------------------------------------------------------------------------
                           ORCA GTO INTEGRAL CALCULATION
                           -- RI-GTO INTEGRALS CHOSEN --
------------------------------------------------------------------------------
------------------------------------------------------------------------------
                   ___                                                        
                  /   \      - P O W E R E D   B Y -                         
                 /     \                                                     
                 |  |  |   _    _      __       _____    __    __             
                 |  |  |  | |  | |    /  \     |  _  \  |  |  /  |          
                  \  \/   | |  | |   /    \    | | | |  |  | /  /          
                 / \  \   | |__| |  /  /\  \   | |_| |  |  |/  /          
                |  |  |   |  __  | /  /__\  \  |    /   |      \           
                |  |  |   | |  | | |   __   |  |    \   |  |\   \          
                \     /   | |  | | |  |  |  |  | |\  \  |  | \   \       
                 \___/    |_|  |_| |__|  |__|  |_| \__\ |__|  \__/        
                                                                              
                      - O R C A' S   B I G   F R I E N D -                    
                                      &                                       
                       - I N T E G R A L  F E E D E R -                       
                                                                              
 v1 FN, 2020, v2 2021                                                         
------------------------------------------------------------------------------


Reading SHARK input file cc-pVDZ.SHARKINP.tmp ... ok
----------------------
SHARK INTEGRAL PACKAGE
----------------------

Number of atoms                             ...     37
Number of basis functions                   ...    425
Number of shells                            ...    255
Maximum angular momentum                    ...      2
Integral batch strategy                     ... SHARK/LIBINT Hybrid
RI-J (if used) integral strategy            ... SPLIT-RIJ (Revised 2003 algorithm where possible)
Printlevel                                  ...      1
Contraction scheme used                     ... PARTIAL GENERAL contraction
Coulomb Range Separation                    ... NOT USED
Exchange Range Separation                   ... NOT USED
Finite Nucleus Model                        ... NOT USED
Auxiliary Coulomb fitting basis             ... AVAILABLE
   # of basis functions in Aux-J            ...   2196
   # of shells in Aux-J                     ...    844
   Maximum angular momentum in Aux-J        ...      3
Auxiliary J/K fitting basis                 ... AVAILABLE
   # of basis functions in Aux-JK           ...   2196
   # of shells in Aux-JK                    ...    844
   Maximum angular momentum in Aux-JK       ...      3
Auxiliary Correlation fitting basis         ... AVAILABLE
   # of basis functions in Aux-C            ...   2196
   # of shells in Aux-C                     ...    844
   Maximum angular momentum in Aux-C        ...      3
Auxiliary 'external' fitting basis          ... NOT available
Integral threshold                          ...     1.000000e-10
Primitive cut-off                           ...     1.000000e-11
Primitive pair pre-selection threshold      ...     1.000000e-11

Calculating pre-screening integrals         ... done (  0.0 sec) Dimension = 255
Calculating pre-screening integrals (ORCA)  ... done (  0.1 sec) Dimension = 159
Organizing shell pair data                  ... done (  0.1 sec)
Shell pair information
Total number of shell pairs                 ...     32640
Shell pairs after pre-screening             ...     16237
Total number of primitive shell pairs       ...     54396
Primitive shell pairs kept                  ...     22616
          la=0 lb=0:   7242 shell pairs
          la=1 lb=0:   5665 shell pairs
          la=1 lb=1:    989 shell pairs
          la=2 lb=0:   1662 shell pairs
          la=2 lb=1:    582 shell pairs
          la=2 lb=2:     97 shell pairs

Calculating one electron integrals          ... done (  0.0 sec)
Calculating RI/J V-Matrix + Cholesky decomp.... done (  0.3 sec)
Calculating RI/JK V-Matrix + Cholesky decomp... done (  0.4 sec)
Calculating RI/C V-Matrix + Cholesky decomp.... done (  0.4 sec)
Calculating Nuclear repulsion               ... done (  0.0 sec) ENN=    969.235787761243 Eh

SHARK setup successfully completed in   1.6 seconds

Maximum memory used throughout the entire GTOINT-calculation: 26.0 MB


           ************************************************************
           *        Program running with 16 parallel MPI-processes    *
           *              working on a common directory               *
           ************************************************************
-------------------------------------------------------------------------------
                                 ORCA SCF
-------------------------------------------------------------------------------

------------
SCF SETTINGS
------------
Hamiltonian:
 Density Functional     Method          .... DFT(GTOs)
 Exchange Functional    Exchange        .... B88
   X-Alpha parameter    XAlpha          ....  0.666667
   Becke's b parameter  XBeta           ....  0.004200
 Correlation Functional Correlation     .... LYP
 LDA part of GGA corr.  LDAOpt          .... VWN-5
 Gradients option       PostSCFGGA      .... off
 Hybrid DFT is turned on
   Fraction HF Exchange ScalHFX         ....  0.200000
   Scaling of DF-GGA-X  ScalDFX         ....  0.720000
   Scaling of DF-GGA-C  ScalDFC         ....  0.810000
   Scaling of DF-LDA-C  ScalLDAC        ....  1.000000
   Perturbative correction              ....  0.000000
   Density functional embedding theory  .... OFF
   NL short-range parameter             ....  4.800000
 RI-approximation to the Coulomb term is turned on
   Number of AuxJ basis functions       .... 2196
   RIJ-COSX (HFX calculated with COS-X)).... on


General Settings:
 Integral files         IntName         .... cc-pVDZ
 Hartree-Fock type      HFTyp           .... UHF
 Total Charge           Charge          ....    0
 Multiplicity           Mult            ....    2
 Number of Electrons    NEL             ....  117
 Basis Dimension        Dim             ....  329
 Nuclear Repulsion      ENuc            ....    969.2357877612 Eh

Convergence Acceleration:
 DIIS                   CNVDIIS         .... on
   Start iteration      DIISMaxIt       ....    12
   Startup error        DIISStart       ....  0.200000
   # of expansion vecs  DIISMaxEq       ....     5
   Bias factor          DIISBfac        ....   1.050
   Max. coefficient     DIISMaxC        ....  10.000
 Trust-Rad. Augm. Hess. CNVTRAH         .... auto
   Auto Start mean grad. ratio tolernc. ....  1.125000
   Auto Start start iteration           ....     1
   Auto Start num. interpolation iter.  ....    10
   Max. Number of Micro iterations      ....    16
   Max. Number of Macro iterations      .... Maxiter - #DIIS iter
   Number of Davidson start vectors     ....     2
   Converg. threshold I  (grad. norm)   ....   5.000e-05
   Converg. threshold II (energy diff.) ....   1.000e-06
   Grad. Scal. Fac. for Micro threshold ....   0.100
   Minimum threshold for Micro iter.    ....   0.010
   NR start threshold (gradient norm)   ....   0.001
   Initial trust radius                 ....   0.400
   Minimum AH scaling param. (alpha)    ....   1.000
   Maximum AH scaling param. (alpha)    .... 1000.000
   Orbital update algorithm             .... Taylor
   White noise on init. David. guess    .... on
   Maximum white noise                  ....   0.010
   Quad. conv. algorithm                .... NR
 SOSCF                  CNVSOSCF        .... off
 Level Shifting         CNVShift        .... on
   Level shift para.    LevelShift      ....    0.2500
   Turn off err/grad.   ShiftErr        ....    0.0010
 Zerner damping         CNVZerner       .... off
 Static damping         CNVDamp         .... on
   Fraction old density DampFac         ....    0.7000
   Max. Damping (<1)    DampMax         ....    0.9800
   Min. Damping (>=0)   DampMin         ....    0.0000
   Turn off err/grad.   DampErr         ....    0.1000
 Fernandez-Rico         CNVRico         .... off

SCF Procedure:
 Maximum # iterations   MaxIter         ....   125
 SCF integral mode      SCFMode         .... Direct
   Integral package                     .... SHARK and LIBINT hybrid scheme
 Reset frequency        DirectResetFreq ....    20
 Integral Threshold     Thresh          ....  1.000e-10 Eh
 Primitive CutOff       TCut            ....  1.000e-11 Eh

Convergence Tolerance:
 Convergence Check Mode ConvCheckMode   .... Total+1el-Energy
 Convergence forced     ConvForced      .... 0
 Energy Change          TolE            ....  1.000e-06 Eh
 1-El. energy change                    ....  1.000e-03 Eh
 DIIS Error             TolErr          ....  1.000e-06


Diagonalization of the overlap matrix:
Smallest eigenvalue                        ... 1.556e-04
Time for diagonalization                   ...    0.022 sec
Threshold for overlap eigenvalues          ... 1.000e-08
Number of eigenvalues below threshold      ... 0
Time for construction of square roots      ...    0.029 sec
Total time needed                          ...    0.052 sec

---------------------
INITIAL GUESS: MOREAD
---------------------
Guess MOs are being read from file: cc-pVDZ.ges
Input geometry compatible with but different from current geometry
Input basis set matches current basis set (good)
MOs were renormalized
MOs were reorthogonalized (Cholesky)
                      ------------------
                      INITIAL GUESS DONE (   0.1 sec)
                      ------------------
-------------------
DFT GRID GENERATION
-------------------

General Integration Accuracy     IntAcc      ... 4.388
Radial Grid Type                 RadialGrid  ... OptM3 with GC (2021)
Angular Grid (max. ang.)         AngularGrid ... 4 (Lebedev-302)
Angular grid pruning method      GridPruning ... 4 (adaptive)
Weight generation scheme         WeightScheme... Becke
Basis function cutoff            BFCut       ... 1.0000e-10
Integration weight cutoff        WCut        ... 1.0000e-14
Angular grids for H and He will be reduced by one unit
Partially contracted basis set               ... off
Rotationally invariant grid construction     ... off

Total number of grid points                  ...   162767
Total number of batches                      ...     2562
Average number of points per batch           ...       63
Average number of grid points per atom       ...     4399
Time for grid setup =    0.847 sec

--------------------
COSX GRID GENERATION
--------------------

GRIDX 1
-------
General Integration Accuracy     IntAcc      ... 3.816
Radial Grid Type                 RadialGrid  ... OptM3 with GC (2021)
Angular Grid (max. ang.)         AngularGrid ... 1 (Lebedev-50)
Angular grid pruning method      GridPruning ... 4 (adaptive)
Weight generation scheme         WeightScheme... Becke
Basis function cutoff            BFCut       ... 1.0000e-10
Integration weight cutoff        WCut        ... 1.0000e-14
Angular grids for H and He will be reduced by one unit
Partially contracted basis set               ... on
Rotationally invariant grid construction     ... off

Total number of grid points                  ...    20777
Total number of batches                      ...      346
Average number of points per batch           ...       60
Average number of grid points per atom       ...      562
UseSFitting                                  ... on

GRIDX 2
-------
General Integration Accuracy     IntAcc      ... 4.020
Radial Grid Type                 RadialGrid  ... OptM3 with GC (2021)
Angular Grid (max. ang.)         AngularGrid ... 2 (Lebedev-110)
Angular grid pruning method      GridPruning ... 4 (adaptive)
Weight generation scheme         WeightScheme... Becke
Basis function cutoff            BFCut       ... 1.0000e-10
Integration weight cutoff        WCut        ... 1.0000e-14
Angular grids for H and He will be reduced by one unit
Partially contracted basis set               ... on
Rotationally invariant grid construction     ... off

Total number of grid points                  ...    43895
Total number of batches                      ...      705
Average number of points per batch           ...       62
Average number of grid points per atom       ...     1186
UseSFitting                                  ... on

GRIDX 3
-------
General Integration Accuracy     IntAcc      ... 4.338
Radial Grid Type                 RadialGrid  ... OptM3 with GC (2021)
Angular Grid (max. ang.)         AngularGrid ... 3 (Lebedev-194)
Angular grid pruning method      GridPruning ... 4 (adaptive)
Weight generation scheme         WeightScheme... Becke
Basis function cutoff            BFCut       ... 1.0000e-10
Integration weight cutoff        WCut        ... 1.0000e-14
Angular grids for H and He will be reduced by one unit
Partially contracted basis set               ... on
Rotationally invariant grid construction     ... off

Total number of grid points                  ...    95919
Total number of batches                      ...     1519
Average number of points per batch           ...       63
Average number of grid points per atom       ...     2592
UseSFitting                                  ... on

Time for X-Grid setup             =    1.683 sec

 re-compute Schwartz prescreening matrix in partically contracted basis (1) ...done (   0.100 sec)
--------------
SCF ITERATIONS
--------------
ITER       Energy         Delta-E        Max-DP      RMS-DP      [F,P]     Damp
               ***  Starting incremental Fock matrix formation  ***
  0   -621.8597379512   0.000000000000 0.00003684  0.00000105  0.0001425 0.7000
                 **** Energy Check signals convergence ****

               *****************************************************
               *                     SUCCESS                       *
               *           SCF CONVERGED AFTER   1 CYCLES          *
               *****************************************************

Old exchange energy                            =    -18.069022704 Eh
New exchange energy                            =    -18.069116208 Eh
Exchange energy change after final integration =     -0.000093504 Eh
Total energy after final integration           =   -621.859832040 Eh
Final COS-X integration done in                =     3.861 sec

----------------
TOTAL SCF ENERGY
----------------

Total Energy       :         -621.85983204 Eh          -16921.66631 eV

Components:
Nuclear Repulsion  :          969.23578776 Eh           26374.24663 eV
Electronic Energy  :        -1591.09561980 Eh          -43295.91294 eV
One Electron Energy:        -2760.68213788 Eh          -75121.98010 eV
Two Electron Energy:         1169.58651808 Eh           31826.06716 eV
Max COSX asymmetry :            0.00000043 Eh               0.00001 eV

Virial components:
Potential Energy   :        -1239.23833221 Eh          -33721.38938 eV
Kinetic Energy     :          617.37850017 Eh           16799.72307 eV
Virial Ratio       :            2.00725865


DFT components:
N(Alpha)           :       59.000108705126 electrons
N(Beta)            :       58.000102652749 electrons
N(Total)           :      117.000211357876 electrons
E(X)               :      -71.622388575040 Eh       
E(C)               :       -4.507460744770 Eh       
E(XC)              :      -76.129849319810 Eh       
DFET-embed. en.    :        0.000000000000 Eh       

---------------
SCF CONVERGENCE
---------------

  Last Energy change         ...   -5.8483e-07  Tolerance :   1.0000e-06
  Last MAX-Density change    ...    1.1140e-05  Tolerance :   1.0000e-05
  Last RMS-Density change    ...    3.2236e-07  Tolerance :   1.0000e-06
  Last DIIS Error            ...    1.1215e-04  Tolerance :   1.0000e-06

             **** THE GBW FILE WAS UPDATED (cc-pVDZ.gbw) ****
             **** DENSITY cc-pVDZ.scfp WAS UPDATED ****
             **** ENERGY FILE WAS UPDATED (cc-pVDZ.en.tmp) ****
----------------------
UHF SPIN CONTAMINATION
----------------------

Warning: in a DFT calculation there is little theoretical justification to 
         calculate <S**2> as in Hartree-Fock theory. We will do it anyways
         but you should keep in mind that the values have only limited relevance

Expectation value of <S**2>     :     0.781606
Ideal value S*(S+1) for S=0.5   :     0.750000
Deviation                       :     0.031606

             **** THE GBW FILE WAS UPDATED (cc-pVDZ.gbw) ****
             **** DENSITY cc-pVDZ.scfp WAS UPDATED ****
----------------
ORBITAL ENERGIES
----------------
                 SPIN UP ORBITALS
  NO   OCC          E(Eh)            E(eV) 
   0   1.0000     -10.207354      -277.7562 
   1   1.0000     -10.199201      -277.5344 
   2   1.0000     -10.192062      -277.3401 
   3   1.0000     -10.191465      -277.3239 
   4   1.0000     -10.190763      -277.3048 
   5   1.0000     -10.189394      -277.2675 
   6   1.0000     -10.188402      -277.2405 
   7   1.0000     -10.187107      -277.2053 
   8   1.0000     -10.184300      -277.1289 
   9   1.0000     -10.184215      -277.1266 
  10   1.0000     -10.184007      -277.1209 
  11   1.0000     -10.182591      -277.0824 
  12   1.0000     -10.180736      -277.0319 
  13   1.0000     -10.180544      -277.0267 
  14   1.0000     -10.176974      -276.9295 
  15   1.0000     -10.175119      -276.8791 
  16   1.0000      -0.865757       -23.5584 
  17   1.0000      -0.814448       -22.1622 
  18   1.0000      -0.794860       -21.6292 
  19   1.0000      -0.780034       -21.2258 
  20   1.0000      -0.763600       -20.7786 
  21   1.0000      -0.730560       -19.8796 
  22   1.0000      -0.723530       -19.6883 
  23   1.0000      -0.696231       -18.9454 
  24   1.0000      -0.653557       -17.7842 
  25   1.0000      -0.622603       -16.9419 
  26   1.0000      -0.612892       -16.6777 
  27   1.0000      -0.588277       -16.0078 
  28   1.0000      -0.578689       -15.7469 
  29   1.0000      -0.559126       -15.2146 
  30   1.0000      -0.525793       -14.3075 
  31   1.0000      -0.494632       -13.4596 
  32   1.0000      -0.472584       -12.8597 
  33   1.0000      -0.469142       -12.7660 
  34   1.0000      -0.462227       -12.5778 
  35   1.0000      -0.461711       -12.5638 
  36   1.0000      -0.428534       -11.6610 
  37   1.0000      -0.426129       -11.5956 
  38   1.0000      -0.422479       -11.4962 
  39   1.0000      -0.419435       -11.4134 
  40   1.0000      -0.410226       -11.1628 
  41   1.0000      -0.395357       -10.7582 
  42   1.0000      -0.387695       -10.5497 
  43   1.0000      -0.375282       -10.2120 
  44   1.0000      -0.374360       -10.1869 
  45   1.0000      -0.362846        -9.8735 
  46   1.0000      -0.348031        -9.4704 
  47   1.0000      -0.347618        -9.4592 
  48   1.0000      -0.338188        -9.2026 
  49   1.0000      -0.331277        -9.0145 
  50   1.0000      -0.330506        -8.9935 
  51   1.0000      -0.324921        -8.8416 
  52   1.0000      -0.322457        -8.7745 
  53   1.0000      -0.321192        -8.7401 
  54   1.0000      -0.307959        -8.3800 
  55   1.0000      -0.271974        -7.4008 
  56   1.0000      -0.267897        -7.2899 
  57   1.0000      -0.236250        -6.4287 
  58   1.0000      -0.171288        -4.6610 
  59   0.0000      -0.031425        -0.8551 
  60   0.0000       0.015239         0.4147 
  61   0.0000       0.048171         1.3108 
  62   0.0000       0.063217         1.7202 
  63   0.0000       0.063825         1.7368 
  64   0.0000       0.077485         2.1085 
  65   0.0000       0.083977         2.2851 
  66   0.0000       0.088721         2.4142 
  67   0.0000       0.088949         2.4204 
  68   0.0000       0.094495         2.5713 
  69   0.0000       0.097152         2.6437 
  70   0.0000       0.098657         2.6846 
  71   0.0000       0.104390         2.8406 
  72   0.0000       0.112068         3.0495 
  73   0.0000       0.129638         3.5276 
  74   0.0000       0.132720         3.6115 
  75   0.0000       0.147224         4.0062 
  76   0.0000       0.149364         4.0644 
  77   0.0000       0.149556         4.0696 
  78   0.0000       0.160260         4.3609 
  79   0.0000       0.163151         4.4396 
  80   0.0000       0.167997         4.5714 
  81   0.0000       0.169638         4.6161 
  82   0.0000       0.172122         4.6837 
  83   0.0000       0.181112         4.9283 
  84   0.0000       0.191930         5.2227 
  85   0.0000       0.206300         5.6137 
  86   0.0000       0.213079         5.7982 
  87   0.0000       0.224650         6.1130 
  88   0.0000       0.229068         6.2333 
  89   0.0000       0.238909         6.5011 
  90   0.0000       0.255358         6.9487 
  91   0.0000       0.262449         7.1416 
  92   0.0000       0.283260         7.7079 
  93   0.0000       0.301121         8.1939 
  94   0.0000       0.319193         8.6857 
  95   0.0000       0.341701         9.2982 
  96   0.0000       0.346894         9.4395 
  97   0.0000       0.363694         9.8966 
  98   0.0000       0.368698        10.0328 
  99   0.0000       0.403127        10.9696 
 100   0.0000       0.411047        11.1851 
 101   0.0000       0.413223        11.2444 
 102   0.0000       0.413495        11.2518 
 103   0.0000       0.421518        11.4701 
 104   0.0000       0.431014        11.7285 
 105   0.0000       0.445462        12.1216 
 106   0.0000       0.454101        12.3567 
 107   0.0000       0.466153        12.6847 
 108   0.0000       0.466405        12.6915 
 109   0.0000       0.479940        13.0598 
 110   0.0000       0.482093        13.1184 
 111   0.0000       0.485900        13.2220 
 112   0.0000       0.492880        13.4119 
 113   0.0000       0.509109        13.8536 
 114   0.0000       0.513485        13.9726 
 115   0.0000       0.518684        14.1141 
 116   0.0000       0.522877        14.2282 
 117   0.0000       0.527863        14.3639 
 118   0.0000       0.535369        14.5681 
 119   0.0000       0.545523        14.8444 
 120   0.0000       0.554517        15.0892 
 121   0.0000       0.560541        15.2531 
 122   0.0000       0.569518        15.4974 
 123   0.0000       0.592331        16.1182 
 124   0.0000       0.595567        16.2062 
 125   0.0000       0.605590        16.4790 
 126   0.0000       0.616388        16.7728 
 127   0.0000       0.616645        16.7798 
 128   0.0000       0.620795        16.8927 
 129   0.0000       0.621293        16.9062 
 130   0.0000       0.640339        17.4245 
 131   0.0000       0.641077        17.4446 
 132   0.0000       0.644612        17.5408 
 133   0.0000       0.645183        17.5563 
 134   0.0000       0.652703        17.7610 
 135   0.0000       0.654619        17.8131 
 136   0.0000       0.658914        17.9300 
 137   0.0000       0.660701        17.9786 
 138   0.0000       0.662178        18.0188 
 139   0.0000       0.663574        18.0568 
 140   0.0000       0.668470        18.1900 
 141   0.0000       0.671958        18.2849 
 142   0.0000       0.683987        18.6122 
 143   0.0000       0.689088        18.7510 
 144   0.0000       0.690906        18.8005 
 145   0.0000       0.694813        18.9068 
 146   0.0000       0.696483        18.9523 
 147   0.0000       0.704898        19.1813 
 148   0.0000       0.711420        19.3587 
 149   0.0000       0.714244        19.4356 
 150   0.0000       0.729837        19.8599 
 151   0.0000       0.733448        19.9581 
 152   0.0000       0.733703        19.9651 
 153   0.0000       0.743250        20.2249 
 154   0.0000       0.747697        20.3459 
 155   0.0000       0.753326        20.4990 
 156   0.0000       0.764346        20.7989 
 157   0.0000       0.785413        21.3722 
 158   0.0000       0.814251        22.1569 
 159   0.0000       0.819507        22.2999 
 160   0.0000       0.832994        22.6669 
 161   0.0000       0.836936        22.7742 
 162   0.0000       0.842678        22.9304 
 163   0.0000       0.871851        23.7243 
 164   0.0000       0.888299        24.1719 
 165   0.0000       0.904966        24.6254 
 166   0.0000       0.920549        25.0494 
 167   0.0000       0.923893        25.1404 
 168   0.0000       0.941177        25.6107 
 169   0.0000       0.950747        25.8712 
 170   0.0000       0.958636        26.0858 
 171   0.0000       0.994584        27.0640 
 172   0.0000       0.995336        27.0845 
 173   0.0000       1.011745        27.5310 
 174   0.0000       1.018813        27.7233 
 175   0.0000       1.037877        28.2421 
 176   0.0000       1.040444        28.3119 
 177   0.0000       1.053609        28.6701 
 178   0.0000       1.061137        28.8750 
 179   0.0000       1.069124        29.0923 
 180   0.0000       1.082029        29.4435 
 181   0.0000       1.082965        29.4690 
 182   0.0000       1.134573        30.8733 
 183   0.0000       1.160586        31.5811 
 184   0.0000       1.186438        32.2846 
 185   0.0000       1.205806        32.8117 
 186   0.0000       1.209480        32.9116 
 187   0.0000       1.210865        32.9493 
 188   0.0000       1.218277        33.1510 
 189   0.0000       1.219216        33.1766 
 190   0.0000       1.224683        33.3253 
 191   0.0000       1.227160        33.3927 
 192   0.0000       1.233661        33.5696 
 193   0.0000       1.253653        34.1136 
 194   0.0000       1.286202        34.9993 
 195   0.0000       1.295008        35.2390 
 196   0.0000       1.311791        35.6957 
 197   0.0000       1.323395        36.0114 
 198   0.0000       1.340500        36.4769 
 199   0.0000       1.342421        36.5291 
 200   0.0000       1.346235        36.6329 
 201   0.0000       1.374523        37.4027 
 202   0.0000       1.379348        37.5340 
 203   0.0000       1.392817        37.9005 
 204   0.0000       1.414657        38.4948 
 205   0.0000       1.425344        38.7856 
 206   0.0000       1.426887        38.8276 
 207   0.0000       1.427095        38.8332 
 208   0.0000       1.433827        39.0164 
 209   0.0000       1.445055        39.3220 
 210   0.0000       1.465444        39.8768 
 211   0.0000       1.469017        39.9740 
 212   0.0000       1.470777        40.0219 
 213   0.0000       1.492150        40.6035 
 214   0.0000       1.500119        40.8203 
 215   0.0000       1.523201        41.4484 
 216   0.0000       1.531689        41.6794 
 217   0.0000       1.546148        42.0728 
 218   0.0000       1.572982        42.8030 
 219   0.0000       1.579112        42.9698 
 220   0.0000       1.591964        43.3196 
 221   0.0000       1.596083        43.4316 
 222   0.0000       1.602800        43.6144 
 223   0.0000       1.616885        43.9977 
 224   0.0000       1.623327        44.1730 
 225   0.0000       1.627129        44.2764 
 226   0.0000       1.630662        44.3726 
 227   0.0000       1.632820        44.4313 
 228   0.0000       1.635462        44.5032 
 229   0.0000       1.640187        44.6318 
 230   0.0000       1.645685        44.7814 
 231   0.0000       1.653085        44.9827 
 232   0.0000       1.658322        45.1252 
 233   0.0000       1.671323        45.4790 
 234   0.0000       1.678612        45.6774 
 235   0.0000       1.684053        45.8254 
 236   0.0000       1.686220        45.8844 
 237   0.0000       1.693786        46.0903 
 238   0.0000       1.696093        46.1530 
 239   0.0000       1.702133        46.3174 
 240   0.0000       1.704637        46.3855 
 241   0.0000       1.709203        46.5098 
 242   0.0000       1.713698        46.6321 
 243   0.0000       1.724179        46.9173 
 244   0.0000       1.732620        47.1470 
 245   0.0000       1.742090        47.4047 
 246   0.0000       1.752023        47.6750 
 247   0.0000       1.755788        47.7774 
 248   0.0000       1.760207        47.8977 
 249   0.0000       1.776524        48.3417 
 250   0.0000       1.780736        48.4563 
 251   0.0000       1.791600        48.7519 
 252   0.0000       1.797293        48.9068 
 253   0.0000       1.798337        48.9352 
 254   0.0000       1.817418        49.4545 
 255   0.0000       1.820856        49.5480 
 256   0.0000       1.824362        49.6434 
 257   0.0000       1.837466        50.0000 
 258   0.0000       1.859972        50.6124 
 259   0.0000       1.878610        51.1196 
 260   0.0000       1.878932        51.1283 
 261   0.0000       1.894247        51.5451 
 262   0.0000       1.910713        51.9931 
 263   0.0000       1.920749        52.2662 
 264   0.0000       1.929186        52.4958 
 265   0.0000       1.937995        52.7355 
 266   0.0000       1.941603        52.8337 
 267   0.0000       1.950195        53.0675 
 268   0.0000       1.971140        53.6374 
 269   0.0000       1.997117        54.3443 
 270   0.0000       2.001722        54.4696 
 271   0.0000       2.011300        54.7302 
 272   0.0000       2.030781        55.2604 
 273   0.0000       2.043802        55.6147 
 274   0.0000       2.063421        56.1485 
 275   0.0000       2.076869        56.5145 
 276   0.0000       2.090461        56.8843 
 277   0.0000       2.091416        56.9103 
 278   0.0000       2.116004        57.5794 
 279   0.0000       2.135779        58.1175 
 280   0.0000       2.154020        58.6139 
 281   0.0000       2.158842        58.7451 
 282   0.0000       2.170312        59.0572 
 283   0.0000       2.180348        59.3303 
 284   0.0000       2.184665        59.4478 
 285   0.0000       2.202616        59.9362 
 286   0.0000       2.207813        60.0777 
 287   0.0000       2.221671        60.4547 
 288   0.0000       2.224336        60.5272 
 289   0.0000       2.227425        60.6113 
 290   0.0000       2.263953        61.6053 
 291   0.0000       2.279371        62.0248 
 292   0.0000       2.288334        62.2687 
 293   0.0000       2.294981        62.4496 
 294   0.0000       2.298915        62.5566 
 295   0.0000       2.303285        62.6756 
 296   0.0000       2.321666        63.1757 
 297   0.0000       2.334282        63.5191 
 298   0.0000       2.353018        64.0289 
 299   0.0000       2.355770        64.1037 
 300   0.0000       2.405993        65.4704 
 301   0.0000       2.410487        65.5927 
 302   0.0000       2.412652        65.6516 
 303   0.0000       2.413539        65.6757 
 304   0.0000       2.413632        65.6783 
 305   0.0000       2.426955        66.0408 
 306   0.0000       2.446076        66.5611 
 307   0.0000       2.466115        67.1064 
 308   0.0000       2.475012        67.3485 
 309   0.0000       2.507109        68.2219 
 310   0.0000       2.536133        69.0117 
 311   0.0000       2.536806        69.0300 
 312   0.0000       2.557444        69.5916 
 313   0.0000       2.596611        70.6574 
 314   0.0000       2.597177        70.6728 
 315   0.0000       2.626726        71.4768 
 316   0.0000       2.641715        71.8847 
 317   0.0000       2.680599        72.9428 
 318   0.0000       2.688907        73.1689 
 319   0.0000       2.714529        73.8661 
 320   0.0000       2.722932        74.0948 
 321   0.0000       2.742125        74.6170 
 322   0.0000       2.771310        75.4112 
 323   0.0000       2.820292        76.7441 
 324   0.0000       2.837334        77.2078 
 325   0.0000       2.930783        79.7507 
 326   0.0000       2.989614        81.3515 
 327   0.0000       3.196289        86.9754 
 328   0.0000       3.434642        93.4614 

                 SPIN DOWN ORBITALS
  NO   OCC          E(Eh)            E(eV) 
   0   1.0000     -10.208879      -277.7977 
   1   1.0000     -10.195667      -277.4382 
   2   1.0000     -10.194378      -277.4031 
   3   1.0000     -10.188033      -277.2305 
   4   1.0000     -10.187828      -277.2249 
   5   1.0000     -10.187632      -277.2196 
   6   1.0000     -10.186312      -277.1836 
   7   1.0000     -10.185723      -277.1676 
   8   1.0000     -10.184425      -277.1323 
   9   1.0000     -10.183964      -277.1197 
  10   1.0000     -10.183167      -277.0981 
  11   1.0000     -10.181028      -277.0399 
  12   1.0000     -10.180736      -277.0319 
  13   1.0000     -10.180542      -277.0266 
  14   1.0000     -10.176982      -276.9297 
  15   1.0000     -10.175121      -276.8791 
  16   1.0000      -0.862259       -23.4633 
  17   1.0000      -0.808575       -22.0024 
  18   1.0000      -0.793260       -21.5857 
  19   1.0000      -0.779328       -21.2066 
  20   1.0000      -0.761420       -20.7193 
  21   1.0000      -0.726440       -19.7674 
  22   1.0000      -0.721463       -19.6320 
  23   1.0000      -0.693927       -18.8827 
  24   1.0000      -0.650405       -17.6984 
  25   1.0000      -0.619928       -16.8691 
  26   1.0000      -0.607265       -16.5245 
  27   1.0000      -0.587173       -15.9778 
  28   1.0000      -0.576495       -15.6872 
  29   1.0000      -0.556468       -15.1423 
  30   1.0000      -0.524096       -14.2614 
  31   1.0000      -0.492227       -13.3942 
  32   1.0000      -0.470469       -12.8021 
  33   1.0000      -0.468322       -12.7437 
  34   1.0000      -0.460391       -12.5279 
  35   1.0000      -0.458221       -12.4688 
  36   1.0000      -0.426232       -11.5984 
  37   1.0000      -0.424982       -11.5644 
  38   1.0000      -0.421509       -11.4698 
  39   1.0000      -0.416937       -11.3454 
  40   1.0000      -0.409728       -11.1493 
  41   1.0000      -0.387509       -10.5447 
  42   1.0000      -0.386436       -10.5154 
  43   1.0000      -0.372204       -10.1282 
  44   1.0000      -0.370762       -10.0889 
  45   1.0000      -0.361828        -9.8458 
  46   1.0000      -0.346587        -9.4311 
  47   1.0000      -0.344980        -9.3874 
  48   1.0000      -0.336101        -9.1458 
  49   1.0000      -0.330628        -8.9968 
  50   1.0000      -0.328517        -8.9394 
  51   1.0000      -0.324416        -8.8278 
  52   1.0000      -0.321878        -8.7587 
  53   1.0000      -0.320279        -8.7152 
  54   1.0000      -0.305560        -8.3147 
  55   1.0000      -0.271889        -7.3985 
  56   1.0000      -0.252758        -6.8779 
  57   1.0000      -0.228026        -6.2049 
  58   0.0000      -0.074564        -2.0290 
  59   0.0000      -0.022332        -0.6077 
  60   0.0000       0.033062         0.8997 
  61   0.0000       0.048596         1.3224 
  62   0.0000       0.063803         1.7362 
  63   0.0000       0.064006         1.7417 
  64   0.0000       0.078738         2.1426 
  65   0.0000       0.084699         2.3048 
  66   0.0000       0.089460         2.4343 
  67   0.0000       0.092038         2.5045 
  68   0.0000       0.094399         2.5687 
  69   0.0000       0.098171         2.6714 
  70   0.0000       0.099063         2.6956 
  71   0.0000       0.105165         2.8617 
  72   0.0000       0.112570         3.0632 
  73   0.0000       0.130469         3.5502 
  74   0.0000       0.133168         3.6237 
  75   0.0000       0.147444         4.0122 
  76   0.0000       0.150605         4.0982 
  77   0.0000       0.151183         4.1139 
  78   0.0000       0.160892         4.3781 
  79   0.0000       0.163390         4.4461 
  80   0.0000       0.169038         4.5998 
  81   0.0000       0.171309         4.6615 
  82   0.0000       0.175767         4.7829 
  83   0.0000       0.181427         4.9369 
  84   0.0000       0.196172         5.3381 
  85   0.0000       0.207348         5.6422 
  86   0.0000       0.213736         5.8161 
  87   0.0000       0.224868         6.1190 
  88   0.0000       0.232025         6.3137 
  89   0.0000       0.240604         6.5472 
  90   0.0000       0.255945         6.9646 
  91   0.0000       0.265553         7.2261 
  92   0.0000       0.283439         7.7128 
  93   0.0000       0.303541         8.2598 
  94   0.0000       0.319527         8.6948 
  95   0.0000       0.343373         9.3437 
  96   0.0000       0.348385         9.4800 
  97   0.0000       0.364963         9.9311 
  98   0.0000       0.370398        10.0790 
  99   0.0000       0.404754        11.0139 
 100   0.0000       0.411278        11.1915 
 101   0.0000       0.413643        11.2558 
 102   0.0000       0.414021        11.2661 
 103   0.0000       0.422085        11.4855 
 104   0.0000       0.434618        11.8266 
 105   0.0000       0.457012        12.4359 
 106   0.0000       0.461223        12.5505 
 107   0.0000       0.466930        12.7058 
 108   0.0000       0.470302        12.7976 
 109   0.0000       0.482377        13.1261 
 110   0.0000       0.488551        13.2941 
 111   0.0000       0.491069        13.3627 
 112   0.0000       0.495580        13.4854 
 113   0.0000       0.510523        13.8920 
 114   0.0000       0.514520        14.0008 
 115   0.0000       0.523795        14.2532 
 116   0.0000       0.525349        14.2955 
 117   0.0000       0.538120        14.6430 
 118   0.0000       0.539033        14.6678 
 119   0.0000       0.546375        14.8676 
 120   0.0000       0.555719        15.1219 
 121   0.0000       0.571178        15.5426 
 122   0.0000       0.573796        15.6138 
 123   0.0000       0.594216        16.1694 
 124   0.0000       0.597072        16.2472 
 125   0.0000       0.606479        16.5031 
 126   0.0000       0.617217        16.7953 
 127   0.0000       0.618499        16.8302 
 128   0.0000       0.621766        16.9191 
 129   0.0000       0.626507        17.0481 
 130   0.0000       0.640812        17.4374 
 131   0.0000       0.641221        17.4485 
 132   0.0000       0.645356        17.5610 
 133   0.0000       0.648136        17.6367 
 134   0.0000       0.653436        17.7809 
 135   0.0000       0.656116        17.8538 
 136   0.0000       0.659252        17.9392 
 137   0.0000       0.661528        18.0011 
 138   0.0000       0.662469        18.0267 
 139   0.0000       0.666561        18.1381 
 140   0.0000       0.670138        18.2354 
 141   0.0000       0.673427        18.3249 
 142   0.0000       0.685634        18.6571 
 143   0.0000       0.689491        18.7620 
 144   0.0000       0.691833        18.8257 
 145   0.0000       0.695909        18.9367 
 146   0.0000       0.697581        18.9821 
 147   0.0000       0.705826        19.2065 
 148   0.0000       0.712783        19.3958 
 149   0.0000       0.716514        19.4973 
 150   0.0000       0.730598        19.8806 
 151   0.0000       0.734925        19.9983 
 152   0.0000       0.738770        20.1029 
 153   0.0000       0.746483        20.3128 
 154   0.0000       0.749430        20.3930 
 155   0.0000       0.755302        20.5528 
 156   0.0000       0.765272        20.8241 
 157   0.0000       0.788464        21.4552 
 158   0.0000       0.815406        22.1883 
 159   0.0000       0.821712        22.3599 
 160   0.0000       0.835203        22.7270 
 161   0.0000       0.837836        22.7987 
 162   0.0000       0.843781        22.9605 
 163   0.0000       0.875254        23.8169 
 164   0.0000       0.892175        24.2773 
 165   0.0000       0.905814        24.6485 
 166   0.0000       0.926856        25.2210 
 167   0.0000       0.928024        25.2528 
 168   0.0000       0.951508        25.8918 
 169   0.0000       0.952493        25.9186 
 170   0.0000       0.961397        26.1609 
 171   0.0000       0.995173        27.0800 
 172   0.0000       0.997596        27.1460 
 173   0.0000       1.013699        27.5842 
 174   0.0000       1.022892        27.8343 
 175   0.0000       1.040045        28.3011 
 176   0.0000       1.041325        28.3359 
 177   0.0000       1.058379        28.8000 
 178   0.0000       1.062445        28.9106 
 179   0.0000       1.069048        29.0903 
 180   0.0000       1.085314        29.5329 
 181   0.0000       1.085511        29.5383 
 182   0.0000       1.135501        30.8985 
 183   0.0000       1.160387        31.5757 
 184   0.0000       1.187533        32.3144 
 185   0.0000       1.206142        32.8208 
 186   0.0000       1.210079        32.9279 
 187   0.0000       1.211786        32.9744 
 188   0.0000       1.218842        33.1664 
 189   0.0000       1.220528        33.2123 
 190   0.0000       1.225047        33.3352 
 191   0.0000       1.228114        33.4187 
 192   0.0000       1.236756        33.6539 
 193   0.0000       1.254365        34.1330 
 194   0.0000       1.287394        35.0318 
 195   0.0000       1.296963        35.2922 
 196   0.0000       1.312608        35.7179 
 197   0.0000       1.328045        36.1380 
 198   0.0000       1.341737        36.5105 
 199   0.0000       1.343237        36.5513 
 200   0.0000       1.359066        36.9821 
 201   0.0000       1.376680        37.4614 
 202   0.0000       1.379955        37.5505 
 203   0.0000       1.397783        38.0356 
 204   0.0000       1.416425        38.5429 
 205   0.0000       1.425447        38.7884 
 206   0.0000       1.426908        38.8282 
 207   0.0000       1.428543        38.8726 
 208   0.0000       1.442840        39.2617 
 209   0.0000       1.446342        39.3570 
 210   0.0000       1.468121        39.9496 
 211   0.0000       1.469690        39.9923 
 212   0.0000       1.473467        40.0951 
 213   0.0000       1.495685        40.6997 
 214   0.0000       1.501905        40.8689 
 215   0.0000       1.525491        41.5107 
 216   0.0000       1.533769        41.7360 
 217   0.0000       1.550405        42.1887 
 218   0.0000       1.574831        42.8533 
 219   0.0000       1.581849        43.0443 
 220   0.0000       1.592912        43.3453 
 221   0.0000       1.598479        43.4968 
 222   0.0000       1.603749        43.6402 
 223   0.0000       1.617779        44.0220 
 224   0.0000       1.623815        44.1862 
 225   0.0000       1.629184        44.3324 
 226   0.0000       1.631045        44.3830 
 227   0.0000       1.634641        44.4808 
 228   0.0000       1.637056        44.5466 
 229   0.0000       1.640715        44.6461 
 230   0.0000       1.646260        44.7970 
 231   0.0000       1.654005        45.0078 
 232   0.0000       1.659389        45.1543 
 233   0.0000       1.674373        45.5620 
 234   0.0000       1.679390        45.6985 
 235   0.0000       1.684774        45.8450 
 236   0.0000       1.686494        45.8918 
 237   0.0000       1.696182        46.1555 
 238   0.0000       1.696536        46.1651 
 239   0.0000       1.703310        46.3494 
 240   0.0000       1.705843        46.4184 
 241   0.0000       1.711400        46.5696 
 242   0.0000       1.714954        46.6663 
 243   0.0000       1.724969        46.9388 
 244   0.0000       1.733570        47.1728 
 245   0.0000       1.746322        47.5198 
 246   0.0000       1.754673        47.7471 
 247   0.0000       1.757023        47.8110 
 248   0.0000       1.760651        47.9097 
 249   0.0000       1.778344        48.3912 
 250   0.0000       1.783633        48.5351 
 251   0.0000       1.793545        48.8048 
 252   0.0000       1.799447        48.9654 
 253   0.0000       1.800412        48.9917 
 254   0.0000       1.820292        49.5327 
 255   0.0000       1.823169        49.6109 
 256   0.0000       1.826592        49.7041 
 257   0.0000       1.840111        50.0720 
 258   0.0000       1.860859        50.6365 
 259   0.0000       1.879640        51.1476 
 260   0.0000       1.888224        51.3812 
 261   0.0000       1.894492        51.5517 
 262   0.0000       1.911780        52.0222 
 263   0.0000       1.924551        52.3697 
 264   0.0000       1.930699        52.5370 
 265   0.0000       1.938098        52.7383 
 266   0.0000       1.944526        52.9132 
 267   0.0000       1.951554        53.1045 
 268   0.0000       1.973198        53.6934 
 269   0.0000       2.002135        54.4809 
 270   0.0000       2.004769        54.5525 
 271   0.0000       2.012002        54.7494 
 272   0.0000       2.035498        55.3887 
 273   0.0000       2.047617        55.7185 
 274   0.0000       2.064590        56.1804 
 275   0.0000       2.077828        56.5406 
 276   0.0000       2.090974        56.8983 
 277   0.0000       2.095499        57.0214 
 278   0.0000       2.119551        57.6759 
 279   0.0000       2.139100        58.2079 
 280   0.0000       2.156761        58.6885 
 281   0.0000       2.162107        58.8339 
 282   0.0000       2.174710        59.1769 
 283   0.0000       2.181136        59.3517 
 284   0.0000       2.188509        59.5524 
 285   0.0000       2.203191        59.9519 
 286   0.0000       2.210516        60.1512 
 287   0.0000       2.223981        60.5176 
 288   0.0000       2.225177        60.5501 
 289   0.0000       2.229236        60.6606 
 290   0.0000       2.264546        61.6214 
 291   0.0000       2.282446        62.1085 
 292   0.0000       2.289221        62.2929 
 293   0.0000       2.295882        62.4741 
 294   0.0000       2.300807        62.6081 
 295   0.0000       2.306795        62.7711 
 296   0.0000       2.321883        63.1816 
 297   0.0000       2.335756        63.5592 
 298   0.0000       2.356675        64.1284 
 299   0.0000       2.358143        64.1683 
 300   0.0000       2.407046        65.4990 
 301   0.0000       2.411494        65.6201 
 302   0.0000       2.413082        65.6633 
 303   0.0000       2.414230        65.6946 
 304   0.0000       2.414833        65.7110 
 305   0.0000       2.428773        66.0903 
 306   0.0000       2.447192        66.5915 
 307   0.0000       2.468205        67.1633 
 308   0.0000       2.475717        67.3677 
 309   0.0000       2.508051        68.2475 
 310   0.0000       2.536817        69.0303 
 311   0.0000       2.538001        69.0625 
 312   0.0000       2.558429        69.6184 
 313   0.0000       2.597324        70.6768 
 314   0.0000       2.597983        70.6947 
 315   0.0000       2.628002        71.5116 
 316   0.0000       2.643155        71.9239 
 317   0.0000       2.682594        72.9971 
 318   0.0000       2.690261        73.2057 
 319   0.0000       2.714801        73.8735 
 320   0.0000       2.723494        74.1101 
 321   0.0000       2.743283        74.6485 
 322   0.0000       2.772612        75.4466 
 323   0.0000       2.821523        76.7775 
 324   0.0000       2.838780        77.2471 
 325   0.0000       2.931222        79.7626 
 326   0.0000       2.992404        81.4275 
 327   0.0000       3.195743        86.9606 
 328   0.0000       3.436376        93.5085 

                    ********************************
                    * MULLIKEN POPULATION ANALYSIS *
                    ********************************

--------------------------------------------
MULLIKEN ATOMIC CHARGES AND SPIN POPULATIONS
--------------------------------------------
   0 C :    0.619811    0.027174
   1 C :    0.027327    0.218182
   2 C :    0.084720   -0.160669
   3 C :   -0.003476    0.222993
   4 C :   -0.042971   -0.104302
   5 C :   -0.085369    0.241256
   6 C :    0.026639   -0.113554
   7 H :   -0.052869   -0.009489
   8 H :   -0.043188    0.004243
   9 C :   -0.073418    0.737342
  10 H :   -0.038021   -0.032287
  11 C :    0.029282   -0.050505
  12 H :    0.027964    0.033384
  13 H :    0.028030    0.033254
  14 C :   -0.040639    0.002297
  15 H :    0.011596    0.000548
  16 H :    0.011596    0.000531
  17 C :    0.003456   -0.000200
  18 H :    0.017859    0.000165
  19 H :    0.017890    0.000165
  20 C :    0.042957   -0.019284
  21 H :    0.031047    0.010467
  22 H :    0.030919    0.010227
  23 C :   -0.035016    0.000878
  24 H :    0.014198    0.000171
  25 H :    0.014373    0.000151
  26 C :   -0.025347    0.000018
  27 H :    0.006025    0.000054
  28 H :    0.006036    0.000055
  29 C :    0.002979   -0.000083
  30 H :    0.016507    0.000024
  31 H :    0.016532    0.000023
  32 C :   -0.593774   -0.045277
  33 H :   -0.030710    0.001797
  34 H :    0.013193   -0.000212
  35 H :    0.012660   -0.000006
  36 H :   -0.048800   -0.009531
Sum of atomic charges         :   -0.0000000
Sum of atomic spin populations:    1.0000000

-----------------------------------------------------
MULLIKEN REDUCED ORBITAL CHARGES AND SPIN POPULATIONS
-----------------------------------------------------
CHARGE
  0 C s       :     3.121759  s :     3.121759
      pz      :     0.960593  p :     2.203811
      px      :     0.310102
      py      :     0.933116
      dz2     :     0.003540  d :     0.054618
      dxz     :     0.021528
      dyz     :     0.000195
      dx2y2   :     0.009139
      dxy     :     0.020216
  1 C s       :     3.152971  s :     3.152971
      pz      :     0.978368  p :     2.754656
      px      :     0.817503
      py      :     0.958785
      dz2     :     0.003121  d :     0.065045
      dxz     :     0.003641
      dyz     :     0.013310
      dx2y2   :     0.026521
      dxy     :     0.018453
  2 C s       :     3.097184  s :     3.097184
      pz      :     0.954365  p :     2.732477
      px      :     0.950745
      py      :     0.827367
      dz2     :     0.004610  d :     0.085619
      dxz     :     0.012727
      dyz     :     0.014083
      dx2y2   :     0.027115
      dxy     :     0.027083
  3 C s       :     3.216058  s :     3.216058
      pz      :     0.988252  p :     2.723774
      px      :     0.894446
      py      :     0.841075
      dz2     :     0.003379  d :     0.063643
      dxz     :     0.010237
      dyz     :     0.006904
      dx2y2   :     0.019125
      dxy     :     0.023999
  4 C s       :     3.220527  s :     3.220527
      pz      :     1.001432  p :     2.734512
      px      :     0.814089
      py      :     0.918991
      dz2     :     0.004703  d :     0.087933
      dxz     :     0.012315
      dyz     :     0.013947
      dx2y2   :     0.029925
      dxy     :     0.027043
  5 C s       :     3.173683  s :     3.173683
      pz      :     0.955793  p :     2.828271
      px      :     0.938070
      py      :     0.934409
      dz2     :     0.004701  d :     0.083414
      dxz     :     0.014084
      dyz     :     0.012178
      dx2y2   :     0.024558
      dxy     :     0.027894
  6 C s       :     3.128087  s :     3.128087
      pz      :     0.996558  p :     2.780199
      px      :     0.951690
      py      :     0.831951
      dz2     :     0.003039  d :     0.065074
      dxz     :     0.010733
      dyz     :     0.006633
      dx2y2   :     0.020057
      dxy     :     0.024612
  7 H s       :     1.024705  s :     1.024705
      pz      :     0.006264  p :     0.028165
      px      :     0.008522
      py      :     0.013378
  8 H s       :     1.014546  s :     1.014546
      pz      :     0.006196  p :     0.028642
      px      :     0.008342
      py      :     0.014103
  9 C s       :     3.220159  s :     3.220159
      pz      :     0.995786  p :     2.793809
[...]
 A(DIA)         -0.0001               0.0002               0.0001    A(PC) =   0.0001
             ----------           ----------           ----------
 A(Tot)          2.0254               2.8671               4.3118    A(iso)=    3.0681
 Orientation: 
  X           0.9979347           -0.0251780           -0.0590958
  Y          -0.0589723            0.0056175           -0.9982438
  Z           0.0254658            0.9996672            0.0041211

Notes:  (1) The A matrix conforms to the "SAI" spin Hamiltonian convention.
        (2) Tensor is right-handed.

 -----------------------------------------------------------
 Nucleus  34H : A:ISTP=    1 I=  0.5 P=533.5514 MHz/au**3
                Q:ISTP=    2 I=  1.0 Q=  0.0029 barn     
 -----------------------------------------------------------
 Solving for nuclear perturbation:
Forming RHS of the CP-SCF equations         ... 
Calc. nucleus orbit integrals (SHARK)       ... done

------------------------------------------------------------------------------
                           ORCA CP-SCF CALCULATION
------------------------------------------------------------------------------

Input orbitals are from        ... cc-pVDZ.gbw
Input Perturbation             ... cc-pVDZ.pin.tmp
Wavefunction output            ... cc-pVDZ.pout.tmp
Perturbation mode              ... Imaginary perturbation
Solver                         ... POPLE
Max. number of iterations      ... 64
Convergence tolerance          ... 1.000e-03
Integral handling              ... Direct
DFT GridXC                     ... 1
COSX GridX                     ... 1
COSX IntAccX                   ... 3.067
COSX Algorithm                 ... Auto
Number of perturbations        ... 3
Number of operators            ... 2
Orbital ranges used for CP-SCF:
 Operator 0:  Orbitals   0... 58  to  59...328
 Operator 1:  Orbitals   0... 57  to  58...328
Variables per perturbation     ... 31648
DFT calculation                         ... on
XC functional terms                     ... off
Hybrid DFT                              ... on
   Exchange mixing (SCF)                ...  0.200
   Exchange mixing (CP-SCF)             ...  0.200
   GGA exch. scaling(SCF)               ...  0.720
   GGA exch. scaling (CP-SCF)           ...  0.720
   GGA corr. scaling (SCF)              ...  0.810
   GGA corr. scaling (CP-SCF)           ...  0.810

CP-SCF GRID
-----------

General Integration Accuracy     IntAcc      ... 3.467
Radial Grid Type                 RadialGrid  ... OptM3 with GC (2021)
Angular Grid (max. ang.)         AngularGrid ... 1 (Lebedev-50)
Angular grid pruning method      GridPruning ... 4 (adaptive)
Weight generation scheme         WeightScheme... Becke
Basis function cutoff            BFCut       ... 1.0000e-10
Integration weight cutoff        WCut        ... 1.0000e-14
Angular grids for H and He will be reduced by one unit
Partially contracted basis set               ... off
Rotationally invariant grid construction     ... off

Total number of grid points                  ...    22946
Total number of batches                      ...      374
Average number of points per batch           ...       61
Average number of grid points per atom       ...      620

CP-SCF GRIDX
------------

General Integration Accuracy     IntAcc      ... 3.067
Radial Grid Type                 RadialGrid  ... OptM3 with GC (2021)
Angular Grid (max. ang.)         AngularGrid ... 1 (Lebedev-50)
Angular grid pruning method      GridPruning ... 4 (adaptive)
Weight generation scheme         WeightScheme... Becke
Basis function cutoff            BFCut       ... 1.0000e-10
Integration weight cutoff        WCut        ... 1.0000e-14
Angular grids for H and He will be reduced by one unit
Partially contracted basis set               ... on
Rotationally invariant grid construction     ... off

Total number of grid points                  ...    10826
Total number of batches                      ...      191
Average number of points per batch           ...       56
Average number of grid points per atom       ...      293

Memory available               ... 916.3 MB
Memory needed per perturbation ...   6.9 MB
Perturbations treated per batch... 3
Number of batches              ... 1
     CP-SCF ITERATION   0:   3.6473e-02 (   1.0 sec   0/  3 done)
     CP-SCF ITERATION   1:   5.8042e-04 (   1.0 sec   3/  3 done)
                    *** THE CP-SCF HAS CONVERGED ***

Forming final perturbed densities           ... done
Transforming perturbed density to AO basis  ... done

 Raw HFC matrix (all values in MHz): 
 -----------------------------------
                -0.7966               0.2880               0.0001
                 0.2879               0.7447               0.0013
                 0.0001               0.0013              -0.8195

 A(FC)          -0.2906              -0.2906              -0.2906
 A(SD)           1.0869              -0.5289              -0.5580
 A(ORB+DIA)      0.0005              -0.0001              -0.0001    A(PC) =   0.0001
 A(ORB)          0.0004               0.0000              -0.0001    A(PC) =   0.0001
 A(DIA)          0.0001              -0.0001              -0.0000    A(PC) =  -0.0000
             ----------           ----------           ----------
 A(Tot)          0.7967              -0.8195              -0.8487    A(iso)=   -0.2905
 Orientation: 
  X           0.1778384            0.0055877           -0.9840438
  Y           0.9840594           -0.0001672            0.1778402
  Z           0.0008292           -0.9999844           -0.0055283

Notes:  (1) The A matrix conforms to the "SAI" spin Hamiltonian convention.
        (2) Tensor is right-handed.

 -----------------------------------------------------------
 Nucleus  35H : A:ISTP=    1 I=  0.5 P=533.5514 MHz/au**3
                Q:ISTP=    2 I=  1.0 Q=  0.0029 barn     
 -----------------------------------------------------------
 Solving for nuclear perturbation:
Forming RHS of the CP-SCF equations         ... 
Calc. nucleus orbit integrals (SHARK)       ... done

------------------------------------------------------------------------------
                           ORCA CP-SCF CALCULATION
------------------------------------------------------------------------------

Input orbitals are from        ... cc-pVDZ.gbw
Input Perturbation             ... cc-pVDZ.pin.tmp
Wavefunction output            ... cc-pVDZ.pout.tmp
Perturbation mode              ... Imaginary perturbation
Solver                         ... POPLE
Max. number of iterations      ... 64
Convergence tolerance          ... 1.000e-03
Integral handling              ... Direct
DFT GridXC                     ... 1
COSX GridX                     ... 1
COSX IntAccX                   ... 3.067
COSX Algorithm                 ... Auto
Number of perturbations        ... 3
Number of operators            ... 2
Orbital ranges used for CP-SCF:
 Operator 0:  Orbitals   0... 58  to  59...328
 Operator 1:  Orbitals   0... 57  to  58...328
Variables per perturbation     ... 31648
DFT calculation                         ... on
XC functional terms                     ... off
Hybrid DFT                              ... on
   Exchange mixing (SCF)                ...  0.200
   Exchange mixing (CP-SCF)             ...  0.200
   GGA exch. scaling(SCF)               ...  0.720
   GGA exch. scaling (CP-SCF)           ...  0.720
   GGA corr. scaling (SCF)              ...  0.810
   GGA corr. scaling (CP-SCF)           ...  0.810

CP-SCF GRID
-----------

General Integration Accuracy     IntAcc      ... 3.467
Radial Grid Type                 RadialGrid  ... OptM3 with GC (2021)
Angular Grid (max. ang.)         AngularGrid ... 1 (Lebedev-50)
Angular grid pruning method      GridPruning ... 4 (adaptive)
Weight generation scheme         WeightScheme... Becke
Basis function cutoff            BFCut       ... 1.0000e-10
Integration weight cutoff        WCut        ... 1.0000e-14
Angular grids for H and He will be reduced by one unit
Partially contracted basis set               ... off
Rotationally invariant grid construction     ... off

Total number of grid points                  ...    22946
Total number of batches                      ...      374
Average number of points per batch           ...       61
Average number of grid points per atom       ...      620

CP-SCF GRIDX
------------

General Integration Accuracy     IntAcc      ... 3.067
Radial Grid Type                 RadialGrid  ... OptM3 with GC (2021)
Angular Grid (max. ang.)         AngularGrid ... 1 (Lebedev-50)
Angular grid pruning method      GridPruning ... 4 (adaptive)
Weight generation scheme         WeightScheme... Becke
Basis function cutoff            BFCut       ... 1.0000e-10
Integration weight cutoff        WCut        ... 1.0000e-14
Angular grids for H and He will be reduced by one unit
Partially contracted basis set               ... on
Rotationally invariant grid construction     ... off

Total number of grid points                  ...    10826
Total number of batches                      ...      191
Average number of points per batch           ...       56
Average number of grid points per atom       ...      293

Memory available               ... 916.0 MB
Memory needed per perturbation ...   6.9 MB
Perturbations treated per batch... 3
Number of batches              ... 1
     CP-SCF ITERATION   0:   3.6571e-02 (   0.9 sec   0/  3 done)
     CP-SCF ITERATION   1:   6.0291e-04 (   0.9 sec   3/  3 done)
                    *** THE CP-SCF HAS CONVERGED ***

Forming final perturbed densities           ... done
Transforming perturbed density to AO basis  ... done

 Raw HFC matrix (all values in MHz): 
 -----------------------------------
                -0.1286               0.0562              -0.0000
                 0.0562               0.2412               0.0006
                -0.0000               0.0006              -0.1334

 A(FC)          -0.0070              -0.0070              -0.0070
 A(SD)          -0.1264              -0.1300               0.2564
 A(ORB+DIA)      0.0000               0.0000               0.0001    A(PC) =   0.0000
 A(ORB)          0.0000              -0.0000               0.0001    A(PC) =   0.0000
 A(DIA)          0.0000               0.0000               0.0000    A(PC) =   0.0000
             ----------           ----------           ----------
 A(Tot)         -0.1334              -0.1370               0.2495    A(iso)=   -0.0070
 Orientation: 
  X          -0.0262662            0.9888027            0.1468993
  Y           0.0023308           -0.1468890            0.9891502
  Z           0.9996523            0.0263237            0.0015535

Notes:  (1) The A matrix conforms to the "SAI" spin Hamiltonian convention.
        (2) Tensor is right-handed.

 -----------------------------------------------------------
 Nucleus  36H : A:ISTP=    1 I=  0.5 P=533.5514 MHz/au**3
                Q:ISTP=    2 I=  1.0 Q=  0.0029 barn     
 -----------------------------------------------------------
 Solving for nuclear perturbation:
Forming RHS of the CP-SCF equations         ... 
Calc. nucleus orbit integrals (SHARK)       ... done

------------------------------------------------------------------------------
                           ORCA CP-SCF CALCULATION
------------------------------------------------------------------------------

Input orbitals are from        ... cc-pVDZ.gbw
Input Perturbation             ... cc-pVDZ.pin.tmp
Wavefunction output            ... cc-pVDZ.pout.tmp
Perturbation mode              ... Imaginary perturbation
Solver                         ... POPLE
Max. number of iterations      ... 64
Convergence tolerance          ... 1.000e-03
Integral handling              ... Direct
DFT GridXC                     ... 1
COSX GridX                     ... 1
COSX IntAccX                   ... 3.067
COSX Algorithm                 ... Auto
Number of perturbations        ... 3
Number of operators            ... 2
Orbital ranges used for CP-SCF:
 Operator 0:  Orbitals   0... 58  to  59...328
 Operator 1:  Orbitals   0... 57  to  58...328
Variables per perturbation     ... 31648
DFT calculation                         ... on
XC functional terms                     ... off
Hybrid DFT                              ... on
   Exchange mixing (SCF)                ...  0.200
   Exchange mixing (CP-SCF)             ...  0.200
   GGA exch. scaling(SCF)               ...  0.720
   GGA exch. scaling (CP-SCF)           ...  0.720
   GGA corr. scaling (SCF)              ...  0.810
   GGA corr. scaling (CP-SCF)           ...  0.810

CP-SCF GRID
-----------

General Integration Accuracy     IntAcc      ... 3.467
Radial Grid Type                 RadialGrid  ... OptM3 with GC (2021)
Angular Grid (max. ang.)         AngularGrid ... 1 (Lebedev-50)
Angular grid pruning method      GridPruning ... 4 (adaptive)
Weight generation scheme         WeightScheme... Becke
Basis function cutoff            BFCut       ... 1.0000e-10
Integration weight cutoff        WCut        ... 1.0000e-14
Angular grids for H and He will be reduced by one unit
Partially contracted basis set               ... off
Rotationally invariant grid construction     ... off

Total number of grid points                  ...    22946
Total number of batches                      ...      374
Average number of points per batch           ...       61
Average number of grid points per atom       ...      620

CP-SCF GRIDX
------------

General Integration Accuracy     IntAcc      ... 3.067
Radial Grid Type                 RadialGrid  ... OptM3 with GC (2021)
Angular Grid (max. ang.)         AngularGrid ... 1 (Lebedev-50)
Angular grid pruning method      GridPruning ... 4 (adaptive)
Weight generation scheme         WeightScheme... Becke
Basis function cutoff            BFCut       ... 1.0000e-10
Integration weight cutoff        WCut        ... 1.0000e-14
Angular grids for H and He will be reduced by one unit
Partially contracted basis set               ... on
Rotationally invariant grid construction     ... off

Total number of grid points                  ...    10826
Total number of batches                      ...      191
Average number of points per batch           ...       56
Average number of grid points per atom       ...      293

Memory available               ... 915.6 MB
Memory needed per perturbation ...   6.9 MB
Perturbations treated per batch... 3
Number of batches              ... 1
     CP-SCF ITERATION   0:   4.4615e-02 (   0.9 sec   0/  3 done)
     CP-SCF ITERATION   1:   2.0060e-03 (   1.0 sec   0/  3 done)
     CP-SCF ITERATION   2:   1.0742e-04 (   1.0 sec   3/  3 done)
                    *** THE CP-SCF HAS CONVERGED ***

Forming final perturbed densities           ... done
Transforming perturbed density to AO basis  ... done

 Raw HFC matrix (all values in MHz): 
 -----------------------------------
                -6.6819              -1.6970               0.1889
                -1.6946             -19.1241              -0.0173
                 0.1889              -0.0174             -16.4656

 A(FC)         -14.0929             -14.0929             -14.0929
 A(SD)           7.6402              -2.3756              -5.2646
 A(ORB+DIA)      0.0013              -0.0007               0.0064    A(PC) =   0.0024
 A(ORB)         -0.0001               0.0002               0.0064    A(PC) =   0.0022
 A(DIA)          0.0014              -0.0009              -0.0000    A(PC) =   0.0002
             ----------           ----------           ----------
 A(Tot)         -6.4513             -16.4691             -19.3511    A(iso)=  -14.0905
 Orientation: 
  X          -0.9909722           -0.0183912            0.1328002
  Y           0.1327255            0.0052301            0.9911390
  Z          -0.0189228            0.9998172           -0.0027419

Notes:  (1) The A matrix conforms to the "SAI" spin Hamiltonian convention.
        (2) Tensor is right-handed.


--------------------------------------------------------------------------------
----------------------------------------------------------------------------
                           ORCA EULER ANGLE PROGRAM
----------------------------------------------------------------------------

Only g-tensor available        -->  using g-tensor as reference tensor

Reference tensor               ...  g

g-tensor ordering              ...  |g_min> --> |gx>
                                    |g_mid> --> |gy>
                                    |g_max> --> |gz>

A- and EFG-tensor ordering     ...  the axes |Ax>, |Qx>, |Ay>, etc. are assigned
                                    such that the Euler rotation is minimal. You
                                    can find the respective eigenvalues as Ax,
                                    EFGx, Ay, etc. in the tables below.
                                    The relation of |Ax>, |Ay>,  etc. to Amin, Amid, etc.
                                    (as printed in the ORCA EPR/NMR CALCULATION Output)
                                    is obtained in the detailed printout.

Euler rotation around          ...  z - y - z
   First rotation              -->  by alpha around z
   Second rotation             -->  by beta around y'
   Third rotation              -->  by gamma around z''
   Positive / Negative angle   -->  clockwise / counterclockwise rotation

Plot EFG-tensors                    (-)
Plot HFC-tensors                    (-)
Detailed Printout                   (-)

-------------------------------------------------------------------------
          Euler rotation of hyperfine tensor to g-tensor
-------------------------------------------------------------------------

-------------------------------------------------------------------
 Atom  |   Alpha    Beta    Gamma   |   Ax       Ay       Az 
       |          [degrees]         |           [MHz]         
-------------------------------------------------------------------
  7H      -90.1     37.6     90.1     -16.36    -6.90   -19.98
  8H      -89.9     37.7     90.0       3.83     4.76     9.26
 10H       89.8      9.9    -89.8     -47.80   -17.41   -73.84
 12H      -91.8     38.2     69.9      60.22    70.29    61.54
 13H      -87.7     38.1    109.3      59.92    69.99    61.25
 15H      -82.6     18.7     38.9      -3.37    -3.20     3.33
 16H      -96.0     18.5    140.3      -3.36    -3.20     3.33
 18H      105.1     20.8    -60.6      -0.09     0.04     2.36
 19H       74.0     20.6   -119.0      -0.10     0.04     2.36
 21H     -162.2     36.3    120.2      21.64    21.05    24.93
 22H      -17.4     36.5     60.6      21.17    20.60    24.48
 24H       71.6     27.5    -61.9      -0.97    -0.87     1.10
 25H      109.5     27.4   -117.1      -0.95    -0.86     1.09
 27H     -179.9     10.0    147.5      -0.13    -0.18     0.82
 28H        0.6     10.4     32.4      -0.13    -0.17     0.82
 30H      114.0     15.2   -118.3      -0.13    -0.11     0.40
 31H       66.0     15.3    -60.0      -0.13    -0.11     0.40
 33H       89.8      8.6    -90.1       2.87     2.03     4.31
 34H       86.4      1.7    -85.7      -0.82    -0.85     0.80
 35H       86.2      3.5    -86.6      -0.13    -0.14     0.25
 36H       90.3      4.3    -90.3     -16.47    -6.45   -19.35
-------------------------------------------------------------------


Maximum memory used throughout the entire EPRNMR-calculation: 147.8 MB

Timings for individual modules:

Sum of individual times         ...     1448.341 sec (=  24.139 min)
GTO integral calculation        ...        3.824 sec (=   0.064 min)   0.3 %
Spin-Orbit-Coupling Matrices    ...        5.805 sec (=   0.097 min)   0.4 %
SCF iterations                  ...       18.772 sec (=   0.313 min)   1.3 %
EPR/NMR calculation             ...     1419.940 sec (=  23.666 min)  98.0 %
                             ****ORCA TERMINATED NORMALLY****
TOTAL RUN TIME: 0 days 0 hours 24 minutes 12 seconds 592 msec
