
                                 *****************
                                 * O   R   C   A *
                                 *****************

                                            #,                                       
                                            ###                                      
                                            ####                                     
                                            #####                                    
                                            ######                                   
                                           ########,                                 
                                     ,,################,,,,,                         
                               ,,#################################,,                 
                          ,,##########################################,,             
                       ,#########################################, ''#####,          
                    ,#############################################,,   '####,        
                  ,##################################################,,,,####,       
                ,###########''''           ''''###############################       
              ,#####''   ,,,,##########,,,,          '''####'''          '####       
            ,##' ,,,,###########################,,,                        '##       
           ' ,,###''''                  '''############,,,                           
         ,,##''                                '''############,,,,        ,,,,,,###''
      ,#''                                            '''#######################'''  
     '                                                          ''''####''''         
             ,#######,   #######,   ,#######,      ##                                
            ,#'     '#,  ##    ##  ,#'     '#,    #''#        ######   ,####,        
            ##       ##  ##   ,#'  ##            #'  '#       #        #'  '#        
            ##       ##  #######   ##           ,######,      #####,   #    #        
            '#,     ,#'  ##    ##  '#,     ,#' ,#      #,         ##   #,  ,#        
             '#######'   ##     ##  '#######'  #'      '#     #####' # '####'        



                  #######################################################
                  #                        -***-                        #
                  #          Department of theory and spectroscopy      #
                  #    Directorship and core code : Frank Neese         #
                  #        Max Planck Institute fuer Kohlenforschung    #
                  #                Kaiser Wilhelm Platz 1               #
                  #                 D-45470 Muelheim/Ruhr               #
                  #                      Germany                        #
                  #                                                     #
                  #                  All rights reserved                #
                  #                        -***-                        #
                  #######################################################


                         Program Version 5.0.4 -  RELEASE  -


 With contributions from (in alphabetic order):
   Daniel Aravena         : Magnetic Suceptibility
   Michael Atanasov       : Ab Initio Ligand Field Theory (pilot matlab implementation)
   Alexander A. Auer      : GIAO ZORA, VPT2 properties, NMR spectrum
   Ute Becker             : Parallelization
   Giovanni Bistoni       : ED, misc. LED, open-shell LED, HFLD
   Martin Brehm           : Molecular dynamics
   Dmytro Bykov           : SCF Hessian
   Vijay G. Chilkuri      : MRCI spin determinant printing, contributions to CSF-ICE
   Dipayan Datta          : RHF DLPNO-CCSD density
   Achintya Kumar Dutta   : EOM-CC, STEOM-CC
   Dmitry Ganyushin       : Spin-Orbit,Spin-Spin,Magnetic field MRCI
   Miquel Garcia          : C-PCM and meta-GGA Hessian, CC/C-PCM, Gaussian charge scheme
   Yang Guo               : DLPNO-NEVPT2, F12-NEVPT2, CIM, IAO-localization
   Andreas Hansen         : Spin unrestricted coupled pair/coupled cluster methods
   Benjamin Helmich-Paris : MC-RPA, TRAH-SCF, COSX integrals
   Lee Huntington         : MR-EOM, pCC
   Robert Izsak           : Overlap fitted RIJCOSX, COSX-SCS-MP3, EOM
   Marcus Kettner         : VPT2
   Christian Kollmar      : KDIIS, OOCD, Brueckner-CCSD(T), CCSD density, CASPT2, CASPT2-K
   Simone Kossmann        : Meta GGA functionals, TD-DFT gradient, OOMP2, MP2 Hessian
   Martin Krupicka        : Initial AUTO-CI
   Lucas Lang             : DCDCAS
   Marvin Lechner         : AUTO-CI (C++ implementation), FIC-MRCC
   Dagmar Lenk            : GEPOL surface, SMD
   Dimitrios Liakos       : Extrapolation schemes; Compound Job, initial MDCI parallelization
   Dimitrios Manganas     : Further ROCIS development; embedding schemes
   Dimitrios Pantazis     : SARC Basis sets
   Anastasios Papadopoulos: AUTO-CI, single reference methods and gradients
   Taras Petrenko         : DFT Hessian,TD-DFT gradient, ASA, ECA, R-Raman, ABS, FL, XAS/XES, NRVS
   Peter Pinski           : DLPNO-MP2, DLPNO-MP2 Gradient
   Christoph Reimann      : Effective Core Potentials
   Marius Retegan         : Local ZFS, SOC
   Christoph Riplinger    : Optimizer, TS searches, QM/MM, DLPNO-CCSD(T), (RO)-DLPNO pert. Triples
   Tobias Risthaus        : Range-separated hybrids, TD-DFT gradient, RPA, STAB
   Michael Roemelt        : Original ROCIS implementation
   Masaaki Saitow         : Open-shell DLPNO-CCSD energy and density
   Barbara Sandhoefer     : DKH picture change effects
   Avijit Sen             : IP-ROCIS
   Kantharuban Sivalingam : CASSCF convergence, NEVPT2, FIC-MRCI
   Bernardo de Souza      : ESD, SOC TD-DFT
   Georgi Stoychev        : AutoAux, RI-MP2 NMR, DLPNO-MP2 response
   Willem Van den Heuvel  : Paramagnetic NMR
   Boris Wezisla          : Elementary symmetry handling
   Frank Wennmohs         : Technical directorship


 We gratefully acknowledge several colleagues who have allowed us to
 interface, adapt or use parts of their codes:
   Stefan Grimme, W. Hujo, H. Kruse, P. Pracht,  : VdW corrections, initial TS optimization,
                  C. Bannwarth, S. Ehlert          DFT functionals, gCP, sTDA/sTD-DF
   Ed Valeev, F. Pavosevic, A. Kumar             : LibInt (2-el integral package), F12 methods
   Garnet Chan, S. Sharma, J. Yang, R. Olivares  : DMRG
   Ulf Ekstrom                                   : XCFun DFT Library
   Mihaly Kallay                                 : mrcc  (arbitrary order and MRCC methods)
   Jiri Pittner, Ondrej Demel                    : Mk-CCSD
   Frank Weinhold                                : gennbo (NPA and NBO analysis)
   Christopher J. Cramer and Donald G. Truhlar   : smd solvation model
   Lars Goerigk                                  : TD-DFT with DH, B97 family of functionals
   V. Asgeirsson, H. Jonsson                     : NEB implementation
   FAccTs GmbH                                   : IRC, NEB, NEB-TS, DLPNO-Multilevel, CI-OPT
                                                   MM, QMMM, 2- and 3-layer-ONIOM, Crystal-QMMM,
                                                   LR-CPCM, SF, NACMEs, symmetry and pop. for TD-DFT,
                                                   nearIR, NL-DFT gradient (VV10), updates on ESD,
                                                   ML-optimized integration grids
   S Lehtola, MJT Oliveira, MAL Marques          : LibXC Library
   Liviu Ungur et al                             : ANISO software


 Your calculation uses the libint2 library for the computation of 2-el integrals
 For citations please refer to: http://libint.valeyev.net

 Your ORCA version has been built with support for libXC version: 5.1.0
 For citations please refer to: https://tddft.org/programs/libxc/

 This ORCA versions uses:
   CBLAS   interface :  Fast vector & matrix operations
   LAPACKE interface :  Fast linear algebra routines
   SCALAPACK package :  Parallel linear algebra routines
   Shared memory     :  Shared parallel matrices
   BLAS/LAPACK       :  OpenBLAS 0.3.15  USE64BITINT DYNAMIC_ARCH NO_AFFINITY SkylakeX SINGLE_THREADED
        Core in use  :  SkylakeX
   Copyright (c) 2011-2014, The OpenBLAS Project




***************************************
The coordinates will be read from file: opt.xyz
***************************************


================================================================================

----- Orbital basis set information -----
Your calculation utilizes the basis: cc-pVDZ 
       H, B-Ne : Obtained from the ccRepo (grant-hill.group.shef.ac.uk/ccrepo) Feb. 2017
                 T. H. Dunning, Jr., J. Chem. Phys. 90, 1007 (1989)
            He : Obtained from the ccRepo (grant-hill.group.shef.ac.uk/ccrepo) Feb. 2017
                 D. E. Woon, T. H. Dunning, Jr., J. Chem. Phys. 100, 2975 (1994)
  Li-Be, Na-Mg : Obtained from the ccRepo (grant-hill.group.shef.ac.uk/ccrepo) Feb. 2017
                 B. P. Prascher, D. E. Woon, K. A. Peterson, T. H. Dunning, Jr., A. K. Wilson, Theor. Chem. Acc. 128, 69 (2011)
         Al-Ar : Obtained from the ccRepo (grant-hill.group.shef.ac.uk/ccrepo) Feb. 2017
                 D. E. Woon, T. H. Dunning, Jr., J. Chem. Phys. 98, 1358 (1993)
            Ca : Obtained from the Peterson Research Group Website (tyr0.chem.wsu.edu/~kipeters) Feb. 2017
                 J. Koput, K. A. Peterson, J. Phys. Chem. 106, 9595 (2002)
         Sc-Zn : Obtained from the ccRepo (grant-hill.group.shef.ac.uk/ccrepo) Feb. 2017
                 N. B. Balabanov, K. A. Peterson, J. Chem. Phys. 123, 064107 (2005)
                 N. B. Balabanov, K. A. Peterson, J. Chem. Phys. 125, 074110 (2006)
         Ga-Kr : Obtained from the ccRepo (grant-hill.group.shef.ac.uk/ccrepo) Feb. 2017
                 A. K. Wilson, D. E. Woon, K. A. Peterson, T. H. Dunning, Jr., J. Chem. Phys. 110, 7667 (1999)

----- AuxJ basis set information -----
Your calculation utilizes the AutoAux generation procedure.
  G. L. Stoychev, A. A. Auer, F. Neese, J. Chem. Theory Comput. 13, 554 (2017)

----- AuxC basis set information -----
Your calculation utilizes the AutoAux generation procedure.
  G. L. Stoychev, A. A. Auer, F. Neese, J. Chem. Theory Comput. 13, 554 (2017)

----- AuxJK basis set information -----
Your calculation utilizes the AutoAux generation procedure.
  G. L. Stoychev, A. A. Auer, F. Neese, J. Chem. Theory Comput. 13, 554 (2017)

================================================================================
                                        WARNINGS
                       Please study these warnings very carefully!
================================================================================

WARNING: Old DensityContainer found on disk!
         Will remove this file - 
         If you want to keep old densities, please start your calculation with a different basename. 


WARNING: your system is open-shell and RHF/RKS was chosen
  ===> : WILL SWITCH to UHF/UKS


INFO   : the flag for use of the SHARK integral package has been found!

================================================================================
                                       INPUT FILE
================================================================================
NAME = cc-pVDZ.inp
|  1> ! B3LYP cc-pVDZ AUTOAUX
|  2> %pal nprocs 16 end
|  3> *XYZFile 0 2 opt.xyz
|  4> %EPRNMR
|  5>         GTENSOR   TRUE
|  6>         NUCLEI    = ALL H {SHIFT, AISO, ADIP, AORB}
|  7> END
|  8> 
|  9>                          ****END OF INPUT****
================================================================================

                       ****************************
                       * Single Point Calculation *
                       ****************************

---------------------------------
CARTESIAN COORDINATES (ANGSTROEM)
---------------------------------
  C     -2.934073   -0.018766   -0.033821
  C      1.296326    0.061617    0.042355
  C      0.590316    1.299012    0.023646
  C     -0.830012    1.218758   -0.002083
  C     -1.498941   -0.010710   -0.008376
  C     -0.774370   -1.238300    0.010896
  C      0.629305   -1.156514    0.035978
  H     -1.426643    2.131592   -0.017243
  H      1.218068   -2.074806    0.050925
  C      1.286599    2.534948    0.031266
  H      2.380846    2.491530    0.052874
  C      0.640774    3.887237    0.012787
  H     -0.012358    3.982869   -0.879700
  H     -0.049610    3.989014    0.876092
  C      1.643397    5.048244    0.030137
  H      2.282865    4.958144    0.927400
  H      2.320748    4.952086   -0.838264
  C      0.972655    6.422996    0.011073
  H      0.314265    6.559972    0.886339
  H      0.351320    6.553366   -0.891860
  C     -1.525236   -2.553953    0.005144
  H     -2.211934   -2.565966    0.872443
  H     -2.196235   -2.567265   -0.874138
  C     -0.682959   -3.832515    0.013733
  H     -0.008492   -3.844031   -0.862466
  H     -0.029866   -3.846912    0.905937
  C     -1.540346   -5.103812    0.002012
  H     -2.217942   -5.093520    0.875899
  H     -2.195918   -5.092106   -0.888500
  C     -0.711165   -6.390340    0.011269
  H     -0.071581   -6.448752    0.909014
  H     -0.048195   -6.446330   -0.869486
  C     -4.149637   -0.020449   -0.056778
  H     -5.221734   -0.017269   -0.080213
  H      1.717399    7.235047    0.023638
  H     -1.353742   -7.285750    0.001613
  H      2.389514    0.078501    0.062394

----------------------------
CARTESIAN COORDINATES (A.U.)
----------------------------
  NO LB      ZA    FRAG     MASS         X           Y           Z
   0 C     6.0000    0    12.011   -5.544595   -0.035462   -0.063912
   1 C     6.0000    0    12.011    2.449702    0.116440    0.080040
   2 C     6.0000    0    12.011    1.115535    2.454777    0.044685
   3 C     6.0000    0    12.011   -1.568496    2.303118   -0.003936
   4 C     6.0000    0    12.011   -2.832588   -0.020239   -0.015828
   5 C     6.0000    0    12.011   -1.463347   -2.340047    0.020591
   6 C     6.0000    0    12.011    1.189213   -2.185496    0.067989
   7 H     1.0000    0     1.008   -2.695965    4.028126   -0.032585
   8 H     1.0000    0     1.008    2.301815   -3.920815    0.096233
   9 C     6.0000    0    12.011    2.431319    4.790357    0.059083
  10 H     1.0000    0     1.008    4.499146    4.708310    0.099917
  11 C     6.0000    0    12.011    1.210887    7.345813    0.024163
  12 H     1.0000    0     1.008   -0.023354    7.526532   -1.662393
  13 H     1.0000    0     1.008   -0.093748    7.538145    1.655575
  14 C     6.0000    0    12.011    3.105570    9.539799    0.056950
  15 H     1.0000    0     1.008    4.313990    9.369534    1.752532
  16 H     1.0000    0     1.008    4.385578    9.358086   -1.584090
  17 C     6.0000    0    12.011    1.838051   12.137704    0.020924
  18 H     1.0000    0     1.008    0.593874   12.396551    1.674939
  19 H     1.0000    0     1.008    0.663899   12.384067   -1.685372
  20 C     6.0000    0    12.011   -2.882279   -4.826272    0.009722
  21 H     1.0000    0     1.008   -4.179950   -4.848972    1.648678
  22 H     1.0000    0     1.008   -4.150282   -4.851428   -1.651882
  23 C     6.0000    0    12.011   -1.290606   -7.242403    0.025952
  24 H     1.0000    0     1.008   -0.016048   -7.264166   -1.629825
  25 H     1.0000    0     1.008   -0.056439   -7.269610    1.711973
  26 C     6.0000    0    12.011   -2.910832   -9.644806    0.003802
  27 H     1.0000    0     1.008   -4.191303   -9.625357    1.655210
  28 H     1.0000    0     1.008   -4.149684   -9.622686   -1.679022
  29 C     6.0000    0    12.011   -1.343908  -12.075992    0.021295
  30 H     1.0000    0     1.008   -0.135268  -12.186376    1.717787
  31 H     1.0000    0     1.008   -0.091074  -12.181798   -1.643091
  32 C     6.0000    0    12.011   -7.841677   -0.038643   -0.107294
  33 H     1.0000    0     1.008   -9.867647   -0.032633   -0.151580
  34 H     1.0000    0     1.008    3.245413   13.672258    0.044669
  35 H     1.0000    0     1.008   -2.558202  -13.768072    0.003049
  36 H     1.0000    0     1.008    4.515527    0.148345    0.117908

--------------------------------
INTERNAL COORDINATES (ANGSTROEM)
--------------------------------
 C      0   0   0     0.000000000000     0.00000000     0.00000000
 C      1   0   0     4.231848939847     0.00000000     0.00000000
 C      2   1   0     1.424762060632    61.37344351     0.00000000
 C      3   2   1     1.422825886963   116.48151840     0.00000000
 C      4   3   2     1.399677359441   121.78305841     0.00000000
 C      5   4   3     1.425605629839   120.89196210     0.00000000
 C      2   1   3     1.388813772745    60.20751446   180.00689524
 H      4   3   2     1.090626055393   119.94276010   179.99792087
 H      7   2   1     1.090928671512   118.62250577   180.00005822
 C      3   2   1     1.418592591911   120.88899395   179.95563514
 H     10   3   2     1.095321098643   117.12389638   359.94844694
 C     10   3   2     1.498705157018   125.06816424   179.98164747
 H     12  10   3     1.110072117945   109.94925009   302.56206846
 H     12  10   3     1.110083212556   109.94621140    57.16239201
 C     12  10   3     1.534109735725   113.64635141   179.85516404
 H     15  12  10     1.105494941857   108.99853322   302.34391275
 H     15  12  10     1.105518470360   109.00932731    57.64727482
 C     15  12  10     1.529771797325   113.16672195   180.00099529
 H     18  15  12     1.103780613789   111.29528058    59.88161723
 H     18  15  12     1.103784895252   111.29386069   300.17982201
 C      6   5   4     1.514852331370   119.72846641   179.92922622
 H     21   6   5     1.106302396969   108.30789276   303.18976293
 H     21   6   5     1.106143653315   108.30943594    55.70878025
 C     21   6   5     1.531085820367   116.90814177   179.45460909
 H     24  21   6     1.105786818929   109.86424906   301.96965616
 H     24  21   6     1.105787266606   109.89547614    58.46843302
 C     24  21   6     1.533442247174   112.62413367   180.20133835
 H     27  24  21     1.105857717831   109.19832109   302.38643287
 H     27  24  21     1.105858913116   109.19832160    57.68661707
 C     27  24  21     1.530614619735   113.19729136   180.03394763
 H     30  27  24     1.103823611824   111.30244500    59.90416299
 H     30  27  24     1.103809094676   111.29589034   300.19584285
 C      1   2   3     1.215781472594   178.98969451     2.58275710
 H     33   1   5     1.072357782986   179.69813644    19.04955831
 H     18  15  12     1.101920293683   111.45587995   180.02775680
 H     30  27  24     1.102160184204   111.52875570   180.05131216
 H      2   1   3     1.093501760516   179.79545470   175.07056308

---------------------------
INTERNAL COORDINATES (A.U.)
---------------------------
 C      0   0   0     0.000000000000     0.00000000     0.00000000
 C      1   0   0     7.997035536435     0.00000000     0.00000000
 C      2   1   0     2.692410100595    61.37344351     0.00000000
 C      3   2   1     2.688751262613   116.48151840     0.00000000
 C      4   3   2     2.645006885193   121.78305841     0.00000000
 C      5   4   3     2.694004215372   120.89196210     0.00000000
 C      2   1   3     2.624477681505    60.20751446   180.00689524
 H      4   3   2     2.060984559211   119.94276010   179.99792087
 H      7   2   1     2.061556420801   118.62250577   180.00005822
 C      3   2   1     2.680751494321   120.88899395   179.95563514
 H     10   3   2     2.069856905141   117.12389638   359.94844694
 C     10   3   2     2.832142302260   125.06816424   179.98164747
 H     12  10   3     2.097732291818   109.94925009   302.56206846
 H     12  10   3     2.097753257595   109.94621140    57.16239201
 C     12  10   3     2.899047259903   113.64635141   179.85516404
 H     15  12  10     2.089082682545   108.99853322   302.34391275
 H     15  12  10     2.089127144972   109.00932731    57.64727482
 C     15  12  10     2.890849744340   113.16672195   180.00099529
 H     18  15  12     2.085843071993   111.29528058    59.88161723
 H     18  15  12     2.085851162785   111.29386069   300.17982201
 C      6   5   4     2.862656039621   119.72846641   179.92922622
 H     21   6   5     2.090608551572   108.30789276   303.18976293
 H     21   6   5     2.090308569541   108.30943594    55.70878025
 C     21   6   5     2.893332888024   116.90814177   179.45460909
 H     24  21   6     2.089634250275   109.86424906   301.96965616
 H     24  21   6     2.089635096263   109.89547614    58.46843302
 C     24  21   6     2.897785889343   112.62413367   180.20133835
 H     27  24  21     2.089768229784   109.19832109   302.38643287
 H     27  24  21     2.089770488544   109.19832160    57.68661707
 C     27  24  21     2.892442447875   113.19729136   180.03394763
 H     30  27  24     2.085924326504   111.30244500    59.90416299
 H     30  27  24     2.085896893069   111.29589034   300.19584285
 C      1   2   3     2.297494021899   178.98969451     2.58275710
 H     33   1   5     2.026462527422   179.69813644    19.04955831
 H     18  15  12     2.082327576472   111.45587995   180.02775680
 H     30  27  24     2.082780903857   111.52875570   180.05131216
 H      2   1   3     2.066418854336   179.79545470   175.07056308

---------------------
BASIS SET INFORMATION
---------------------
There are 2 groups of distinct atoms

 Group   1 Type C   : 17s4p1d contracted to 3s2p1d pattern {881/31/1}
 Group   2 Type H   : 4s1p contracted to 2s1p pattern {31/1}

Atom   0C    basis set group =>   1
Atom   1C    basis set group =>   1
Atom   2C    basis set group =>   1
Atom   3C    basis set group =>   1
Atom   4C    basis set group =>   1
Atom   5C    basis set group =>   1
Atom   6C    basis set group =>   1
Atom   7H    basis set group =>   2
Atom   8H    basis set group =>   2
Atom   9C    basis set group =>   1
Atom  10H    basis set group =>   2
Atom  11C    basis set group =>   1
Atom  12H    basis set group =>   2
Atom  13H    basis set group =>   2
Atom  14C    basis set group =>   1
Atom  15H    basis set group =>   2
Atom  16H    basis set group =>   2
Atom  17C    basis set group =>   1
Atom  18H    basis set group =>   2
Atom  19H    basis set group =>   2
Atom  20C    basis set group =>   1
Atom  21H    basis set group =>   2
Atom  22H    basis set group =>   2
Atom  23C    basis set group =>   1
Atom  24H    basis set group =>   2
Atom  25H    basis set group =>   2
Atom  26C    basis set group =>   1
Atom  27H    basis set group =>   2
Atom  28H    basis set group =>   2
Atom  29C    basis set group =>   1
Atom  30H    basis set group =>   2
Atom  31H    basis set group =>   2
Atom  32C    basis set group =>   1
Atom  33H    basis set group =>   2
Atom  34H    basis set group =>   2
Atom  35H    basis set group =>   2
Atom  36H    basis set group =>   2
---------------------------------
AUXILIARY/J BASIS SET INFORMATION
---------------------------------
There are 2 groups of distinct atoms

 Group   1 Type C   : 14s11p10d2f contracted to 14s11p10d2f pattern {11111111111111/11111111111/1111111111/11}
 Group   2 Type H   : 9s2p1d contracted to 9s2p1d pattern {111111111/11/1}

Atom   0C    basis set group =>   1
Atom   1C    basis set group =>   1
Atom   2C    basis set group =>   1
Atom   3C    basis set group =>   1
Atom   4C    basis set group =>   1
Atom   5C    basis set group =>   1
Atom   6C    basis set group =>   1
Atom   7H    basis set group =>   2
Atom   8H    basis set group =>   2
Atom   9C    basis set group =>   1
Atom  10H    basis set group =>   2
Atom  11C    basis set group =>   1
Atom  12H    basis set group =>   2
Atom  13H    basis set group =>   2
Atom  14C    basis set group =>   1
Atom  15H    basis set group =>   2
Atom  16H    basis set group =>   2
Atom  17C    basis set group =>   1
Atom  18H    basis set group =>   2
Atom  19H    basis set group =>   2
Atom  20C    basis set group =>   1
Atom  21H    basis set group =>   2
Atom  22H    basis set group =>   2
Atom  23C    basis set group =>   1
Atom  24H    basis set group =>   2
Atom  25H    basis set group =>   2
Atom  26C    basis set group =>   1
Atom  27H    basis set group =>   2
Atom  28H    basis set group =>   2
Atom  29C    basis set group =>   1
Atom  30H    basis set group =>   2
Atom  31H    basis set group =>   2
Atom  32C    basis set group =>   1
Atom  33H    basis set group =>   2
Atom  34H    basis set group =>   2
Atom  35H    basis set group =>   2
Atom  36H    basis set group =>   2
---------------------------------
AUXILIARY/C BASIS SET INFORMATION
---------------------------------
There are 2 groups of distinct atoms

 Group   1 Type C   : 14s11p10d2f contracted to 14s11p10d2f pattern {11111111111111/11111111111/1111111111/11}
 Group   2 Type H   : 9s2p1d contracted to 9s2p1d pattern {111111111/11/1}

Atom   0C    basis set group =>   1
Atom   1C    basis set group =>   1
Atom   2C    basis set group =>   1
Atom   3C    basis set group =>   1
Atom   4C    basis set group =>   1
Atom   5C    basis set group =>   1
Atom   6C    basis set group =>   1
Atom   7H    basis set group =>   2
Atom   8H    basis set group =>   2
Atom   9C    basis set group =>   1
Atom  10H    basis set group =>   2
Atom  11C    basis set group =>   1
Atom  12H    basis set group =>   2
Atom  13H    basis set group =>   2
Atom  14C    basis set group =>   1
Atom  15H    basis set group =>   2
Atom  16H    basis set group =>   2
Atom  17C    basis set group =>   1
Atom  18H    basis set group =>   2
Atom  19H    basis set group =>   2
Atom  20C    basis set group =>   1
Atom  21H    basis set group =>   2
Atom  22H    basis set group =>   2
Atom  23C    basis set group =>   1
Atom  24H    basis set group =>   2
Atom  25H    basis set group =>   2
Atom  26C    basis set group =>   1
Atom  27H    basis set group =>   2
Atom  28H    basis set group =>   2
Atom  29C    basis set group =>   1
Atom  30H    basis set group =>   2
Atom  31H    basis set group =>   2
Atom  32C    basis set group =>   1
Atom  33H    basis set group =>   2
Atom  34H    basis set group =>   2
Atom  35H    basis set group =>   2
Atom  36H    basis set group =>   2
----------------------------------
AUXILIARY/JK BASIS SET INFORMATION
----------------------------------
There are 2 groups of distinct atoms

 Group   1 Type C   : 14s11p10d2f contracted to 14s11p10d2f pattern {11111111111111/11111111111/1111111111/11}
 Group   2 Type H   : 9s2p1d contracted to 9s2p1d pattern {111111111/11/1}

Atom   0C    basis set group =>   1
Atom   1C    basis set group =>   1
Atom   2C    basis set group =>   1
Atom   3C    basis set group =>   1
Atom   4C    basis set group =>   1
Atom   5C    basis set group =>   1
Atom   6C    basis set group =>   1
Atom   7H    basis set group =>   2
Atom   8H    basis set group =>   2
Atom   9C    basis set group =>   1
Atom  10H    basis set group =>   2
Atom  11C    basis set group =>   1
Atom  12H    basis set group =>   2
Atom  13H    basis set group =>   2
Atom  14C    basis set group =>   1
Atom  15H    basis set group =>   2
Atom  16H    basis set group =>   2
Atom  17C    basis set group =>   1
Atom  18H    basis set group =>   2
Atom  19H    basis set group =>   2
Atom  20C    basis set group =>   1
Atom  21H    basis set group =>   2
Atom  22H    basis set group =>   2
Atom  23C    basis set group =>   1
Atom  24H    basis set group =>   2
Atom  25H    basis set group =>   2
Atom  26C    basis set group =>   1
Atom  27H    basis set group =>   2
Atom  28H    basis set group =>   2
Atom  29C    basis set group =>   1
Atom  30H    basis set group =>   2
Atom  31H    basis set group =>   2
Atom  32C    basis set group =>   1
Atom  33H    basis set group =>   2
Atom  34H    basis set group =>   2
Atom  35H    basis set group =>   2
Atom  36H    basis set group =>   2

Checking for AutoStart:
The File: cc-pVDZ.gbw exists
Trying to determine its content:
     ... Fine, the file contains calculation information
     ... Fine, the calculation information was read
     ... Fine, the file contains a basis set
     ... Fine, the basis set was read
     ... Fine, the file contains a geometry
     ... Fine, the geometry was read
     ... Fine, the file contains a set of orbitals
     ... Fine, the orbitals can be read
     => possible old guess file was deleted
     => GBW file was renamed to GES file
     => GES file is set as startup file
     => Guess is set to MORead
     ... now leaving AutoStart



           ************************************************************
           *        Program running with 16 parallel MPI-processes    *
           *              working on a common directory               *
           ************************************************************
------------------------------------------------------------------------------
                           ORCA GTO INTEGRAL CALCULATION
                           -- RI-GTO INTEGRALS CHOSEN --
------------------------------------------------------------------------------
------------------------------------------------------------------------------
                   ___                                                        
                  /   \      - P O W E R E D   B Y -                         
                 /     \                                                     
                 |  |  |   _    _      __       _____    __    __             
                 |  |  |  | |  | |    /  \     |  _  \  |  |  /  |          
                  \  \/   | |  | |   /    \    | | | |  |  | /  /          
                 / \  \   | |__| |  /  /\  \   | |_| |  |  |/  /          
                |  |  |   |  __  | /  /__\  \  |    /   |      \           
                |  |  |   | |  | | |   __   |  |    \   |  |\   \          
                \     /   | |  | | |  |  |  |  | |\  \  |  | \   \       
                 \___/    |_|  |_| |__|  |__|  |_| \__\ |__|  \__/        
                                                                              
                      - O R C A' S   B I G   F R I E N D -                    
                                      &                                       
                       - I N T E G R A L  F E E D E R -                       
                                                                              
 v1 FN, 2020, v2 2021                                                         
------------------------------------------------------------------------------


Reading SHARK input file cc-pVDZ.SHARKINP.tmp ... ok
----------------------
SHARK INTEGRAL PACKAGE
----------------------

Number of atoms                             ...     37
Number of basis functions                   ...    425
Number of shells                            ...    255
Maximum angular momentum                    ...      2
Integral batch strategy                     ... SHARK/LIBINT Hybrid
RI-J (if used) integral strategy            ... SPLIT-RIJ (Revised 2003 algorithm where possible)
Printlevel                                  ...      1
Contraction scheme used                     ... PARTIAL GENERAL contraction
Coulomb Range Separation                    ... NOT USED
Exchange Range Separation                   ... NOT USED
Finite Nucleus Model                        ... NOT USED
Auxiliary Coulomb fitting basis             ... AVAILABLE
   # of basis functions in Aux-J            ...   2196
   # of shells in Aux-J                     ...    844
   Maximum angular momentum in Aux-J        ...      3
Auxiliary J/K fitting basis                 ... AVAILABLE
   # of basis functions in Aux-JK           ...   2196
   # of shells in Aux-JK                    ...    844
   Maximum angular momentum in Aux-JK       ...      3
Auxiliary Correlation fitting basis         ... AVAILABLE
   # of basis functions in Aux-C            ...   2196
   # of shells in Aux-C                     ...    844
   Maximum angular momentum in Aux-C        ...      3
Auxiliary 'external' fitting basis          ... NOT available
Integral threshold                          ...     1.000000e-10
Primitive cut-off                           ...     1.000000e-11
Primitive pair pre-selection threshold      ...     1.000000e-11

Calculating pre-screening integrals         ... done (  0.0 sec) Dimension = 255
Calculating pre-screening integrals (ORCA)  ... done (  0.1 sec) Dimension = 159
Organizing shell pair data                  ... done (  0.1 sec)
Shell pair information
Total number of shell pairs                 ...     32640
Shell pairs after pre-screening             ...     16238
Total number of primitive shell pairs       ...     54396
Primitive shell pairs kept                  ...     22620
          la=0 lb=0:   7241 shell pairs
          la=1 lb=0:   5667 shell pairs
          la=1 lb=1:    989 shell pairs
          la=2 lb=0:   1662 shell pairs
          la=2 lb=1:    582 shell pairs
          la=2 lb=2:     97 shell pairs

Calculating one electron integrals          ... done (  0.0 sec)
Calculating RI/J V-Matrix + Cholesky decomp.... done (  0.4 sec)
Calculating RI/JK V-Matrix + Cholesky decomp... done (  0.3 sec)
Calculating RI/C V-Matrix + Cholesky decomp.... done (  0.3 sec)
Calculating Nuclear repulsion               ... done (  0.0 sec) ENN=    969.243257158093 Eh

SHARK setup successfully completed in   1.7 seconds

Maximum memory used throughout the entire GTOINT-calculation: 26.0 MB


           ************************************************************
           *        Program running with 16 parallel MPI-processes    *
           *              working on a common directory               *
           ************************************************************
-------------------------------------------------------------------------------
                                 ORCA SCF
-------------------------------------------------------------------------------

------------
SCF SETTINGS
------------
Hamiltonian:
 Density Functional     Method          .... DFT(GTOs)
 Exchange Functional    Exchange        .... B88
   X-Alpha parameter    XAlpha          ....  0.666667
   Becke's b parameter  XBeta           ....  0.004200
 Correlation Functional Correlation     .... LYP
 LDA part of GGA corr.  LDAOpt          .... VWN-5
 Gradients option       PostSCFGGA      .... off
 Hybrid DFT is turned on
   Fraction HF Exchange ScalHFX         ....  0.200000
   Scaling of DF-GGA-X  ScalDFX         ....  0.720000
   Scaling of DF-GGA-C  ScalDFC         ....  0.810000
   Scaling of DF-LDA-C  ScalLDAC        ....  1.000000
   Perturbative correction              ....  0.000000
   Density functional embedding theory  .... OFF
   NL short-range parameter             ....  4.800000
 RI-approximation to the Coulomb term is turned on
   Number of AuxJ basis functions       .... 2196
   RIJ-COSX (HFX calculated with COS-X)).... on


General Settings:
 Integral files         IntName         .... cc-pVDZ
 Hartree-Fock type      HFTyp           .... UHF
 Total Charge           Charge          ....    0
 Multiplicity           Mult            ....    2
 Number of Electrons    NEL             ....  117
 Basis Dimension        Dim             ....  329
 Nuclear Repulsion      ENuc            ....    969.2432571581 Eh

Convergence Acceleration:
 DIIS                   CNVDIIS         .... on
   Start iteration      DIISMaxIt       ....    12
   Startup error        DIISStart       ....  0.200000
   # of expansion vecs  DIISMaxEq       ....     5
   Bias factor          DIISBfac        ....   1.050
   Max. coefficient     DIISMaxC        ....  10.000
 Trust-Rad. Augm. Hess. CNVTRAH         .... auto
   Auto Start mean grad. ratio tolernc. ....  1.125000
   Auto Start start iteration           ....     1
   Auto Start num. interpolation iter.  ....    10
   Max. Number of Micro iterations      ....    16
   Max. Number of Macro iterations      .... Maxiter - #DIIS iter
   Number of Davidson start vectors     ....     2
   Converg. threshold I  (grad. norm)   ....   5.000e-05
   Converg. threshold II (energy diff.) ....   1.000e-06
   Grad. Scal. Fac. for Micro threshold ....   0.100
   Minimum threshold for Micro iter.    ....   0.010
   NR start threshold (gradient norm)   ....   0.001
   Initial trust radius                 ....   0.400
   Minimum AH scaling param. (alpha)    ....   1.000
   Maximum AH scaling param. (alpha)    .... 1000.000
   Orbital update algorithm             .... Taylor
   White noise on init. David. guess    .... on
   Maximum white noise                  ....   0.010
   Quad. conv. algorithm                .... NR
 SOSCF                  CNVSOSCF        .... off
 Level Shifting         CNVShift        .... on
   Level shift para.    LevelShift      ....    0.2500
   Turn off err/grad.   ShiftErr        ....    0.0010
 Zerner damping         CNVZerner       .... off
 Static damping         CNVDamp         .... on
   Fraction old density DampFac         ....    0.7000
   Max. Damping (<1)    DampMax         ....    0.9800
   Min. Damping (>=0)   DampMin         ....    0.0000
   Turn off err/grad.   DampErr         ....    0.1000
 Fernandez-Rico         CNVRico         .... off

SCF Procedure:
 Maximum # iterations   MaxIter         ....   125
 SCF integral mode      SCFMode         .... Direct
   Integral package                     .... SHARK and LIBINT hybrid scheme
 Reset frequency        DirectResetFreq ....    20
 Integral Threshold     Thresh          ....  1.000e-10 Eh
 Primitive CutOff       TCut            ....  1.000e-11 Eh

Convergence Tolerance:
 Convergence Check Mode ConvCheckMode   .... Total+1el-Energy
 Convergence forced     ConvForced      .... 0
 Energy Change          TolE            ....  1.000e-06 Eh
 1-El. energy change                    ....  1.000e-03 Eh
 DIIS Error             TolErr          ....  1.000e-06


Diagonalization of the overlap matrix:
Smallest eigenvalue                        ... 1.556e-04
Time for diagonalization                   ...    0.023 sec
Threshold for overlap eigenvalues          ... 1.000e-08
Number of eigenvalues below threshold      ... 0
Time for construction of square roots      ...    0.032 sec
Total time needed                          ...    0.056 sec

---------------------
INITIAL GUESS: MOREAD
---------------------
Guess MOs are being read from file: cc-pVDZ.ges
Input Geometry matches current geometry (good)
Input basis set matches current basis set (good)
MOs were renormalized
MOs were reorthogonalized (Cholesky)
                      ------------------
                      INITIAL GUESS DONE (   0.1 sec)
                      ------------------
-------------------
DFT GRID GENERATION
-------------------

General Integration Accuracy     IntAcc      ... 4.388
Radial Grid Type                 RadialGrid  ... OptM3 with GC (2021)
Angular Grid (max. ang.)         AngularGrid ... 4 (Lebedev-302)
Angular grid pruning method      GridPruning ... 4 (adaptive)
Weight generation scheme         WeightScheme... Becke
Basis function cutoff            BFCut       ... 1.0000e-10
Integration weight cutoff        WCut        ... 1.0000e-14
Angular grids for H and He will be reduced by one unit
Partially contracted basis set               ... off
Rotationally invariant grid construction     ... off

Total number of grid points                  ...   162768
Total number of batches                      ...     2562
Average number of points per batch           ...       63
Average number of grid points per atom       ...     4399
Time for grid setup =    0.831 sec

--------------------
COSX GRID GENERATION
--------------------

GRIDX 1
-------
General Integration Accuracy     IntAcc      ... 3.816
Radial Grid Type                 RadialGrid  ... OptM3 with GC (2021)
Angular Grid (max. ang.)         AngularGrid ... 1 (Lebedev-50)
Angular grid pruning method      GridPruning ... 4 (adaptive)
Weight generation scheme         WeightScheme... Becke
Basis function cutoff            BFCut       ... 1.0000e-10
Integration weight cutoff        WCut        ... 1.0000e-14
Angular grids for H and He will be reduced by one unit
Partially contracted basis set               ... on
Rotationally invariant grid construction     ... off

Total number of grid points                  ...    20778
Total number of batches                      ...      346
Average number of points per batch           ...       60
Average number of grid points per atom       ...      562
UseSFitting                                  ... on

GRIDX 2
-------
General Integration Accuracy     IntAcc      ... 4.020
Radial Grid Type                 RadialGrid  ... OptM3 with GC (2021)
Angular Grid (max. ang.)         AngularGrid ... 2 (Lebedev-110)
Angular grid pruning method      GridPruning ... 4 (adaptive)
Weight generation scheme         WeightScheme... Becke
Basis function cutoff            BFCut       ... 1.0000e-10
Integration weight cutoff        WCut        ... 1.0000e-14
Angular grids for H and He will be reduced by one unit
Partially contracted basis set               ... on
Rotationally invariant grid construction     ... off

Total number of grid points                  ...    43896
Total number of batches                      ...      706
Average number of points per batch           ...       62
Average number of grid points per atom       ...     1186
UseSFitting                                  ... on

GRIDX 3
-------
General Integration Accuracy     IntAcc      ... 4.338
Radial Grid Type                 RadialGrid  ... OptM3 with GC (2021)
Angular Grid (max. ang.)         AngularGrid ... 3 (Lebedev-194)
Angular grid pruning method      GridPruning ... 4 (adaptive)
Weight generation scheme         WeightScheme... Becke
Basis function cutoff            BFCut       ... 1.0000e-10
Integration weight cutoff        WCut        ... 1.0000e-14
Angular grids for H and He will be reduced by one unit
Partially contracted basis set               ... on
Rotationally invariant grid construction     ... off

Total number of grid points                  ...    95920
Total number of batches                      ...     1518
Average number of points per batch           ...       63
Average number of grid points per atom       ...     2592
UseSFitting                                  ... on

Time for X-Grid setup             =    1.511 sec

 re-compute Schwartz prescreening matrix in partically contracted basis (1) ...done (   0.120 sec)
--------------
SCF ITERATIONS
--------------
ITER       Energy         Delta-E        Max-DP      RMS-DP      [F,P]     Damp
               ***  Starting incremental Fock matrix formation  ***
  0   -621.8597396110   0.000000000000 0.00000995  0.00000011  0.0000118 0.7000
                 **** Energy Check signals convergence ****

               *****************************************************
               *                     SUCCESS                       *
               *           SCF CONVERGED AFTER   1 CYCLES          *
               *****************************************************

Old exchange energy                            =    -18.069034342 Eh
New exchange energy                            =    -18.069128880 Eh
Exchange energy change after final integration =     -0.000094538 Eh
Total energy after final integration           =   -621.859834089 Eh
Final COS-X integration done in                =     3.873 sec

----------------
TOTAL SCF ENERGY
----------------

Total Energy       :         -621.85983409 Eh          -16921.66637 eV

Components:
Nuclear Repulsion  :          969.24325716 Eh           26374.44988 eV
Electronic Energy  :        -1591.10309125 Eh          -43296.11624 eV
One Electron Energy:        -2760.69698702 Eh          -75122.38417 eV
Two Electron Energy:         1169.59389577 Eh           31826.26792 eV
Max COSX asymmetry :            0.00000043 Eh               0.00001 eV

Virial components:
Potential Energy   :        -1239.23860120 Eh          -33721.39670 eV
Kinetic Energy     :          617.37876711 Eh           16799.73033 eV
Virial Ratio       :            2.00725821


DFT components:
N(Alpha)           :       59.000108673105 electrons
N(Beta)            :       58.000102644598 electrons
N(Total)           :      117.000211317703 electrons
E(X)               :      -71.622422206237 Eh       
E(C)               :       -4.507465107907 Eh       
E(XC)              :      -76.129887314144 Eh       
DFET-embed. en.    :        0.000000000000 Eh       

---------------
SCF CONVERGENCE
---------------

  Last Energy change         ...    5.9748e-08  Tolerance :   1.0000e-06
  Last MAX-Density change    ...    2.8193e-06  Tolerance :   1.0000e-05
  Last RMS-Density change    ...    3.5909e-08  Tolerance :   1.0000e-06
  Last DIIS Error            ...    1.1498e-05  Tolerance :   1.0000e-06

             **** THE GBW FILE WAS UPDATED (cc-pVDZ.gbw) ****
             **** DENSITY cc-pVDZ.scfp WAS UPDATED ****
             **** ENERGY FILE WAS UPDATED (cc-pVDZ.en.tmp) ****
----------------------
UHF SPIN CONTAMINATION
----------------------

Warning: in a DFT calculation there is little theoretical justification to 
         calculate <S**2> as in Hartree-Fock theory. We will do it anyways
         but you should keep in mind that the values have only limited relevance

Expectation value of <S**2>     :     0.781592
Ideal value S*(S+1) for S=0.5   :     0.750000
Deviation                       :     0.031592

             **** THE GBW FILE WAS UPDATED (cc-pVDZ.gbw) ****
             **** DENSITY cc-pVDZ.scfp WAS UPDATED ****
----------------
ORBITAL ENERGIES
----------------
                 SPIN UP ORBITALS
  NO   OCC          E(Eh)            E(eV) 
   0   1.0000     -10.207365      -277.7565 
   1   1.0000     -10.199218      -277.5348 
   2   1.0000     -10.192068      -277.3403 
   3   1.0000     -10.191475      -277.3241 
   4   1.0000     -10.190775      -277.3051 
   5   1.0000     -10.189412      -277.2680 
   6   1.0000     -10.188397      -277.2404 
   7   1.0000     -10.187097      -277.2050 
   8   1.0000     -10.184320      -277.1294 
   9   1.0000     -10.184210      -277.1265 
  10   1.0000     -10.184006      -277.1209 
  11   1.0000     -10.182576      -277.0820 
  12   1.0000     -10.180746      -277.0322 
  13   1.0000     -10.180540      -277.0266 
  14   1.0000     -10.176979      -276.9297 
  15   1.0000     -10.175124      -276.8792 
  16   1.0000      -0.865766       -23.5587 
  17   1.0000      -0.814451       -22.1623 
  18   1.0000      -0.794871       -21.6296 
  19   1.0000      -0.780040       -21.2260 
  20   1.0000      -0.763613       -20.7790 
  21   1.0000      -0.730570       -19.8798 
  22   1.0000      -0.723534       -19.6884 
  23   1.0000      -0.696235       -18.9455 
  24   1.0000      -0.653555       -17.7841 
  25   1.0000      -0.622612       -16.9421 
  26   1.0000      -0.612900       -16.6779 
  27   1.0000      -0.588281       -16.0079 
  28   1.0000      -0.578680       -15.7467 
  29   1.0000      -0.559122       -15.2145 
  30   1.0000      -0.525796       -14.3076 
  31   1.0000      -0.494641       -13.4599 
  32   1.0000      -0.472585       -12.8597 
  33   1.0000      -0.469146       -12.7661 
  34   1.0000      -0.462239       -12.5782 
  35   1.0000      -0.461712       -12.5638 
  36   1.0000      -0.428535       -11.6610 
  37   1.0000      -0.426143       -11.5959 
  38   1.0000      -0.422494       -11.4967 
  39   1.0000      -0.419436       -11.4134 
  40   1.0000      -0.410239       -11.1632 
  41   1.0000      -0.395348       -10.7580 
  42   1.0000      -0.387701       -10.5499 
  43   1.0000      -0.375303       -10.2125 
  44   1.0000      -0.374354       -10.1867 
  45   1.0000      -0.362856        -9.8738 
  46   1.0000      -0.348029        -9.4703 
  47   1.0000      -0.347630        -9.4595 
  48   1.0000      -0.338191        -9.2026 
  49   1.0000      -0.331273        -9.0144 
  50   1.0000      -0.330498        -8.9933 
  51   1.0000      -0.324924        -8.8416 
  52   1.0000      -0.322444        -8.7742 
  53   1.0000      -0.321196        -8.7402 
  54   1.0000      -0.307957        -8.3799 
  55   1.0000      -0.271971        -7.4007 
  56   1.0000      -0.267903        -7.2900 
  57   1.0000      -0.236257        -6.4289 
  58   1.0000      -0.171298        -4.6613 
  59   0.0000      -0.031428        -0.8552 
  60   0.0000       0.015227         0.4143 
  61   0.0000       0.048177         1.3110 
  62   0.0000       0.063215         1.7202 
  63   0.0000       0.063828         1.7368 
  64   0.0000       0.077484         2.1085 
  65   0.0000       0.083979         2.2852 
  66   0.0000       0.088719         2.4142 
  67   0.0000       0.088946         2.4203 
  68   0.0000       0.094501         2.5715 
  69   0.0000       0.097154         2.6437 
  70   0.0000       0.098659         2.6846 
  71   0.0000       0.104387         2.8405 
  72   0.0000       0.112064         3.0494 
  73   0.0000       0.129640         3.5277 
  74   0.0000       0.132718         3.6114 
  75   0.0000       0.147214         4.0059 
  76   0.0000       0.149364         4.0644 
  77   0.0000       0.149555         4.0696 
  78   0.0000       0.160260         4.3609 
  79   0.0000       0.163140         4.4393 
  80   0.0000       0.168013         4.5719 
  81   0.0000       0.169632         4.6159 
  82   0.0000       0.172116         4.6835 
  83   0.0000       0.181120         4.9285 
  84   0.0000       0.191920         5.2224 
  85   0.0000       0.206288         5.6134 
  86   0.0000       0.213073         5.7980 
  87   0.0000       0.224660         6.1133 
  88   0.0000       0.229089         6.2338 
  89   0.0000       0.238925         6.5015 
  90   0.0000       0.255372         6.9490 
  91   0.0000       0.262459         7.1419 
  92   0.0000       0.283256         7.7078 
  93   0.0000       0.301098         8.1933 
  94   0.0000       0.319183         8.6854 
  95   0.0000       0.341709         9.2984 
  96   0.0000       0.346885         9.4392 
  97   0.0000       0.363689         9.8965 
  98   0.0000       0.368696        10.0327 
  99   0.0000       0.403104        10.9690 
 100   0.0000       0.411048        11.1852 
 101   0.0000       0.413229        11.2445 
 102   0.0000       0.413497        11.2518 
 103   0.0000       0.421528        11.4703 
 104   0.0000       0.431017        11.7286 
 105   0.0000       0.445455        12.1214 
 106   0.0000       0.454101        12.3567 
 107   0.0000       0.466115        12.6836 
 108   0.0000       0.466414        12.6918 
 109   0.0000       0.479931        13.0596 
 110   0.0000       0.482102        13.1187 
 111   0.0000       0.485893        13.2218 
 112   0.0000       0.492878        13.4119 
 113   0.0000       0.509099        13.8533 
 114   0.0000       0.513480        13.9725 
 115   0.0000       0.518686        14.1142 
 116   0.0000       0.522869        14.2280 
 117   0.0000       0.527855        14.3637 
 118   0.0000       0.535363        14.5680 
 119   0.0000       0.545526        14.8445 
 120   0.0000       0.554529        15.0895 
 121   0.0000       0.560533        15.2529 
 122   0.0000       0.569536        15.4979 
 123   0.0000       0.592324        16.1180 
 124   0.0000       0.595589        16.2068 
 125   0.0000       0.605607        16.4794 
 126   0.0000       0.616375        16.7724 
 127   0.0000       0.616639        16.7796 
 128   0.0000       0.620780        16.8923 
 129   0.0000       0.621330        16.9072 
 130   0.0000       0.640332        17.4243 
 131   0.0000       0.641101        17.4452 
 132   0.0000       0.644600        17.5405 
 133   0.0000       0.645188        17.5564 
 134   0.0000       0.652693        17.7607 
 135   0.0000       0.654630        17.8134 
 136   0.0000       0.658908        17.9298 
 137   0.0000       0.660697        17.9785 
 138   0.0000       0.662189        18.0191 
 139   0.0000       0.663572        18.0567 
 140   0.0000       0.668471        18.1900 
 141   0.0000       0.671935        18.2843 
 142   0.0000       0.683991        18.6123 
 143   0.0000       0.689072        18.7506 
 144   0.0000       0.690893        18.8001 
 145   0.0000       0.694828        18.9072 
 146   0.0000       0.696472        18.9520 
 147   0.0000       0.704892        19.1811 
 148   0.0000       0.711415        19.3586 
 149   0.0000       0.714243        19.4355 
 150   0.0000       0.729826        19.8596 
 151   0.0000       0.733419        19.9574 
 152   0.0000       0.733708        19.9652 
 153   0.0000       0.743249        20.2248 
 154   0.0000       0.747708        20.3462 
 155   0.0000       0.753350        20.4997 
 156   0.0000       0.764366        20.7995 
 157   0.0000       0.785412        21.3721 
 158   0.0000       0.814204        22.1556 
 159   0.0000       0.819505        22.2999 
 160   0.0000       0.832979        22.6665 
 161   0.0000       0.836975        22.7752 
 162   0.0000       0.842672        22.9303 
 163   0.0000       0.871849        23.7242 
 164   0.0000       0.888306        24.1720 
 165   0.0000       0.904932        24.6244 
 166   0.0000       0.920567        25.0499 
 167   0.0000       0.923887        25.1402 
 168   0.0000       0.941154        25.6101 
 169   0.0000       0.950768        25.8717 
 170   0.0000       0.958626        26.0855 
 171   0.0000       0.994584        27.0640 
 172   0.0000       0.995358        27.0851 
 173   0.0000       1.011755        27.5312 
 174   0.0000       1.018805        27.7231 
 175   0.0000       1.037862        28.2417 
 176   0.0000       1.040467        28.3125 
 177   0.0000       1.053607        28.6701 
 178   0.0000       1.061122        28.8746 
 179   0.0000       1.069122        29.0923 
 180   0.0000       1.082021        29.4433 
 181   0.0000       1.082960        29.4688 
 182   0.0000       1.134559        30.8729 
 183   0.0000       1.160591        31.5813 
 184   0.0000       1.186435        32.2845 
 185   0.0000       1.205835        32.8124 
 186   0.0000       1.209494        32.9120 
 187   0.0000       1.210899        32.9502 
 188   0.0000       1.218324        33.1523 
 189   0.0000       1.219258        33.1777 
 190   0.0000       1.224699        33.3258 
 191   0.0000       1.227143        33.3923 
 192   0.0000       1.233633        33.5689 
 193   0.0000       1.253632        34.1130 
 194   0.0000       1.286205        34.9994 
 195   0.0000       1.294993        35.2385 
 196   0.0000       1.311794        35.6957 
 197   0.0000       1.323366        36.0106 
 198   0.0000       1.340470        36.4760 
 199   0.0000       1.342387        36.5282 
 200   0.0000       1.346222        36.6326 
 201   0.0000       1.374538        37.4031 
 202   0.0000       1.379327        37.5334 
 203   0.0000       1.392821        37.9006 
 204   0.0000       1.414660        38.4949 
 205   0.0000       1.425343        38.7855 
 206   0.0000       1.426921        38.8285 
 207   0.0000       1.427089        38.8331 
 208   0.0000       1.433821        39.0163 
 209   0.0000       1.445021        39.3210 
 210   0.0000       1.465437        39.8766 
 211   0.0000       1.469059        39.9751 
 212   0.0000       1.470776        40.0218 
 213   0.0000       1.492171        40.6040 
 214   0.0000       1.500121        40.8204 
 215   0.0000       1.523189        41.4481 
 216   0.0000       1.531671        41.6789 
 217   0.0000       1.546172        42.0735 
 218   0.0000       1.572969        42.8027 
 219   0.0000       1.579103        42.9696 
 220   0.0000       1.591946        43.3191 
 221   0.0000       1.596076        43.4314 
 222   0.0000       1.602792        43.6142 
 223   0.0000       1.616921        43.9987 
 224   0.0000       1.623371        44.1742 
 225   0.0000       1.627129        44.2764 
 226   0.0000       1.630671        44.3728 
 227   0.0000       1.632832        44.4316 
 228   0.0000       1.635470        44.5034 
 229   0.0000       1.640197        44.6320 
 230   0.0000       1.645682        44.7813 
 231   0.0000       1.653051        44.9818 
 232   0.0000       1.658313        45.1250 
 233   0.0000       1.671333        45.4793 
 234   0.0000       1.678606        45.6772 
 235   0.0000       1.684062        45.8256 
 236   0.0000       1.686248        45.8851 
 237   0.0000       1.693764        46.0897 
 238   0.0000       1.696101        46.1533 
 239   0.0000       1.702144        46.3177 
 240   0.0000       1.704660        46.3862 
 241   0.0000       1.709219        46.5102 
 242   0.0000       1.713713        46.6325 
 243   0.0000       1.724195        46.9177 
 244   0.0000       1.732679        47.1486 
 245   0.0000       1.742094        47.4048 
 246   0.0000       1.752013        47.6747 
 247   0.0000       1.755766        47.7768 
 248   0.0000       1.760236        47.8984 
 249   0.0000       1.776469        48.3402 
 250   0.0000       1.780730        48.4561 
 251   0.0000       1.791608        48.7521 
 252   0.0000       1.797269        48.9062 
 253   0.0000       1.798354        48.9357 
 254   0.0000       1.817395        49.4538 
 255   0.0000       1.820914        49.5496 
 256   0.0000       1.824353        49.6432 
 257   0.0000       1.837446        49.9994 
 258   0.0000       1.859980        50.6126 
 259   0.0000       1.878596        51.1192 
 260   0.0000       1.878891        51.1272 
 261   0.0000       1.894236        51.5448 
 262   0.0000       1.910691        51.9925 
 263   0.0000       1.920746        52.2661 
 264   0.0000       1.929151        52.4949 
 265   0.0000       1.938105        52.7385 
 266   0.0000       1.941621        52.8342 
 267   0.0000       1.950215        53.0680 
 268   0.0000       1.971149        53.6377 
 269   0.0000       1.997098        54.3438 
 270   0.0000       2.001725        54.4697 
 271   0.0000       2.011242        54.7287 
 272   0.0000       2.030784        55.2604 
 273   0.0000       2.043774        55.6139 
 274   0.0000       2.063437        56.1490 
 275   0.0000       2.076871        56.5145 
 276   0.0000       2.090494        56.8852 
 277   0.0000       2.091389        56.9096 
 278   0.0000       2.116035        57.5802 
 279   0.0000       2.135858        58.1196 
 280   0.0000       2.154012        58.6137 
 281   0.0000       2.158847        58.7452 
 282   0.0000       2.170299        59.0568 
 283   0.0000       2.180400        59.3317 
 284   0.0000       2.184671        59.4479 
 285   0.0000       2.202617        59.9363 
 286   0.0000       2.207767        60.0764 
 287   0.0000       2.221646        60.4541 
 288   0.0000       2.224399        60.5290 
 289   0.0000       2.227419        60.6112 
 290   0.0000       2.263922        61.6045 
 291   0.0000       2.279370        62.0248 
 292   0.0000       2.288301        62.2678 
 293   0.0000       2.294962        62.4491 
 294   0.0000       2.298922        62.5568 
 295   0.0000       2.303300        62.6760 
 296   0.0000       2.321672        63.1759 
 297   0.0000       2.334267        63.5186 
 298   0.0000       2.353019        64.0289 
 299   0.0000       2.355753        64.1033 
 300   0.0000       2.405973        65.4698 
 301   0.0000       2.410466        65.5921 
 302   0.0000       2.412625        65.6509 
 303   0.0000       2.413505        65.6748 
 304   0.0000       2.413592        65.6772 
 305   0.0000       2.426981        66.0415 
 306   0.0000       2.446125        66.5624 
 307   0.0000       2.466150        67.1073 
 308   0.0000       2.474989        67.3479 
 309   0.0000       2.507103        68.2218 
 310   0.0000       2.536132        69.0117 
 311   0.0000       2.536843        69.0310 
 312   0.0000       2.557433        69.5913 
 313   0.0000       2.596651        70.6585 
 314   0.0000       2.597187        70.6730 
 315   0.0000       2.626781        71.4784 
 316   0.0000       2.641705        71.8844 
 317   0.0000       2.680599        72.9428 
 318   0.0000       2.688881        73.1682 
 319   0.0000       2.714557        73.8668 
 320   0.0000       2.722970        74.0958 
 321   0.0000       2.742091        74.6161 
 322   0.0000       2.771291        75.4107 
 323   0.0000       2.820258        76.7431 
 324   0.0000       2.837318        77.2073 
 325   0.0000       2.930842        79.7523 
 326   0.0000       2.989677        81.3532 
 327   0.0000       3.196304        86.9759 
 328   0.0000       3.434665        93.4620 

                 SPIN DOWN ORBITALS
  NO   OCC          E(Eh)            E(eV) 
   0   1.0000     -10.208889      -277.7980 
   1   1.0000     -10.195687      -277.4388 
   2   1.0000     -10.194384      -277.4033 
   3   1.0000     -10.188030      -277.2304 
   4   1.0000     -10.187818      -277.2246 
   5   1.0000     -10.187644      -277.2199 
   6   1.0000     -10.186331      -277.1842 
   7   1.0000     -10.185742      -277.1681 
   8   1.0000     -10.184420      -277.1322 
   9   1.0000     -10.183963      -277.1197 
  10   1.0000     -10.183150      -277.0976 
  11   1.0000     -10.181037      -277.0401 
  12   1.0000     -10.180746      -277.0322 
  13   1.0000     -10.180538      -277.0265 
  14   1.0000     -10.176987      -276.9299 
  15   1.0000     -10.175126      -276.8792 
  16   1.0000      -0.862269       -23.4635 
  17   1.0000      -0.808580       -22.0026 
  18   1.0000      -0.793272       -21.5860 
  19   1.0000      -0.779335       -21.2068 
  20   1.0000      -0.761434       -20.7197 
  21   1.0000      -0.726449       -19.7677 
  22   1.0000      -0.721465       -19.6321 
  23   1.0000      -0.693930       -18.8828 
  24   1.0000      -0.650402       -17.6983 
  25   1.0000      -0.619938       -16.8694 
  26   1.0000      -0.607272       -16.5247 
  27   1.0000      -0.587176       -15.9779 
  28   1.0000      -0.576484       -15.6869 
  29   1.0000      -0.556465       -15.1422 
  30   1.0000      -0.524097       -14.2614 
  31   1.0000      -0.492237       -13.3944 
  32   1.0000      -0.470472       -12.8022 
  33   1.0000      -0.468326       -12.7438 
  34   1.0000      -0.460404       -12.5282 
  35   1.0000      -0.458222       -12.4689 
  36   1.0000      -0.426238       -11.5985 
  37   1.0000      -0.424994       -11.5647 
  38   1.0000      -0.421523       -11.4702 
  39   1.0000      -0.416939       -11.3455 
  40   1.0000      -0.409741       -11.1496 
  41   1.0000      -0.387497       -10.5443 
  42   1.0000      -0.386442       -10.5156 
  43   1.0000      -0.372224       -10.1287 
  44   1.0000      -0.370757       -10.0888 
  45   1.0000      -0.361839        -9.8461 
  46   1.0000      -0.346599        -9.4314 
  47   1.0000      -0.344980        -9.3874 
  48   1.0000      -0.336103        -9.1458 
  49   1.0000      -0.330625        -8.9968 
  50   1.0000      -0.328508        -8.9392 
  51   1.0000      -0.324419        -8.8279 
  52   1.0000      -0.321864        -8.7584 
  53   1.0000      -0.320285        -8.7154 
  54   1.0000      -0.305559        -8.3147 
  55   1.0000      -0.271885        -7.3984 
  56   1.0000      -0.252768        -6.8782 
  57   1.0000      -0.228031        -6.2050 
  58   0.0000      -0.074571        -2.0292 
  59   0.0000      -0.022335        -0.6078 
  60   0.0000       0.033049         0.8993 
  61   0.0000       0.048602         1.3225 
  62   0.0000       0.063804         1.7362 
  63   0.0000       0.064006         1.7417 
  64   0.0000       0.078738         2.1426 
  65   0.0000       0.084702         2.3048 
  66   0.0000       0.089460         2.4343 
  67   0.0000       0.092032         2.5043 
  68   0.0000       0.094406         2.5689 
  69   0.0000       0.098173         2.6714 
  70   0.0000       0.099064         2.6957 
  71   0.0000       0.105161         2.8616 
  72   0.0000       0.112567         3.0631 
  73   0.0000       0.130471         3.5503 
  74   0.0000       0.133166         3.6236 
  75   0.0000       0.147434         4.0119 
  76   0.0000       0.150604         4.0981 
  77   0.0000       0.151185         4.1140 
  78   0.0000       0.160892         4.3781 
  79   0.0000       0.163378         4.4457 
  80   0.0000       0.169053         4.6002 
  81   0.0000       0.171300         4.6613 
  82   0.0000       0.175762         4.7827 
  83   0.0000       0.181434         4.9371 
  84   0.0000       0.196162         5.3378 
  85   0.0000       0.207337         5.6419 
  86   0.0000       0.213729         5.8159 
  87   0.0000       0.224876         6.1192 
  88   0.0000       0.232051         6.3144 
  89   0.0000       0.240612         6.5474 
  90   0.0000       0.255956         6.9649 
  91   0.0000       0.265565         7.2264 
  92   0.0000       0.283434         7.7126 
  93   0.0000       0.303518         8.2592 
  94   0.0000       0.319518         8.6945 
  95   0.0000       0.343380         9.3439 
  96   0.0000       0.348378         9.4798 
  97   0.0000       0.364958         9.9310 
  98   0.0000       0.370394        10.0789 
  99   0.0000       0.404731        11.0133 
 100   0.0000       0.411279        11.1915 
 101   0.0000       0.413649        11.2560 
 102   0.0000       0.414022        11.2661 
 103   0.0000       0.422095        11.4858 
 104   0.0000       0.434622        11.8267 
 105   0.0000       0.457011        12.4359 
 106   0.0000       0.461217        12.5504 
 107   0.0000       0.466906        12.7052 
 108   0.0000       0.470301        12.7975 
 109   0.0000       0.482381        13.1262 
 110   0.0000       0.488551        13.2941 
 111   0.0000       0.491064        13.3625 
 112   0.0000       0.495578        13.4854 
 113   0.0000       0.510513        13.8918 
 114   0.0000       0.514514        14.0006 
 115   0.0000       0.523797        14.2532 
 116   0.0000       0.525342        14.2953 
 117   0.0000       0.538114        14.6428 
 118   0.0000       0.539028        14.6677 
 119   0.0000       0.546379        14.8677 
 120   0.0000       0.555733        15.1223 
 121   0.0000       0.571194        15.5430 
 122   0.0000       0.573791        15.6136 
 123   0.0000       0.594208        16.1692 
 124   0.0000       0.597094        16.2478 
 125   0.0000       0.606494        16.5035 
 126   0.0000       0.617205        16.7950 
 127   0.0000       0.618490        16.8300 
 128   0.0000       0.621791        16.9198 
 129   0.0000       0.626504        17.0480 
 130   0.0000       0.640806        17.4372 
 131   0.0000       0.641243        17.4491 
 132   0.0000       0.645356        17.5610 
 133   0.0000       0.648130        17.6365 
 134   0.0000       0.653427        17.7807 
 135   0.0000       0.656127        17.8541 
 136   0.0000       0.659248        17.9390 
 137   0.0000       0.661521        18.0009 
 138   0.0000       0.662479        18.0270 
 139   0.0000       0.666556        18.1379 
 140   0.0000       0.670142        18.2355 
 141   0.0000       0.673402        18.3242 
 142   0.0000       0.685639        18.6572 
 143   0.0000       0.689476        18.7616 
 144   0.0000       0.691817        18.8253 
 145   0.0000       0.695922        18.9370 
 146   0.0000       0.697572        18.9819 
 147   0.0000       0.705820        19.2063 
 148   0.0000       0.712778        19.3957 
 149   0.0000       0.716513        19.4973 
 150   0.0000       0.730598        19.8806 
 151   0.0000       0.734903        19.9977 
 152   0.0000       0.738764        20.1028 
 153   0.0000       0.746473        20.3126 
 154   0.0000       0.749435        20.3931 
 155   0.0000       0.755335        20.5537 
 156   0.0000       0.765291        20.8246 
 157   0.0000       0.788462        21.4551 
 158   0.0000       0.815352        22.1869 
 159   0.0000       0.821716        22.3600 
 160   0.0000       0.835185        22.7265 
 161   0.0000       0.837877        22.7998 
 162   0.0000       0.843773        22.9602 
 163   0.0000       0.875249        23.8167 
 164   0.0000       0.892182        24.2775 
 165   0.0000       0.905779        24.6475 
 166   0.0000       0.926881        25.2217 
 167   0.0000       0.928016        25.2526 
 168   0.0000       0.951478        25.8910 
 169   0.0000       0.952517        25.9193 
 170   0.0000       0.961384        26.1606 
 171   0.0000       0.995193        27.0806 
 172   0.0000       0.997598        27.1460 
 173   0.0000       1.013710        27.5844 
 174   0.0000       1.022886        27.8341 
 175   0.0000       1.040053        28.3013 
 176   0.0000       1.041323        28.3358 
 177   0.0000       1.058377        28.7999 
 178   0.0000       1.062428        28.9101 
 179   0.0000       1.069046        29.0902 
 180   0.0000       1.085304        29.5326 
 181   0.0000       1.085510        29.5382 
 182   0.0000       1.135488        30.8982 
 183   0.0000       1.160394        31.5759 
 184   0.0000       1.187530        32.3143 
 185   0.0000       1.206170        32.8216 
 186   0.0000       1.210089        32.9282 
 187   0.0000       1.211819        32.9753 
 188   0.0000       1.218885        33.1675 
 189   0.0000       1.220576        33.2136 
 190   0.0000       1.225067        33.3358 
 191   0.0000       1.228092        33.4181 
 192   0.0000       1.236731        33.6532 
 193   0.0000       1.254345        34.1325 
 194   0.0000       1.287397        35.0319 
 195   0.0000       1.296948        35.2917 
 196   0.0000       1.312612        35.7180 
 197   0.0000       1.328014        36.1371 
 198   0.0000       1.341692        36.5093 
 199   0.0000       1.343219        36.5509 
 200   0.0000       1.359058        36.9818 
 201   0.0000       1.376680        37.4614 
 202   0.0000       1.379949        37.5503 
 203   0.0000       1.397787        38.0357 
 204   0.0000       1.416428        38.5430 
 205   0.0000       1.425445        38.7883 
 206   0.0000       1.426943        38.8291 
 207   0.0000       1.428538        38.8725 
 208   0.0000       1.442832        39.2614 
 209   0.0000       1.446307        39.3560 
 210   0.0000       1.468112        39.9494 
 211   0.0000       1.469725        39.9932 
 212   0.0000       1.473469        40.0951 
 213   0.0000       1.495701        40.7001 
 214   0.0000       1.501911        40.8691 
 215   0.0000       1.525477        41.5104 
 216   0.0000       1.533751        41.7355 
 217   0.0000       1.550433        42.1894 
 218   0.0000       1.574819        42.8530 
 219   0.0000       1.581840        43.0441 
 220   0.0000       1.592892        43.3448 
 221   0.0000       1.598473        43.4967 
 222   0.0000       1.603742        43.6400 
 223   0.0000       1.617815        44.0230 
 224   0.0000       1.623860        44.1875 
 225   0.0000       1.629181        44.3323 
 226   0.0000       1.631056        44.3833 
 227   0.0000       1.634656        44.4812 
 228   0.0000       1.637062        44.5467 
 229   0.0000       1.640724        44.6464 
 230   0.0000       1.646258        44.7970 
 231   0.0000       1.653975        45.0069 
 232   0.0000       1.659379        45.1540 
 233   0.0000       1.674379        45.5622 
 234   0.0000       1.679386        45.6984 
 235   0.0000       1.684784        45.8453 
 236   0.0000       1.686522        45.8926 
 237   0.0000       1.696151        46.1546 
 238   0.0000       1.696553        46.1656 
 239   0.0000       1.703318        46.3496 
 240   0.0000       1.705869        46.4190 
 241   0.0000       1.711414        46.5699 
 242   0.0000       1.714968        46.6666 
 243   0.0000       1.724984        46.9392 
 244   0.0000       1.733631        47.1745 
 245   0.0000       1.746328        47.5200 
 246   0.0000       1.754660        47.7467 
 247   0.0000       1.756995        47.8103 
 248   0.0000       1.760685        47.9107 
 249   0.0000       1.778291        48.3898 
 250   0.0000       1.783625        48.5349 
 251   0.0000       1.793554        48.8051 
 252   0.0000       1.799451        48.9656 
 253   0.0000       1.800399        48.9914 
 254   0.0000       1.820267        49.5320 
 255   0.0000       1.823214        49.6122 
 256   0.0000       1.826596        49.7042 
 257   0.0000       1.840086        50.0713 
 258   0.0000       1.860867        50.6368 
 259   0.0000       1.879617        51.1470 
 260   0.0000       1.888191        51.3803 
 261   0.0000       1.894479        51.5514 
 262   0.0000       1.911758        52.0216 
 263   0.0000       1.924548        52.3696 
 264   0.0000       1.930666        52.5361 
 265   0.0000       1.938207        52.7413 
 266   0.0000       1.944543        52.9137 
 267   0.0000       1.951577        53.1051 
 268   0.0000       1.973208        53.6937 
 269   0.0000       2.002116        54.4804 
 270   0.0000       2.004774        54.5527 
 271   0.0000       2.011945        54.7478 
 272   0.0000       2.035497        55.3887 
 273   0.0000       2.047590        55.7177 
 274   0.0000       2.064604        56.1807 
 275   0.0000       2.077831        56.5407 
 276   0.0000       2.091008        56.8992 
 277   0.0000       2.095471        57.0207 
 278   0.0000       2.119583        57.6768 
 279   0.0000       2.139179        58.2100 
 280   0.0000       2.156754        58.6882 
 281   0.0000       2.162116        58.8342 
 282   0.0000       2.174693        59.1764 
 283   0.0000       2.181192        59.3532 
 284   0.0000       2.188515        59.5525 
 285   0.0000       2.203191        59.9519 
 286   0.0000       2.210472        60.1500 
 287   0.0000       2.223956        60.5169 
 288   0.0000       2.225240        60.5519 
 289   0.0000       2.229228        60.6604 
 290   0.0000       2.264517        61.6206 
 291   0.0000       2.282444        62.1085 
 292   0.0000       2.289185        62.2919 
 293   0.0000       2.295865        62.4737 
 294   0.0000       2.300820        62.6085 
 295   0.0000       2.306805        62.7714 
 296   0.0000       2.321889        63.1818 
 297   0.0000       2.335744        63.5588 
 298   0.0000       2.356645        64.1276 
 299   0.0000       2.358155        64.1687 
 300   0.0000       2.407027        65.4985 
 301   0.0000       2.411467        65.6194 
 302   0.0000       2.413040        65.6621 
 303   0.0000       2.414204        65.6938 
 304   0.0000       2.414807        65.7102 
 305   0.0000       2.428800        66.0910 
 306   0.0000       2.447240        66.5928 
 307   0.0000       2.468239        67.1642 
 308   0.0000       2.475693        67.3670 
 309   0.0000       2.508043        68.2473 
 310   0.0000       2.536823        69.0305 
 311   0.0000       2.538033        69.0634 
 312   0.0000       2.558419        69.6181 
 313   0.0000       2.597401        70.6789 
 314   0.0000       2.597956        70.6940 
 315   0.0000       2.628056        71.5130 
 316   0.0000       2.643145        71.9236 
 317   0.0000       2.682594        72.9971 
 318   0.0000       2.690234        73.2050 
 319   0.0000       2.714827        73.8742 
 320   0.0000       2.723533        74.1111 
 321   0.0000       2.743248        74.6476 
 322   0.0000       2.772592        75.4461 
 323   0.0000       2.821486        76.7765 
 324   0.0000       2.838764        77.2467 
 325   0.0000       2.931280        79.7642 
 326   0.0000       2.992468        81.4292 
 327   0.0000       3.195759        86.9610 
 328   0.0000       3.436399        93.5092 

                    ********************************
                    * MULLIKEN POPULATION ANALYSIS *
                    ********************************

--------------------------------------------
MULLIKEN ATOMIC CHARGES AND SPIN POPULATIONS
--------------------------------------------
   0 C :    0.619807    0.026995
   1 C :    0.027334    0.218132
   2 C :    0.084697   -0.160655
   3 C :   -0.003452    0.222956
   4 C :   -0.042940   -0.104226
   5 C :   -0.085416    0.241147
   6 C :    0.026663   -0.113504
   7 H :   -0.052864   -0.009485
   8 H :   -0.043194    0.004241
   9 C :   -0.073402    0.737412
  10 H :   -0.038020   -0.032296
  11 C :    0.029236   -0.050522
  12 H :    0.027962    0.033379
  13 H :    0.028026    0.033275
  14 C :   -0.040619    0.002300
  15 H :    0.011598    0.000545
  16 H :    0.011590    0.000533
  17 C :    0.003456   -0.000200
  18 H :    0.017860    0.000165
  19 H :    0.017884    0.000165
  20 C :    0.043007   -0.019261
  21 H :    0.031044    0.010467
  22 H :    0.030910    0.010216
  23 C :   -0.035072    0.000876
  24 H :    0.014177    0.000171
  25 H :    0.014390    0.000150
  26 C :   -0.025294    0.000018
  27 H :    0.006030    0.000054
  28 H :    0.006041    0.000055
  29 C :    0.002952   -0.000083
  30 H :    0.016501    0.000024
  31 H :    0.016524    0.000023
  32 C :   -0.593751   -0.045107
  33 H :   -0.030717    0.001784
  34 H :    0.013196   -0.000212
  35 H :    0.012657   -0.000006
  36 H :   -0.048797   -0.009526
Sum of atomic charges         :   -0.0000000
Sum of atomic spin populations:    1.0000000

-----------------------------------------------------
MULLIKEN REDUCED ORBITAL CHARGES AND SPIN POPULATIONS
-----------------------------------------------------
CHARGE
  0 C s       :     3.121753  s :     3.121753
      pz      :     0.960589  p :     2.203823
      px      :     0.310103
      py      :     0.933131
      dz2     :     0.003540  d :     0.054617
      dxz     :     0.021527
      dyz     :     0.000195
      dx2y2   :     0.009139
      dxy     :     0.020216
  1 C s       :     3.152975  s :     3.152975
      pz      :     0.978358  p :     2.754645
      px      :     0.817509
      py      :     0.958778
      dz2     :     0.003121  d :     0.065046
      dxz     :     0.003642
      dyz     :     0.013310
      dx2y2   :     0.026521
      dxy     :     0.018453
  2 C s       :     3.097174  s :     3.097174
      pz      :     0.954358  p :     2.732510
      px      :     0.950746
      py      :     0.827406
      dz2     :     0.004611  d :     0.085619
      dxz     :     0.012729
      dyz     :     0.014081
      dx2y2   :     0.027113
      dxy     :     0.027085
  3 C s       :     3.216027  s :     3.216027
      pz      :     0.988252  p :     2.723780
      px      :     0.894560
      py      :     0.840967
      dz2     :     0.003379  d :     0.063646
      dxz     :     0.010238
      dyz     :     0.006903
      dx2y2   :     0.019131
      dxy     :     0.023995
  4 C s       :     3.220525  s :     3.220525
      pz      :     1.001433  p :     2.734482
      px      :     0.814088
      py      :     0.918961
      dz2     :     0.004703  d :     0.087933
      dxz     :     0.012315
      dyz     :     0.013948
      dx2y2   :     0.029924
      dxy     :     0.027043
  5 C s       :     3.173704  s :     3.173704
      pz      :     0.955794  p :     2.828305
      px      :     0.938067
      py      :     0.934444
      dz2     :     0.004701  d :     0.083407
      dxz     :     0.014083
      dyz     :     0.012176
      dx2y2   :     0.024555
      dxy     :     0.027892
  6 C s       :     3.128074  s :     3.128074
      pz      :     0.996551  p :     2.780190
      px      :     0.951738
      py      :     0.831901
      dz2     :     0.003039  d :     0.065073
      dxz     :     0.010733
      dyz     :     0.006633
      dx2y2   :     0.020061
      dxy     :     0.024608
  7 H s       :     1.024699  s :     1.024699
      pz      :     0.006264  p :     0.028165
      px      :     0.008519
      py      :     0.013382
  8 H s       :     1.014550  s :     1.014550
      pz      :     0.006197  p :     0.028644
      px      :     0.008340
      py      :     0.014107
  9 C s       :     3.220167  s :     3.220167
      pz      :     0.995777  p :     2.793785
      px      :     0.884403
      py      :     0.913605
[...]
 A(DIA)         -0.0001               0.0002               0.0001    A(PC) =   0.0001
             ----------           ----------           ----------
 A(Tot)          2.0077               2.8399               4.2850    A(iso)=    3.0442
 Orientation: 
  X           0.9978963           -0.0252888           -0.0596949
  Y          -0.0595694            0.0056873           -0.9982080
  Z           0.0255830            0.9996640            0.0041689

Notes:  (1) The A matrix conforms to the "SAI" spin Hamiltonian convention.
        (2) Tensor is right-handed.

 -----------------------------------------------------------
 Nucleus  34H : A:ISTP=    1 I=  0.5 P=533.5514 MHz/au**3
                Q:ISTP=    2 I=  1.0 Q=  0.0029 barn     
 -----------------------------------------------------------
 Solving for nuclear perturbation:
Forming RHS of the CP-SCF equations         ... 
Calc. nucleus orbit integrals (SHARK)       ... done

------------------------------------------------------------------------------
                           ORCA CP-SCF CALCULATION
------------------------------------------------------------------------------

Input orbitals are from        ... cc-pVDZ.gbw
Input Perturbation             ... cc-pVDZ.pin.tmp
Wavefunction output            ... cc-pVDZ.pout.tmp
Perturbation mode              ... Imaginary perturbation
Solver                         ... POPLE
Max. number of iterations      ... 64
Convergence tolerance          ... 1.000e-03
Integral handling              ... Direct
DFT GridXC                     ... 1
COSX GridX                     ... 1
COSX IntAccX                   ... 3.067
COSX Algorithm                 ... Auto
Number of perturbations        ... 3
Number of operators            ... 2
Orbital ranges used for CP-SCF:
 Operator 0:  Orbitals   0... 58  to  59...328
 Operator 1:  Orbitals   0... 57  to  58...328
Variables per perturbation     ... 31648
DFT calculation                         ... on
XC functional terms                     ... off
Hybrid DFT                              ... on
   Exchange mixing (SCF)                ...  0.200
   Exchange mixing (CP-SCF)             ...  0.200
   GGA exch. scaling(SCF)               ...  0.720
   GGA exch. scaling (CP-SCF)           ...  0.720
   GGA corr. scaling (SCF)              ...  0.810
   GGA corr. scaling (CP-SCF)           ...  0.810

CP-SCF GRID
-----------

General Integration Accuracy     IntAcc      ... 3.467
Radial Grid Type                 RadialGrid  ... OptM3 with GC (2021)
Angular Grid (max. ang.)         AngularGrid ... 1 (Lebedev-50)
Angular grid pruning method      GridPruning ... 4 (adaptive)
Weight generation scheme         WeightScheme... Becke
Basis function cutoff            BFCut       ... 1.0000e-10
Integration weight cutoff        WCut        ... 1.0000e-14
Angular grids for H and He will be reduced by one unit
Partially contracted basis set               ... off
Rotationally invariant grid construction     ... off

Total number of grid points                  ...    22945
Total number of batches                      ...      374
Average number of points per batch           ...       61
Average number of grid points per atom       ...      620

CP-SCF GRIDX
------------

General Integration Accuracy     IntAcc      ... 3.067
Radial Grid Type                 RadialGrid  ... OptM3 with GC (2021)
Angular Grid (max. ang.)         AngularGrid ... 1 (Lebedev-50)
Angular grid pruning method      GridPruning ... 4 (adaptive)
Weight generation scheme         WeightScheme... Becke
Basis function cutoff            BFCut       ... 1.0000e-10
Integration weight cutoff        WCut        ... 1.0000e-14
Angular grids for H and He will be reduced by one unit
Partially contracted basis set               ... on
Rotationally invariant grid construction     ... off

Total number of grid points                  ...    10826
Total number of batches                      ...      191
Average number of points per batch           ...       56
Average number of grid points per atom       ...      293

Memory available               ... 916.1 MB
Memory needed per perturbation ...   6.9 MB
Perturbations treated per batch... 3
Number of batches              ... 1
     CP-SCF ITERATION   0:   3.6473e-02 (   0.9 sec   0/  3 done)
     CP-SCF ITERATION   1:   5.8043e-04 (   0.9 sec   3/  3 done)
                    *** THE CP-SCF HAS CONVERGED ***

Forming final perturbed densities           ... done
Transforming perturbed density to AO basis  ... done

 Raw HFC matrix (all values in MHz): 
 -----------------------------------
                -0.7967               0.2879              -0.0002
                 0.2879               0.7448               0.0003
                -0.0002               0.0003              -0.8196

 A(FC)          -0.2906              -0.2906              -0.2906
 A(SD)           1.0869              -0.5289              -0.5580
 A(ORB+DIA)      0.0005              -0.0001              -0.0001    A(PC) =   0.0001
 A(ORB)          0.0004               0.0000              -0.0001    A(PC) =   0.0001
 A(DIA)          0.0001              -0.0001              -0.0000    A(PC) =  -0.0000
             ----------           ----------           ----------
 A(Tot)          0.7968              -0.8196              -0.8487    A(iso)=   -0.2905
 Orientation: 
  X           0.1777896            0.0072743           -0.9840416
  Y           0.9840685           -0.0011533            0.1777860
  Z           0.0001584           -0.9999729           -0.0073634

Notes:  (1) The A matrix conforms to the "SAI" spin Hamiltonian convention.
        (2) Tensor is right-handed.

 -----------------------------------------------------------
 Nucleus  35H : A:ISTP=    1 I=  0.5 P=533.5514 MHz/au**3
                Q:ISTP=    2 I=  1.0 Q=  0.0029 barn     
 -----------------------------------------------------------
 Solving for nuclear perturbation:
Forming RHS of the CP-SCF equations         ... 
Calc. nucleus orbit integrals (SHARK)       ... done

------------------------------------------------------------------------------
                           ORCA CP-SCF CALCULATION
------------------------------------------------------------------------------

Input orbitals are from        ... cc-pVDZ.gbw
Input Perturbation             ... cc-pVDZ.pin.tmp
Wavefunction output            ... cc-pVDZ.pout.tmp
Perturbation mode              ... Imaginary perturbation
Solver                         ... POPLE
Max. number of iterations      ... 64
Convergence tolerance          ... 1.000e-03
Integral handling              ... Direct
DFT GridXC                     ... 1
COSX GridX                     ... 1
COSX IntAccX                   ... 3.067
COSX Algorithm                 ... Auto
Number of perturbations        ... 3
Number of operators            ... 2
Orbital ranges used for CP-SCF:
 Operator 0:  Orbitals   0... 58  to  59...328
 Operator 1:  Orbitals   0... 57  to  58...328
Variables per perturbation     ... 31648
DFT calculation                         ... on
XC functional terms                     ... off
Hybrid DFT                              ... on
   Exchange mixing (SCF)                ...  0.200
   Exchange mixing (CP-SCF)             ...  0.200
   GGA exch. scaling(SCF)               ...  0.720
   GGA exch. scaling (CP-SCF)           ...  0.720
   GGA corr. scaling (SCF)              ...  0.810
   GGA corr. scaling (CP-SCF)           ...  0.810

CP-SCF GRID
-----------

General Integration Accuracy     IntAcc      ... 3.467
Radial Grid Type                 RadialGrid  ... OptM3 with GC (2021)
Angular Grid (max. ang.)         AngularGrid ... 1 (Lebedev-50)
Angular grid pruning method      GridPruning ... 4 (adaptive)
Weight generation scheme         WeightScheme... Becke
Basis function cutoff            BFCut       ... 1.0000e-10
Integration weight cutoff        WCut        ... 1.0000e-14
Angular grids for H and He will be reduced by one unit
Partially contracted basis set               ... off
Rotationally invariant grid construction     ... off

Total number of grid points                  ...    22945
Total number of batches                      ...      374
Average number of points per batch           ...       61
Average number of grid points per atom       ...      620

CP-SCF GRIDX
------------

General Integration Accuracy     IntAcc      ... 3.067
Radial Grid Type                 RadialGrid  ... OptM3 with GC (2021)
Angular Grid (max. ang.)         AngularGrid ... 1 (Lebedev-50)
Angular grid pruning method      GridPruning ... 4 (adaptive)
Weight generation scheme         WeightScheme... Becke
Basis function cutoff            BFCut       ... 1.0000e-10
Integration weight cutoff        WCut        ... 1.0000e-14
Angular grids for H and He will be reduced by one unit
Partially contracted basis set               ... on
Rotationally invariant grid construction     ... off

Total number of grid points                  ...    10826
Total number of batches                      ...      191
Average number of points per batch           ...       56
Average number of grid points per atom       ...      293

Memory available               ... 915.7 MB
Memory needed per perturbation ...   6.9 MB
Perturbations treated per batch... 3
Number of batches              ... 1
     CP-SCF ITERATION   0:   3.6570e-02 (   1.0 sec   0/  3 done)
     CP-SCF ITERATION   1:   6.0293e-04 (   0.9 sec   3/  3 done)
                    *** THE CP-SCF HAS CONVERGED ***

Forming final perturbed densities           ... done
Transforming perturbed density to AO basis  ... done

 Raw HFC matrix (all values in MHz): 
 -----------------------------------
                -0.1286               0.0561               0.0000
                 0.0561               0.2412               0.0008
                 0.0000               0.0008              -0.1334

 A(FC)          -0.0070              -0.0070              -0.0070
 A(SD)          -0.1264              -0.1300               0.2564
 A(ORB+DIA)      0.0000               0.0000               0.0001    A(PC) =   0.0000
 A(ORB)          0.0000              -0.0000               0.0001    A(PC) =   0.0000
 A(DIA)          0.0000               0.0000               0.0000    A(PC) =   0.0000
             ----------           ----------           ----------
 A(Tot)         -0.1334              -0.1369               0.2495    A(iso)=   -0.0069
 Orientation: 
  X          -0.0283233            0.9887682            0.1467490
  Y           0.0021782           -0.1467465            0.9891717
  Z           0.9995964            0.0283363            0.0020027

Notes:  (1) The A matrix conforms to the "SAI" spin Hamiltonian convention.
        (2) Tensor is right-handed.

 -----------------------------------------------------------
 Nucleus  36H : A:ISTP=    1 I=  0.5 P=533.5514 MHz/au**3
                Q:ISTP=    2 I=  1.0 Q=  0.0029 barn     
 -----------------------------------------------------------
 Solving for nuclear perturbation:
Forming RHS of the CP-SCF equations         ... 
Calc. nucleus orbit integrals (SHARK)       ... done

------------------------------------------------------------------------------
                           ORCA CP-SCF CALCULATION
------------------------------------------------------------------------------

Input orbitals are from        ... cc-pVDZ.gbw
Input Perturbation             ... cc-pVDZ.pin.tmp
Wavefunction output            ... cc-pVDZ.pout.tmp
Perturbation mode              ... Imaginary perturbation
Solver                         ... POPLE
Max. number of iterations      ... 64
Convergence tolerance          ... 1.000e-03
Integral handling              ... Direct
DFT GridXC                     ... 1
COSX GridX                     ... 1
COSX IntAccX                   ... 3.067
COSX Algorithm                 ... Auto
Number of perturbations        ... 3
Number of operators            ... 2
Orbital ranges used for CP-SCF:
 Operator 0:  Orbitals   0... 58  to  59...328
 Operator 1:  Orbitals   0... 57  to  58...328
Variables per perturbation     ... 31648
DFT calculation                         ... on
XC functional terms                     ... off
Hybrid DFT                              ... on
   Exchange mixing (SCF)                ...  0.200
   Exchange mixing (CP-SCF)             ...  0.200
   GGA exch. scaling(SCF)               ...  0.720
   GGA exch. scaling (CP-SCF)           ...  0.720
   GGA corr. scaling (SCF)              ...  0.810
   GGA corr. scaling (CP-SCF)           ...  0.810

CP-SCF GRID
-----------

General Integration Accuracy     IntAcc      ... 3.467
Radial Grid Type                 RadialGrid  ... OptM3 with GC (2021)
Angular Grid (max. ang.)         AngularGrid ... 1 (Lebedev-50)
Angular grid pruning method      GridPruning ... 4 (adaptive)
Weight generation scheme         WeightScheme... Becke
Basis function cutoff            BFCut       ... 1.0000e-10
Integration weight cutoff        WCut        ... 1.0000e-14
Angular grids for H and He will be reduced by one unit
Partially contracted basis set               ... off
Rotationally invariant grid construction     ... off

Total number of grid points                  ...    22945
Total number of batches                      ...      374
Average number of points per batch           ...       61
Average number of grid points per atom       ...      620

CP-SCF GRIDX
------------

General Integration Accuracy     IntAcc      ... 3.067
Radial Grid Type                 RadialGrid  ... OptM3 with GC (2021)
Angular Grid (max. ang.)         AngularGrid ... 1 (Lebedev-50)
Angular grid pruning method      GridPruning ... 4 (adaptive)
Weight generation scheme         WeightScheme... Becke
Basis function cutoff            BFCut       ... 1.0000e-10
Integration weight cutoff        WCut        ... 1.0000e-14
Angular grids for H and He will be reduced by one unit
Partially contracted basis set               ... on
Rotationally invariant grid construction     ... off

Total number of grid points                  ...    10826
Total number of batches                      ...      191
Average number of points per batch           ...       56
Average number of grid points per atom       ...      293

Memory available               ... 915.4 MB
Memory needed per perturbation ...   6.9 MB
Perturbations treated per batch... 3
Number of batches              ... 1
     CP-SCF ITERATION   0:   4.4615e-02 (   1.0 sec   0/  3 done)
     CP-SCF ITERATION   1:   2.0061e-03 (   1.0 sec   0/  3 done)
     CP-SCF ITERATION   2:   1.0742e-04 (   1.0 sec   3/  3 done)
                    *** THE CP-SCF HAS CONVERGED ***

Forming final perturbed densities           ... done
Transforming perturbed density to AO basis  ... done

 Raw HFC matrix (all values in MHz): 
 -----------------------------------
                -6.6774              -1.6985               0.1916
                -1.6961             -19.1139              -0.0190
                 0.1915              -0.0191             -16.4579

 A(FC)         -14.0854             -14.0854             -14.0854
 A(SD)           7.6379              -2.3755              -5.2624
 A(ORB+DIA)      0.0013              -0.0007               0.0064    A(PC) =   0.0024
 A(ORB)         -0.0001               0.0002               0.0064    A(PC) =   0.0022
 A(DIA)          0.0014              -0.0009              -0.0000    A(PC) =   0.0002
             ----------           ----------           ----------
 A(Tot)         -6.4462             -16.4616             -19.3414    A(iso)=  -14.0830
 Orientation: 
  X          -0.9909438           -0.0187367            0.1329633
  Y           0.1328955            0.0048248            0.9911183
  Z          -0.0192118            0.9998128           -0.0022910

Notes:  (1) The A matrix conforms to the "SAI" spin Hamiltonian convention.
        (2) Tensor is right-handed.


--------------------------------------------------------------------------------
----------------------------------------------------------------------------
                           ORCA EULER ANGLE PROGRAM
----------------------------------------------------------------------------

Only g-tensor available        -->  using g-tensor as reference tensor

Reference tensor               ...  g

g-tensor ordering              ...  |g_min> --> |gx>
                                    |g_mid> --> |gy>
                                    |g_max> --> |gz>

A- and EFG-tensor ordering     ...  the axes |Ax>, |Qx>, |Ay>, etc. are assigned
                                    such that the Euler rotation is minimal. You
                                    can find the respective eigenvalues as Ax,
                                    EFGx, Ay, etc. in the tables below.
                                    The relation of |Ax>, |Ay>,  etc. to Amin, Amid, etc.
                                    (as printed in the ORCA EPR/NMR CALCULATION Output)
                                    is obtained in the detailed printout.

Euler rotation around          ...  z - y - z
   First rotation              -->  by alpha around z
   Second rotation             -->  by beta around y'
   Third rotation              -->  by gamma around z''
   Positive / Negative angle   -->  clockwise / counterclockwise rotation

Plot EFG-tensors                    (-)
Plot HFC-tensors                    (-)
Detailed Printout                   (-)

-------------------------------------------------------------------------
          Euler rotation of hyperfine tensor to g-tensor
-------------------------------------------------------------------------

-------------------------------------------------------------------
 Atom  |   Alpha    Beta    Gamma   |   Ax       Ay       Az 
       |          [degrees]         |           [MHz]         
-------------------------------------------------------------------
  7H      -92.1      2.3     92.2     -16.35    -6.89   -19.97
  8H      -90.1      2.4     90.1       3.83     4.76     9.25
 10H      -89.9     44.7     90.0     -47.81   -73.86   -17.42
 12H      -22.8     12.2      4.9      60.21    70.28    61.53
 13H     -157.0     11.9    174.9      59.95    70.02    61.28
 15H       17.9     27.3    -57.1      -3.37    -3.20     3.33
 16H      162.2     27.1   -122.4      -3.36    -3.20     3.33
 18H     -129.1     48.7    153.3      -0.09     2.36     0.04
 19H      -50.7     49.1     26.5      -0.10     2.36     0.04
 21H     -147.0     17.5   -170.4      21.05    21.64    24.93
 22H      -33.0     17.1     -8.2      20.57    21.14    24.45
 24H      -89.9     29.2    104.3      -0.97     1.10    -0.87
 25H      -93.6     29.2     80.3      -0.95     1.09    -0.86
 27H       71.4     31.0   -106.4      -0.13    -0.18     0.82
 28H      108.4     30.9    -72.6      -0.13    -0.17     0.82
 30H      -93.3     40.9     85.0      -0.13     0.40    -0.11
 31H      -88.4     40.8     98.0      -0.13     0.40    -0.11
 33H       89.6     43.9    -90.0       2.84     2.01     4.28
 34H       90.5     37.1    -89.8      -0.82    -0.85     0.80
 35H       89.2     38.9    -89.6      -0.13    -0.14     0.25
 36H       90.0     39.7    -90.0     -16.46    -6.45   -19.34
-------------------------------------------------------------------


Maximum memory used throughout the entire EPRNMR-calculation: 148.1 MB

Timings for individual modules:

Sum of individual times         ...     1481.089 sec (=  24.685 min)
GTO integral calculation        ...        4.204 sec (=   0.070 min)   0.3 %
Spin-Orbit-Coupling Matrices    ...        5.705 sec (=   0.095 min)   0.4 %
SCF iterations                  ...       18.308 sec (=   0.305 min)   1.2 %
EPR/NMR calculation             ...     1452.872 sec (=  24.215 min)  98.1 %
                             ****ORCA TERMINATED NORMALLY****
TOTAL RUN TIME: 0 days 0 hours 24 minutes 45 seconds 430 msec
