
                                 *****************
                                 * O   R   C   A *
                                 *****************

                                            #,                                       
                                            ###                                      
                                            ####                                     
                                            #####                                    
                                            ######                                   
                                           ########,                                 
                                     ,,################,,,,,                         
                               ,,#################################,,                 
                          ,,##########################################,,             
                       ,#########################################, ''#####,          
                    ,#############################################,,   '####,        
                  ,##################################################,,,,####,       
                ,###########''''           ''''###############################       
              ,#####''   ,,,,##########,,,,          '''####'''          '####       
            ,##' ,,,,###########################,,,                        '##       
           ' ,,###''''                  '''############,,,                           
         ,,##''                                '''############,,,,        ,,,,,,###''
      ,#''                                            '''#######################'''  
     '                                                          ''''####''''         
             ,#######,   #######,   ,#######,      ##                                
            ,#'     '#,  ##    ##  ,#'     '#,    #''#        ######   ,####,        
            ##       ##  ##   ,#'  ##            #'  '#       #        #'  '#        
            ##       ##  #######   ##           ,######,      #####,   #    #        
            '#,     ,#'  ##    ##  '#,     ,#' ,#      #,         ##   #,  ,#        
             '#######'   ##     ##  '#######'  #'      '#     #####' # '####'        



                  #######################################################
                  #                        -***-                        #
                  #          Department of theory and spectroscopy      #
                  #    Directorship and core code : Frank Neese         #
                  #        Max Planck Institute fuer Kohlenforschung    #
                  #                Kaiser Wilhelm Platz 1               #
                  #                 D-45470 Muelheim/Ruhr               #
                  #                      Germany                        #
                  #                                                     #
                  #                  All rights reserved                #
                  #                        -***-                        #
                  #######################################################


                         Program Version 5.0.4 -  RELEASE  -


 With contributions from (in alphabetic order):
   Daniel Aravena         : Magnetic Suceptibility
   Michael Atanasov       : Ab Initio Ligand Field Theory (pilot matlab implementation)
   Alexander A. Auer      : GIAO ZORA, VPT2 properties, NMR spectrum
   Ute Becker             : Parallelization
   Giovanni Bistoni       : ED, misc. LED, open-shell LED, HFLD
   Martin Brehm           : Molecular dynamics
   Dmytro Bykov           : SCF Hessian
   Vijay G. Chilkuri      : MRCI spin determinant printing, contributions to CSF-ICE
   Dipayan Datta          : RHF DLPNO-CCSD density
   Achintya Kumar Dutta   : EOM-CC, STEOM-CC
   Dmitry Ganyushin       : Spin-Orbit,Spin-Spin,Magnetic field MRCI
   Miquel Garcia          : C-PCM and meta-GGA Hessian, CC/C-PCM, Gaussian charge scheme
   Yang Guo               : DLPNO-NEVPT2, F12-NEVPT2, CIM, IAO-localization
   Andreas Hansen         : Spin unrestricted coupled pair/coupled cluster methods
   Benjamin Helmich-Paris : MC-RPA, TRAH-SCF, COSX integrals
   Lee Huntington         : MR-EOM, pCC
   Robert Izsak           : Overlap fitted RIJCOSX, COSX-SCS-MP3, EOM
   Marcus Kettner         : VPT2
   Christian Kollmar      : KDIIS, OOCD, Brueckner-CCSD(T), CCSD density, CASPT2, CASPT2-K
   Simone Kossmann        : Meta GGA functionals, TD-DFT gradient, OOMP2, MP2 Hessian
   Martin Krupicka        : Initial AUTO-CI
   Lucas Lang             : DCDCAS
   Marvin Lechner         : AUTO-CI (C++ implementation), FIC-MRCC
   Dagmar Lenk            : GEPOL surface, SMD
   Dimitrios Liakos       : Extrapolation schemes; Compound Job, initial MDCI parallelization
   Dimitrios Manganas     : Further ROCIS development; embedding schemes
   Dimitrios Pantazis     : SARC Basis sets
   Anastasios Papadopoulos: AUTO-CI, single reference methods and gradients
   Taras Petrenko         : DFT Hessian,TD-DFT gradient, ASA, ECA, R-Raman, ABS, FL, XAS/XES, NRVS
   Peter Pinski           : DLPNO-MP2, DLPNO-MP2 Gradient
   Christoph Reimann      : Effective Core Potentials
   Marius Retegan         : Local ZFS, SOC
   Christoph Riplinger    : Optimizer, TS searches, QM/MM, DLPNO-CCSD(T), (RO)-DLPNO pert. Triples
   Tobias Risthaus        : Range-separated hybrids, TD-DFT gradient, RPA, STAB
   Michael Roemelt        : Original ROCIS implementation
   Masaaki Saitow         : Open-shell DLPNO-CCSD energy and density
   Barbara Sandhoefer     : DKH picture change effects
   Avijit Sen             : IP-ROCIS
   Kantharuban Sivalingam : CASSCF convergence, NEVPT2, FIC-MRCI
   Bernardo de Souza      : ESD, SOC TD-DFT
   Georgi Stoychev        : AutoAux, RI-MP2 NMR, DLPNO-MP2 response
   Willem Van den Heuvel  : Paramagnetic NMR
   Boris Wezisla          : Elementary symmetry handling
   Frank Wennmohs         : Technical directorship


 We gratefully acknowledge several colleagues who have allowed us to
 interface, adapt or use parts of their codes:
   Stefan Grimme, W. Hujo, H. Kruse, P. Pracht,  : VdW corrections, initial TS optimization,
                  C. Bannwarth, S. Ehlert          DFT functionals, gCP, sTDA/sTD-DF
   Ed Valeev, F. Pavosevic, A. Kumar             : LibInt (2-el integral package), F12 methods
   Garnet Chan, S. Sharma, J. Yang, R. Olivares  : DMRG
   Ulf Ekstrom                                   : XCFun DFT Library
   Mihaly Kallay                                 : mrcc  (arbitrary order and MRCC methods)
   Jiri Pittner, Ondrej Demel                    : Mk-CCSD
   Frank Weinhold                                : gennbo (NPA and NBO analysis)
   Christopher J. Cramer and Donald G. Truhlar   : smd solvation model
   Lars Goerigk                                  : TD-DFT with DH, B97 family of functionals
   V. Asgeirsson, H. Jonsson                     : NEB implementation
   FAccTs GmbH                                   : IRC, NEB, NEB-TS, DLPNO-Multilevel, CI-OPT
                                                   MM, QMMM, 2- and 3-layer-ONIOM, Crystal-QMMM,
                                                   LR-CPCM, SF, NACMEs, symmetry and pop. for TD-DFT,
                                                   nearIR, NL-DFT gradient (VV10), updates on ESD,
                                                   ML-optimized integration grids
   S Lehtola, MJT Oliveira, MAL Marques          : LibXC Library
   Liviu Ungur et al                             : ANISO software


 Your calculation uses the libint2 library for the computation of 2-el integrals
 For citations please refer to: http://libint.valeyev.net

 Your ORCA version has been built with support for libXC version: 5.1.0
 For citations please refer to: https://tddft.org/programs/libxc/

 This ORCA versions uses:
   CBLAS   interface :  Fast vector & matrix operations
   LAPACKE interface :  Fast linear algebra routines
   SCALAPACK package :  Parallel linear algebra routines
   Shared memory     :  Shared parallel matrices
   BLAS/LAPACK       :  OpenBLAS 0.3.15  USE64BITINT DYNAMIC_ARCH NO_AFFINITY SkylakeX SINGLE_THREADED
        Core in use  :  SkylakeX
   Copyright (c) 2011-2014, The OpenBLAS Project




***************************************
The coordinates will be read from file: opt.xyz
***************************************


================================================================================

----- Orbital basis set information -----
Your calculation utilizes the basis: cc-pVDZ 
       H, B-Ne : Obtained from the ccRepo (grant-hill.group.shef.ac.uk/ccrepo) Feb. 2017
                 T. H. Dunning, Jr., J. Chem. Phys. 90, 1007 (1989)
            He : Obtained from the ccRepo (grant-hill.group.shef.ac.uk/ccrepo) Feb. 2017
                 D. E. Woon, T. H. Dunning, Jr., J. Chem. Phys. 100, 2975 (1994)
  Li-Be, Na-Mg : Obtained from the ccRepo (grant-hill.group.shef.ac.uk/ccrepo) Feb. 2017
                 B. P. Prascher, D. E. Woon, K. A. Peterson, T. H. Dunning, Jr., A. K. Wilson, Theor. Chem. Acc. 128, 69 (2011)
         Al-Ar : Obtained from the ccRepo (grant-hill.group.shef.ac.uk/ccrepo) Feb. 2017
                 D. E. Woon, T. H. Dunning, Jr., J. Chem. Phys. 98, 1358 (1993)
            Ca : Obtained from the Peterson Research Group Website (tyr0.chem.wsu.edu/~kipeters) Feb. 2017
                 J. Koput, K. A. Peterson, J. Phys. Chem. 106, 9595 (2002)
         Sc-Zn : Obtained from the ccRepo (grant-hill.group.shef.ac.uk/ccrepo) Feb. 2017
                 N. B. Balabanov, K. A. Peterson, J. Chem. Phys. 123, 064107 (2005)
                 N. B. Balabanov, K. A. Peterson, J. Chem. Phys. 125, 074110 (2006)
         Ga-Kr : Obtained from the ccRepo (grant-hill.group.shef.ac.uk/ccrepo) Feb. 2017
                 A. K. Wilson, D. E. Woon, K. A. Peterson, T. H. Dunning, Jr., J. Chem. Phys. 110, 7667 (1999)

----- AuxJ basis set information -----
Your calculation utilizes the AutoAux generation procedure.
  G. L. Stoychev, A. A. Auer, F. Neese, J. Chem. Theory Comput. 13, 554 (2017)

----- AuxC basis set information -----
Your calculation utilizes the AutoAux generation procedure.
  G. L. Stoychev, A. A. Auer, F. Neese, J. Chem. Theory Comput. 13, 554 (2017)

----- AuxJK basis set information -----
Your calculation utilizes the AutoAux generation procedure.
  G. L. Stoychev, A. A. Auer, F. Neese, J. Chem. Theory Comput. 13, 554 (2017)

================================================================================
                                        WARNINGS
                       Please study these warnings very carefully!
================================================================================


WARNING: your system is open-shell and RHF/RKS was chosen
  ===> : WILL SWITCH to UHF/UKS


INFO   : the flag for use of the SHARK integral package has been found!

================================================================================
                                       INPUT FILE
================================================================================
NAME = cc-pVDZ_i.inp
|  1> ! B3LYP cc-pVDZ AUTOAUX
|  2> %pal nprocs 16 end
|  3> *XYZFile 0 2 opt.xyz
|  4> %EPRNMR
|  5>         GTENSOR   TRUE
|  6>         NUCLEI    = ALL H {SHIFT, AISO, ADIP, AORB}
|  7>         ORI       GIAO
|  8> END
|  9> 
| 10>                          ****END OF INPUT****
================================================================================

                       ****************************
                       * Single Point Calculation *
                       ****************************

---------------------------------
CARTESIAN COORDINATES (ANGSTROEM)
---------------------------------
  C     -2.934073   -0.018766   -0.033821
  C      1.296326    0.061617    0.042355
  C      0.590316    1.299012    0.023646
  C     -0.830012    1.218758   -0.002083
  C     -1.498941   -0.010710   -0.008376
  C     -0.774370   -1.238300    0.010896
  C      0.629305   -1.156514    0.035978
  H     -1.426643    2.131592   -0.017243
  H      1.218068   -2.074806    0.050925
  C      1.286599    2.534948    0.031266
  H      2.380846    2.491530    0.052874
  C      0.640774    3.887237    0.012787
  H     -0.012358    3.982869   -0.879700
  H     -0.049610    3.989014    0.876092
  C      1.643397    5.048244    0.030137
  H      2.282865    4.958144    0.927400
  H      2.320748    4.952086   -0.838264
  C      0.972655    6.422996    0.011073
  H      0.314265    6.559972    0.886339
  H      0.351320    6.553366   -0.891860
  C     -1.525236   -2.553953    0.005144
  H     -2.211934   -2.565966    0.872443
  H     -2.196235   -2.567265   -0.874138
  C     -0.682959   -3.832515    0.013733
  H     -0.008492   -3.844031   -0.862466
  H     -0.029866   -3.846912    0.905937
  C     -1.540346   -5.103812    0.002012
  H     -2.217942   -5.093520    0.875899
  H     -2.195918   -5.092106   -0.888500
  C     -0.711165   -6.390340    0.011269
  H     -0.071581   -6.448752    0.909014
  H     -0.048195   -6.446330   -0.869486
  C     -4.149637   -0.020449   -0.056778
  H     -5.221734   -0.017269   -0.080213
  H      1.717399    7.235047    0.023638
  H     -1.353742   -7.285750    0.001613
  H      2.389514    0.078501    0.062394

----------------------------
CARTESIAN COORDINATES (A.U.)
----------------------------
  NO LB      ZA    FRAG     MASS         X           Y           Z
   0 C     6.0000    0    12.011   -5.544595   -0.035462   -0.063912
   1 C     6.0000    0    12.011    2.449702    0.116440    0.080040
   2 C     6.0000    0    12.011    1.115535    2.454777    0.044685
   3 C     6.0000    0    12.011   -1.568496    2.303118   -0.003936
   4 C     6.0000    0    12.011   -2.832588   -0.020239   -0.015828
   5 C     6.0000    0    12.011   -1.463347   -2.340047    0.020591
   6 C     6.0000    0    12.011    1.189213   -2.185496    0.067989
   7 H     1.0000    0     1.008   -2.695965    4.028126   -0.032585
   8 H     1.0000    0     1.008    2.301815   -3.920815    0.096233
   9 C     6.0000    0    12.011    2.431319    4.790357    0.059083
  10 H     1.0000    0     1.008    4.499146    4.708310    0.099917
  11 C     6.0000    0    12.011    1.210887    7.345813    0.024163
  12 H     1.0000    0     1.008   -0.023354    7.526532   -1.662393
  13 H     1.0000    0     1.008   -0.093748    7.538145    1.655575
  14 C     6.0000    0    12.011    3.105570    9.539799    0.056950
  15 H     1.0000    0     1.008    4.313990    9.369534    1.752532
  16 H     1.0000    0     1.008    4.385578    9.358086   -1.584090
  17 C     6.0000    0    12.011    1.838051   12.137704    0.020924
  18 H     1.0000    0     1.008    0.593874   12.396551    1.674939
  19 H     1.0000    0     1.008    0.663899   12.384067   -1.685372
  20 C     6.0000    0    12.011   -2.882279   -4.826272    0.009722
  21 H     1.0000    0     1.008   -4.179950   -4.848972    1.648678
  22 H     1.0000    0     1.008   -4.150282   -4.851428   -1.651882
  23 C     6.0000    0    12.011   -1.290606   -7.242403    0.025952
  24 H     1.0000    0     1.008   -0.016048   -7.264166   -1.629825
  25 H     1.0000    0     1.008   -0.056439   -7.269610    1.711973
  26 C     6.0000    0    12.011   -2.910832   -9.644806    0.003802
  27 H     1.0000    0     1.008   -4.191303   -9.625357    1.655210
  28 H     1.0000    0     1.008   -4.149684   -9.622686   -1.679022
  29 C     6.0000    0    12.011   -1.343908  -12.075992    0.021295
  30 H     1.0000    0     1.008   -0.135268  -12.186376    1.717787
  31 H     1.0000    0     1.008   -0.091074  -12.181798   -1.643091
  32 C     6.0000    0    12.011   -7.841677   -0.038643   -0.107294
  33 H     1.0000    0     1.008   -9.867647   -0.032633   -0.151580
  34 H     1.0000    0     1.008    3.245413   13.672258    0.044669
  35 H     1.0000    0     1.008   -2.558202  -13.768072    0.003049
  36 H     1.0000    0     1.008    4.515527    0.148345    0.117908

--------------------------------
INTERNAL COORDINATES (ANGSTROEM)
--------------------------------
 C      0   0   0     0.000000000000     0.00000000     0.00000000
 C      1   0   0     4.231848939847     0.00000000     0.00000000
 C      2   1   0     1.424762060632    61.37344351     0.00000000
 C      3   2   1     1.422825886963   116.48151840     0.00000000
 C      4   3   2     1.399677359441   121.78305841     0.00000000
 C      5   4   3     1.425605629839   120.89196210     0.00000000
 C      2   1   3     1.388813772745    60.20751446   180.00689524
 H      4   3   2     1.090626055393   119.94276010   179.99792087
 H      7   2   1     1.090928671512   118.62250577   180.00005822
 C      3   2   1     1.418592591911   120.88899395   179.95563514
 H     10   3   2     1.095321098643   117.12389638   359.94844694
 C     10   3   2     1.498705157018   125.06816424   179.98164747
 H     12  10   3     1.110072117945   109.94925009   302.56206846
 H     12  10   3     1.110083212556   109.94621140    57.16239201
 C     12  10   3     1.534109735725   113.64635141   179.85516404
 H     15  12  10     1.105494941857   108.99853322   302.34391275
 H     15  12  10     1.105518470360   109.00932731    57.64727482
 C     15  12  10     1.529771797325   113.16672195   180.00099529
 H     18  15  12     1.103780613789   111.29528058    59.88161723
 H     18  15  12     1.103784895252   111.29386069   300.17982201
 C      6   5   4     1.514852331370   119.72846641   179.92922622
 H     21   6   5     1.106302396969   108.30789276   303.18976293
 H     21   6   5     1.106143653315   108.30943594    55.70878025
 C     21   6   5     1.531085820367   116.90814177   179.45460909
 H     24  21   6     1.105786818929   109.86424906   301.96965616
 H     24  21   6     1.105787266606   109.89547614    58.46843302
 C     24  21   6     1.533442247174   112.62413367   180.20133835
 H     27  24  21     1.105857717831   109.19832109   302.38643287
 H     27  24  21     1.105858913116   109.19832160    57.68661707
 C     27  24  21     1.530614619735   113.19729136   180.03394763
 H     30  27  24     1.103823611824   111.30244500    59.90416299
 H     30  27  24     1.103809094676   111.29589034   300.19584285
 C      1   2   3     1.215781472594   178.98969451     2.58275710
 H     33   1   5     1.072357782986   179.69813644    19.04955831
 H     18  15  12     1.101920293683   111.45587995   180.02775680
 H     30  27  24     1.102160184204   111.52875570   180.05131216
 H      2   1   3     1.093501760516   179.79545470   175.07056308

---------------------------
INTERNAL COORDINATES (A.U.)
---------------------------
 C      0   0   0     0.000000000000     0.00000000     0.00000000
 C      1   0   0     7.997035536435     0.00000000     0.00000000
 C      2   1   0     2.692410100595    61.37344351     0.00000000
 C      3   2   1     2.688751262613   116.48151840     0.00000000
 C      4   3   2     2.645006885193   121.78305841     0.00000000
 C      5   4   3     2.694004215372   120.89196210     0.00000000
 C      2   1   3     2.624477681505    60.20751446   180.00689524
 H      4   3   2     2.060984559211   119.94276010   179.99792087
 H      7   2   1     2.061556420801   118.62250577   180.00005822
 C      3   2   1     2.680751494321   120.88899395   179.95563514
 H     10   3   2     2.069856905141   117.12389638   359.94844694
 C     10   3   2     2.832142302260   125.06816424   179.98164747
 H     12  10   3     2.097732291818   109.94925009   302.56206846
 H     12  10   3     2.097753257595   109.94621140    57.16239201
 C     12  10   3     2.899047259903   113.64635141   179.85516404
 H     15  12  10     2.089082682545   108.99853322   302.34391275
 H     15  12  10     2.089127144972   109.00932731    57.64727482
 C     15  12  10     2.890849744340   113.16672195   180.00099529
 H     18  15  12     2.085843071993   111.29528058    59.88161723
 H     18  15  12     2.085851162785   111.29386069   300.17982201
 C      6   5   4     2.862656039621   119.72846641   179.92922622
 H     21   6   5     2.090608551572   108.30789276   303.18976293
 H     21   6   5     2.090308569541   108.30943594    55.70878025
 C     21   6   5     2.893332888024   116.90814177   179.45460909
 H     24  21   6     2.089634250275   109.86424906   301.96965616
 H     24  21   6     2.089635096263   109.89547614    58.46843302
 C     24  21   6     2.897785889343   112.62413367   180.20133835
 H     27  24  21     2.089768229784   109.19832109   302.38643287
 H     27  24  21     2.089770488544   109.19832160    57.68661707
 C     27  24  21     2.892442447875   113.19729136   180.03394763
 H     30  27  24     2.085924326504   111.30244500    59.90416299
 H     30  27  24     2.085896893069   111.29589034   300.19584285
 C      1   2   3     2.297494021899   178.98969451     2.58275710
 H     33   1   5     2.026462527422   179.69813644    19.04955831
 H     18  15  12     2.082327576472   111.45587995   180.02775680
 H     30  27  24     2.082780903857   111.52875570   180.05131216
 H      2   1   3     2.066418854336   179.79545470   175.07056308

---------------------
BASIS SET INFORMATION
---------------------
There are 2 groups of distinct atoms

 Group   1 Type C   : 17s4p1d contracted to 3s2p1d pattern {881/31/1}
 Group   2 Type H   : 4s1p contracted to 2s1p pattern {31/1}

Atom   0C    basis set group =>   1
Atom   1C    basis set group =>   1
Atom   2C    basis set group =>   1
Atom   3C    basis set group =>   1
Atom   4C    basis set group =>   1
Atom   5C    basis set group =>   1
Atom   6C    basis set group =>   1
Atom   7H    basis set group =>   2
Atom   8H    basis set group =>   2
Atom   9C    basis set group =>   1
Atom  10H    basis set group =>   2
Atom  11C    basis set group =>   1
Atom  12H    basis set group =>   2
Atom  13H    basis set group =>   2
Atom  14C    basis set group =>   1
Atom  15H    basis set group =>   2
Atom  16H    basis set group =>   2
Atom  17C    basis set group =>   1
Atom  18H    basis set group =>   2
Atom  19H    basis set group =>   2
Atom  20C    basis set group =>   1
Atom  21H    basis set group =>   2
Atom  22H    basis set group =>   2
Atom  23C    basis set group =>   1
Atom  24H    basis set group =>   2
Atom  25H    basis set group =>   2
Atom  26C    basis set group =>   1
Atom  27H    basis set group =>   2
Atom  28H    basis set group =>   2
Atom  29C    basis set group =>   1
Atom  30H    basis set group =>   2
Atom  31H    basis set group =>   2
Atom  32C    basis set group =>   1
Atom  33H    basis set group =>   2
Atom  34H    basis set group =>   2
Atom  35H    basis set group =>   2
Atom  36H    basis set group =>   2
---------------------------------
AUXILIARY/J BASIS SET INFORMATION
---------------------------------
There are 2 groups of distinct atoms

 Group   1 Type C   : 14s11p10d2f contracted to 14s11p10d2f pattern {11111111111111/11111111111/1111111111/11}
 Group   2 Type H   : 9s2p1d contracted to 9s2p1d pattern {111111111/11/1}

Atom   0C    basis set group =>   1
Atom   1C    basis set group =>   1
Atom   2C    basis set group =>   1
Atom   3C    basis set group =>   1
Atom   4C    basis set group =>   1
Atom   5C    basis set group =>   1
Atom   6C    basis set group =>   1
Atom   7H    basis set group =>   2
Atom   8H    basis set group =>   2
Atom   9C    basis set group =>   1
Atom  10H    basis set group =>   2
Atom  11C    basis set group =>   1
Atom  12H    basis set group =>   2
Atom  13H    basis set group =>   2
Atom  14C    basis set group =>   1
Atom  15H    basis set group =>   2
Atom  16H    basis set group =>   2
Atom  17C    basis set group =>   1
Atom  18H    basis set group =>   2
Atom  19H    basis set group =>   2
Atom  20C    basis set group =>   1
Atom  21H    basis set group =>   2
Atom  22H    basis set group =>   2
Atom  23C    basis set group =>   1
Atom  24H    basis set group =>   2
Atom  25H    basis set group =>   2
Atom  26C    basis set group =>   1
Atom  27H    basis set group =>   2
Atom  28H    basis set group =>   2
Atom  29C    basis set group =>   1
Atom  30H    basis set group =>   2
Atom  31H    basis set group =>   2
Atom  32C    basis set group =>   1
Atom  33H    basis set group =>   2
Atom  34H    basis set group =>   2
Atom  35H    basis set group =>   2
Atom  36H    basis set group =>   2
---------------------------------
AUXILIARY/C BASIS SET INFORMATION
---------------------------------
There are 2 groups of distinct atoms

 Group   1 Type C   : 14s11p10d2f contracted to 14s11p10d2f pattern {11111111111111/11111111111/1111111111/11}
 Group   2 Type H   : 9s2p1d contracted to 9s2p1d pattern {111111111/11/1}

Atom   0C    basis set group =>   1
Atom   1C    basis set group =>   1
Atom   2C    basis set group =>   1
Atom   3C    basis set group =>   1
Atom   4C    basis set group =>   1
Atom   5C    basis set group =>   1
Atom   6C    basis set group =>   1
Atom   7H    basis set group =>   2
Atom   8H    basis set group =>   2
Atom   9C    basis set group =>   1
Atom  10H    basis set group =>   2
Atom  11C    basis set group =>   1
Atom  12H    basis set group =>   2
Atom  13H    basis set group =>   2
Atom  14C    basis set group =>   1
Atom  15H    basis set group =>   2
Atom  16H    basis set group =>   2
Atom  17C    basis set group =>   1
Atom  18H    basis set group =>   2
Atom  19H    basis set group =>   2
Atom  20C    basis set group =>   1
Atom  21H    basis set group =>   2
Atom  22H    basis set group =>   2
Atom  23C    basis set group =>   1
Atom  24H    basis set group =>   2
Atom  25H    basis set group =>   2
Atom  26C    basis set group =>   1
Atom  27H    basis set group =>   2
Atom  28H    basis set group =>   2
Atom  29C    basis set group =>   1
Atom  30H    basis set group =>   2
Atom  31H    basis set group =>   2
Atom  32C    basis set group =>   1
Atom  33H    basis set group =>   2
Atom  34H    basis set group =>   2
Atom  35H    basis set group =>   2
Atom  36H    basis set group =>   2
----------------------------------
AUXILIARY/JK BASIS SET INFORMATION
----------------------------------
There are 2 groups of distinct atoms

 Group   1 Type C   : 14s11p10d2f contracted to 14s11p10d2f pattern {11111111111111/11111111111/1111111111/11}
 Group   2 Type H   : 9s2p1d contracted to 9s2p1d pattern {111111111/11/1}

Atom   0C    basis set group =>   1
Atom   1C    basis set group =>   1
Atom   2C    basis set group =>   1
Atom   3C    basis set group =>   1
Atom   4C    basis set group =>   1
Atom   5C    basis set group =>   1
Atom   6C    basis set group =>   1
Atom   7H    basis set group =>   2
Atom   8H    basis set group =>   2
Atom   9C    basis set group =>   1
Atom  10H    basis set group =>   2
Atom  11C    basis set group =>   1
Atom  12H    basis set group =>   2
Atom  13H    basis set group =>   2
Atom  14C    basis set group =>   1
Atom  15H    basis set group =>   2
Atom  16H    basis set group =>   2
Atom  17C    basis set group =>   1
Atom  18H    basis set group =>   2
Atom  19H    basis set group =>   2
Atom  20C    basis set group =>   1
Atom  21H    basis set group =>   2
Atom  22H    basis set group =>   2
Atom  23C    basis set group =>   1
Atom  24H    basis set group =>   2
Atom  25H    basis set group =>   2
Atom  26C    basis set group =>   1
Atom  27H    basis set group =>   2
Atom  28H    basis set group =>   2
Atom  29C    basis set group =>   1
Atom  30H    basis set group =>   2
Atom  31H    basis set group =>   2
Atom  32C    basis set group =>   1
Atom  33H    basis set group =>   2
Atom  34H    basis set group =>   2
Atom  35H    basis set group =>   2
Atom  36H    basis set group =>   2


           ************************************************************
           *        Program running with 16 parallel MPI-processes    *
           *              working on a common directory               *
           ************************************************************
------------------------------------------------------------------------------
                           ORCA GTO INTEGRAL CALCULATION
                           -- RI-GTO INTEGRALS CHOSEN --
------------------------------------------------------------------------------
------------------------------------------------------------------------------
                   ___                                                        
                  /   \      - P O W E R E D   B Y -                         
                 /     \                                                     
                 |  |  |   _    _      __       _____    __    __             
                 |  |  |  | |  | |    /  \     |  _  \  |  |  /  |          
                  \  \/   | |  | |   /    \    | | | |  |  | /  /          
                 / \  \   | |__| |  /  /\  \   | |_| |  |  |/  /          
                |  |  |   |  __  | /  /__\  \  |    /   |      \           
                |  |  |   | |  | | |   __   |  |    \   |  |\   \          
                \     /   | |  | | |  |  |  |  | |\  \  |  | \   \       
                 \___/    |_|  |_| |__|  |__|  |_| \__\ |__|  \__/        
                                                                              
                      - O R C A' S   B I G   F R I E N D -                    
                                      &                                       
                       - I N T E G R A L  F E E D E R -                       
                                                                              
 v1 FN, 2020, v2 2021                                                         
------------------------------------------------------------------------------


Reading SHARK input file cc-pVDZ_i.SHARKINP.tmp ... ok
----------------------
SHARK INTEGRAL PACKAGE
----------------------

Number of atoms                             ...     37
Number of basis functions                   ...    425
Number of shells                            ...    255
Maximum angular momentum                    ...      2
Integral batch strategy                     ... SHARK/LIBINT Hybrid
RI-J (if used) integral strategy            ... SPLIT-RIJ (Revised 2003 algorithm where possible)
Printlevel                                  ...      1
Contraction scheme used                     ... PARTIAL GENERAL contraction
Coulomb Range Separation                    ... NOT USED
Exchange Range Separation                   ... NOT USED
Finite Nucleus Model                        ... NOT USED
Auxiliary Coulomb fitting basis             ... AVAILABLE
   # of basis functions in Aux-J            ...   2196
   # of shells in Aux-J                     ...    844
   Maximum angular momentum in Aux-J        ...      3
Auxiliary J/K fitting basis                 ... AVAILABLE
   # of basis functions in Aux-JK           ...   2196
   # of shells in Aux-JK                    ...    844
   Maximum angular momentum in Aux-JK       ...      3
Auxiliary Correlation fitting basis         ... AVAILABLE
   # of basis functions in Aux-C            ...   2196
   # of shells in Aux-C                     ...    844
   Maximum angular momentum in Aux-C        ...      3
Auxiliary 'external' fitting basis          ... NOT available
Integral threshold                          ...     1.000000e-10
Primitive cut-off                           ...     1.000000e-11
Primitive pair pre-selection threshold      ...     1.000000e-11

Calculating pre-screening integrals         ... done (  0.0 sec) Dimension = 255
Calculating pre-screening integrals (ORCA)  ... done (  0.1 sec) Dimension = 159
Organizing shell pair data                  ... done (  0.1 sec)
Shell pair information
Total number of shell pairs                 ...     32640
Shell pairs after pre-screening             ...     16238
Total number of primitive shell pairs       ...     54396
Primitive shell pairs kept                  ...     22620
          la=0 lb=0:   7241 shell pairs
          la=1 lb=0:   5667 shell pairs
          la=1 lb=1:    989 shell pairs
          la=2 lb=0:   1662 shell pairs
          la=2 lb=1:    582 shell pairs
          la=2 lb=2:     97 shell pairs

Calculating one electron integrals          ... done (  0.0 sec)
Calculating RI/J V-Matrix + Cholesky decomp.... done (  0.4 sec)
Calculating RI/JK V-Matrix + Cholesky decomp... done (  0.3 sec)
Calculating RI/C V-Matrix + Cholesky decomp.... done (  0.3 sec)
Calculating Nuclear repulsion               ... done (  0.0 sec) ENN=    969.243257158093 Eh

SHARK setup successfully completed in   1.5 seconds

Maximum memory used throughout the entire GTOINT-calculation: 26.0 MB


           ************************************************************
           *        Program running with 16 parallel MPI-processes    *
           *              working on a common directory               *
           ************************************************************
-------------------------------------------------------------------------------
                                 ORCA SCF
-------------------------------------------------------------------------------

------------
SCF SETTINGS
------------
Hamiltonian:
 Density Functional     Method          .... DFT(GTOs)
 Exchange Functional    Exchange        .... B88
   X-Alpha parameter    XAlpha          ....  0.666667
   Becke's b parameter  XBeta           ....  0.004200
 Correlation Functional Correlation     .... LYP
 LDA part of GGA corr.  LDAOpt          .... VWN-5
 Gradients option       PostSCFGGA      .... off
 Hybrid DFT is turned on
   Fraction HF Exchange ScalHFX         ....  0.200000
   Scaling of DF-GGA-X  ScalDFX         ....  0.720000
   Scaling of DF-GGA-C  ScalDFC         ....  0.810000
   Scaling of DF-LDA-C  ScalLDAC        ....  1.000000
   Perturbative correction              ....  0.000000
   Density functional embedding theory  .... OFF
   NL short-range parameter             ....  4.800000
 RI-approximation to the Coulomb term is turned on
   Number of AuxJ basis functions       .... 2196
   RIJ-COSX (HFX calculated with COS-X)).... on


General Settings:
 Integral files         IntName         .... cc-pVDZ_i
 Hartree-Fock type      HFTyp           .... UHF
 Total Charge           Charge          ....    0
 Multiplicity           Mult            ....    2
 Number of Electrons    NEL             ....  117
 Basis Dimension        Dim             ....  329
 Nuclear Repulsion      ENuc            ....    969.2432571581 Eh

Convergence Acceleration:
 DIIS                   CNVDIIS         .... on
   Start iteration      DIISMaxIt       ....    12
   Startup error        DIISStart       ....  0.200000
   # of expansion vecs  DIISMaxEq       ....     5
   Bias factor          DIISBfac        ....   1.050
   Max. coefficient     DIISMaxC        ....  10.000
 Trust-Rad. Augm. Hess. CNVTRAH         .... auto
   Auto Start mean grad. ratio tolernc. ....  1.125000
   Auto Start start iteration           ....    20
   Auto Start num. interpolation iter.  ....    10
   Max. Number of Micro iterations      ....    16
   Max. Number of Macro iterations      .... Maxiter - #DIIS iter
   Number of Davidson start vectors     ....     2
   Converg. threshold I  (grad. norm)   ....   5.000e-05
   Converg. threshold II (energy diff.) ....   1.000e-06
   Grad. Scal. Fac. for Micro threshold ....   0.100
   Minimum threshold for Micro iter.    ....   0.010
   NR start threshold (gradient norm)   ....   0.001
   Initial trust radius                 ....   0.400
   Minimum AH scaling param. (alpha)    ....   1.000
   Maximum AH scaling param. (alpha)    .... 1000.000
   Orbital update algorithm             .... Taylor
   White noise on init. David. guess    .... on
   Maximum white noise                  ....   0.010
   Quad. conv. algorithm                .... NR
 SOSCF                  CNVSOSCF        .... off
 Level Shifting         CNVShift        .... on
   Level shift para.    LevelShift      ....    0.2500
   Turn off err/grad.   ShiftErr        ....    0.0010
 Zerner damping         CNVZerner       .... off
 Static damping         CNVDamp         .... on
   Fraction old density DampFac         ....    0.7000
   Max. Damping (<1)    DampMax         ....    0.9800
   Min. Damping (>=0)   DampMin         ....    0.0000
   Turn off err/grad.   DampErr         ....    0.1000
 Fernandez-Rico         CNVRico         .... off

SCF Procedure:
 Maximum # iterations   MaxIter         ....   125
 SCF integral mode      SCFMode         .... Direct
   Integral package                     .... SHARK and LIBINT hybrid scheme
 Reset frequency        DirectResetFreq ....    20
 Integral Threshold     Thresh          ....  1.000e-10 Eh
 Primitive CutOff       TCut            ....  1.000e-11 Eh

Convergence Tolerance:
 Convergence Check Mode ConvCheckMode   .... Total+1el-Energy
 Convergence forced     ConvForced      .... 0
 Energy Change          TolE            ....  1.000e-06 Eh
 1-El. energy change                    ....  1.000e-03 Eh
 DIIS Error             TolErr          ....  1.000e-06


Diagonalization of the overlap matrix:
Smallest eigenvalue                        ... 1.556e-04
Time for diagonalization                   ...    0.022 sec
Threshold for overlap eigenvalues          ... 1.000e-08
Number of eigenvalues below threshold      ... 0
Time for construction of square roots      ...    0.030 sec
Total time needed                          ...    0.053 sec

Time for model grid setup =    0.210 sec

------------------------------
INITIAL GUESS: MODEL POTENTIAL
------------------------------
Loading Hartree-Fock densities                     ... done
Calculating cut-offs                               ... done
Initializing the effective Hamiltonian             ... done
Setting up the integral package (SHARK)            ... done
Starting the Coulomb interaction                   ... done (   0.2 sec)
Reading the grid                                   ... done
Mapping shells                                     ... done
Starting the XC term evaluation                    ... done (   0.1 sec)
  promolecular density results
     # of electrons  =    116.988151617
     EX              =    -88.402512392
     EC              =     -3.812504790
     EX+EC           =    -92.215017182
Transforming the Hamiltonian                       ... done (   0.0 sec)
Diagonalizing the Hamiltonian                      ... done (   0.0 sec)
Back transforming the eigenvectors                 ... done (   0.0 sec)
Now organizing SCF variables                       ... done
                      ------------------
                      INITIAL GUESS DONE (   0.7 sec)
                      ------------------
-------------------
DFT GRID GENERATION
-------------------

General Integration Accuracy     IntAcc      ... 4.388
Radial Grid Type                 RadialGrid  ... OptM3 with GC (2021)
Angular Grid (max. ang.)         AngularGrid ... 4 (Lebedev-302)
Angular grid pruning method      GridPruning ... 4 (adaptive)
Weight generation scheme         WeightScheme... Becke
Basis function cutoff            BFCut       ... 1.0000e-10
Integration weight cutoff        WCut        ... 1.0000e-14
Angular grids for H and He will be reduced by one unit
Partially contracted basis set               ... off
Rotationally invariant grid construction     ... off

Total number of grid points                  ...   162768
Total number of batches                      ...     2562
Average number of points per batch           ...       63
Average number of grid points per atom       ...     4399
Time for grid setup =    0.863 sec

--------------------
COSX GRID GENERATION
--------------------

GRIDX 1
-------
General Integration Accuracy     IntAcc      ... 3.816
Radial Grid Type                 RadialGrid  ... OptM3 with GC (2021)
Angular Grid (max. ang.)         AngularGrid ... 1 (Lebedev-50)
Angular grid pruning method      GridPruning ... 4 (adaptive)
Weight generation scheme         WeightScheme... Becke
Basis function cutoff            BFCut       ... 1.0000e-10
Integration weight cutoff        WCut        ... 1.0000e-14
Angular grids for H and He will be reduced by one unit
Partially contracted basis set               ... on
Rotationally invariant grid construction     ... off

Total number of grid points                  ...    20778
Total number of batches                      ...      346
Average number of points per batch           ...       60
Average number of grid points per atom       ...      562
UseSFitting                                  ... on

GRIDX 2
-------
General Integration Accuracy     IntAcc      ... 4.020
Radial Grid Type                 RadialGrid  ... OptM3 with GC (2021)
Angular Grid (max. ang.)         AngularGrid ... 2 (Lebedev-110)
Angular grid pruning method      GridPruning ... 4 (adaptive)
Weight generation scheme         WeightScheme... Becke
Basis function cutoff            BFCut       ... 1.0000e-10
Integration weight cutoff        WCut        ... 1.0000e-14
Angular grids for H and He will be reduced by one unit
Partially contracted basis set               ... on
Rotationally invariant grid construction     ... off

Total number of grid points                  ...    43896
Total number of batches                      ...      706
Average number of points per batch           ...       62
Average number of grid points per atom       ...     1186
UseSFitting                                  ... on

GRIDX 3
-------
General Integration Accuracy     IntAcc      ... 4.338
Radial Grid Type                 RadialGrid  ... OptM3 with GC (2021)
Angular Grid (max. ang.)         AngularGrid ... 3 (Lebedev-194)
Angular grid pruning method      GridPruning ... 4 (adaptive)
Weight generation scheme         WeightScheme... Becke
Basis function cutoff            BFCut       ... 1.0000e-10
Integration weight cutoff        WCut        ... 1.0000e-14
Angular grids for H and He will be reduced by one unit
Partially contracted basis set               ... on
Rotationally invariant grid construction     ... off

Total number of grid points                  ...    95920
Total number of batches                      ...     1518
Average number of points per batch           ...       63
Average number of grid points per atom       ...     2592
UseSFitting                                  ... on

Time for X-Grid setup             =    1.538 sec

 re-compute Schwartz prescreening matrix in partically contracted basis (1) ...done (   0.101 sec)
--------------
SCF ITERATIONS
--------------
ITER       Energy         Delta-E        Max-DP      RMS-DP      [F,P]     Damp
               ***  Starting incremental Fock matrix formation  ***
  0   -621.4393664016   0.000000000000 0.06516598  0.00093018  0.0869964 0.7000
  1   -621.6263539278  -0.186987526213 0.04777211  0.00068603  0.0458571 0.7000
                               ***Turning on DIIS***
  2   -621.7092727584  -0.082918830513 0.09302640  0.00129174  0.0175705 0.0000
  3   -621.8250290212  -0.115756262848 0.01902057  0.00037142  0.0249280 0.0000
  4   -621.8569485500  -0.031919528840 0.00861151  0.00012963  0.0064600 0.0000
  5   -621.8589677618  -0.002019211792 0.00334186  0.00004594  0.0032318 0.0000
  6   -621.8592642453  -0.000296483450 0.00329428  0.00002693  0.0018864 0.0000
  7   -621.8593688259  -0.000104580581 0.00153630  0.00001678  0.0013103 0.0000
  8   -621.8594163146  -0.000047488739 0.00205446  0.00002596  0.0007865 0.0000
               *** Restarting incremental Fock matrix formation ***
                                   *** Resetting DIIS ***
  9   -621.8597302339  -0.000313919287 0.00108937  0.00001259  0.0006226 0.0000
 10   -621.8597285960   0.000001637918 0.00038033  0.00000406  0.0012143 0.0000
 11   -621.8597362044  -0.000007608398 0.00037843  0.00000395  0.0004398 0.0000
 12   -621.8597382669  -0.000002062513 0.00047190  0.00000473  0.0001351 0.0000
 13   -621.8597393721  -0.000001105236 0.00017606  0.00000155  0.0001050 0.0000
 14   -621.8597396115  -0.000000239362 0.00011868  0.00000118  0.0000611 0.0000
                 **** Energy Check signals convergence ****

               *****************************************************
               *                     SUCCESS                       *
               *           SCF CONVERGED AFTER  15 CYCLES          *
               *****************************************************

Old exchange energy                            =    -18.069030210 Eh
New exchange energy                            =    -18.069122939 Eh
Exchange energy change after final integration =     -0.000092728 Eh
Total energy after final integration           =   -621.859832360 Eh
Final COS-X integration done in                =     3.652 sec

----------------
TOTAL SCF ENERGY
----------------

Total Energy       :         -621.85983236 Eh          -16921.66632 eV

Components:
Nuclear Repulsion  :          969.24325716 Eh           26374.44988 eV
Electronic Energy  :        -1591.10308952 Eh          -43296.11620 eV
One Electron Energy:        -2760.69645738 Eh          -75122.36975 eV
Two Electron Energy:         1169.59336786 Eh           31826.25356 eV
Max COSX asymmetry :            0.00000043 Eh               0.00001 eV

Virial components:
Potential Energy   :        -1239.23839645 Eh          -33721.39113 eV
Kinetic Energy     :          617.37856409 Eh           16799.72481 eV
Virial Ratio       :            2.00725854


DFT components:
N(Alpha)           :       59.000108671623 electrons
N(Beta)            :       58.000102642141 electrons
N(Total)           :      117.000211313765 electrons
E(X)               :      -71.622412043037 Eh       
E(C)               :       -4.507464494614 Eh       
E(XC)              :      -76.129876537651 Eh       
DFET-embed. en.    :        0.000000000000 Eh       

---------------
SCF CONVERGENCE
---------------

  Last Energy change         ...   -2.0804e-08  Tolerance :   1.0000e-06
  Last MAX-Density change    ...    0.0000e+00  Tolerance :   1.0000e-05
  Last RMS-Density change    ...    0.0000e+00  Tolerance :   1.0000e-06
  Last DIIS Error            ...    1.1838e-05  Tolerance :   1.0000e-06

             **** THE GBW FILE WAS UPDATED (cc-pVDZ_i.gbw) ****
             **** DENSITY cc-pVDZ_i.scfp WAS UPDATED ****
             **** ENERGY FILE WAS UPDATED (cc-pVDZ_i.en.tmp) ****
----------------------
UHF SPIN CONTAMINATION
----------------------

Warning: in a DFT calculation there is little theoretical justification to 
         calculate <S**2> as in Hartree-Fock theory. We will do it anyways
         but you should keep in mind that the values have only limited relevance

Expectation value of <S**2>     :     0.781586
Ideal value S*(S+1) for S=0.5   :     0.750000
Deviation                       :     0.031586

             **** THE GBW FILE WAS UPDATED (cc-pVDZ_i.gbw) ****
             **** DENSITY cc-pVDZ_i.scfp WAS UPDATED ****
----------------
ORBITAL ENERGIES
----------------
                 SPIN UP ORBITALS
  NO   OCC          E(Eh)            E(eV) 
   0   1.0000     -10.207393      -277.7573 
   1   1.0000     -10.199199      -277.5343 
   2   1.0000     -10.192017      -277.3389 
   3   1.0000     -10.191435      -277.3231 
   4   1.0000     -10.190778      -277.3052 
   5   1.0000     -10.189331      -277.2658 
   6   1.0000     -10.188426      -277.2412 
   7   1.0000     -10.187091      -277.2048 
   8   1.0000     -10.184287      -277.1285 
   9   1.0000     -10.184211      -277.1265 
  10   1.0000     -10.183998      -277.1207 
  11   1.0000     -10.182610      -277.0829 
  12   1.0000     -10.180731      -277.0318 
  13   1.0000     -10.180521      -277.0261 
  14   1.0000     -10.176972      -276.9295 
  15   1.0000     -10.175106      -276.8787 
  16   1.0000      -0.865752       -23.5583 
  17   1.0000      -0.814438       -22.1620 
  18   1.0000      -0.794865       -21.6294 
  19   1.0000      -0.780034       -21.2258 
  20   1.0000      -0.763604       -20.7787 
  21   1.0000      -0.730559       -19.8795 
  22   1.0000      -0.723543       -19.6886 
  23   1.0000      -0.696225       -18.9453 
  24   1.0000      -0.653545       -17.7839 
  25   1.0000      -0.622607       -16.9420 
  26   1.0000      -0.612888       -16.6775 
  27   1.0000      -0.588274       -16.0078 
  28   1.0000      -0.578673       -15.7465 
  29   1.0000      -0.559113       -15.2142 
  30   1.0000      -0.525803       -14.3078 
  31   1.0000      -0.494640       -13.4598 
  32   1.0000      -0.472569       -12.8592 
  33   1.0000      -0.469141       -12.7660 
  34   1.0000      -0.462228       -12.5779 
  35   1.0000      -0.461709       -12.5637 
  36   1.0000      -0.428523       -11.6607 
  37   1.0000      -0.426133       -11.5957 
  38   1.0000      -0.422487       -11.4965 
  39   1.0000      -0.419432       -11.4133 
  40   1.0000      -0.410232       -11.1630 
  41   1.0000      -0.395343       -10.7578 
  42   1.0000      -0.387689       -10.5495 
  43   1.0000      -0.375293       -10.2122 
  44   1.0000      -0.374348       -10.1865 
  45   1.0000      -0.362848        -9.8736 
  46   1.0000      -0.348021        -9.4701 
  47   1.0000      -0.347617        -9.4591 
  48   1.0000      -0.338180        -9.2023 
  49   1.0000      -0.331267        -9.0142 
  50   1.0000      -0.330496        -8.9933 
  51   1.0000      -0.324916        -8.8414 
  52   1.0000      -0.322439        -8.7740 
  53   1.0000      -0.321186        -8.7399 
  54   1.0000      -0.307956        -8.3799 
  55   1.0000      -0.271989        -7.4012 
  56   1.0000      -0.267886        -7.2896 
  57   1.0000      -0.236259        -6.4289 
  58   1.0000      -0.171283        -4.6608 
  59   0.0000      -0.031426        -0.8552 
  60   0.0000       0.015246         0.4149 
  61   0.0000       0.048164         1.3106 
  62   0.0000       0.063216         1.7202 
  63   0.0000       0.063829         1.7369 
  64   0.0000       0.077496         2.1088 
  65   0.0000       0.083978         2.2852 
  66   0.0000       0.088720         2.4142 
  67   0.0000       0.088950         2.4205 
  68   0.0000       0.094493         2.5713 
  69   0.0000       0.097159         2.6438 
  70   0.0000       0.098659         2.6846 
  71   0.0000       0.104389         2.8406 
  72   0.0000       0.112070         3.0496 
  73   0.0000       0.129640         3.5277 
  74   0.0000       0.132723         3.6116 
  75   0.0000       0.147215         4.0059 
  76   0.0000       0.149371         4.0646 
  77   0.0000       0.149557         4.0697 
  78   0.0000       0.160261         4.3609 
  79   0.0000       0.163142         4.4393 
  80   0.0000       0.168013         4.5719 
  81   0.0000       0.169634         4.6160 
  82   0.0000       0.172122         4.6837 
  83   0.0000       0.181128         4.9287 
  84   0.0000       0.191923         5.2225 
  85   0.0000       0.206295         5.6136 
  86   0.0000       0.213077         5.7981 
  87   0.0000       0.224665         6.1134 
  88   0.0000       0.229099         6.2341 
  89   0.0000       0.238933         6.5017 
  90   0.0000       0.255377         6.9492 
  91   0.0000       0.262463         7.1420 
  92   0.0000       0.283262         7.7079 
  93   0.0000       0.301107         8.1935 
  94   0.0000       0.319182         8.6854 
  95   0.0000       0.341722         9.2987 
  96   0.0000       0.346887         9.4393 
  97   0.0000       0.363690         9.8965 
  98   0.0000       0.368704        10.0329 
  99   0.0000       0.403111        10.9692 
 100   0.0000       0.411051        11.1853 
 101   0.0000       0.413233        11.2446 
 102   0.0000       0.413498        11.2519 
 103   0.0000       0.421532        11.4705 
 104   0.0000       0.431025        11.7288 
 105   0.0000       0.445461        12.1216 
 106   0.0000       0.454110        12.3570 
 107   0.0000       0.466115        12.6836 
 108   0.0000       0.466411        12.6917 
 109   0.0000       0.479942        13.0599 
 110   0.0000       0.482115        13.1190 
 111   0.0000       0.485909        13.2223 
 112   0.0000       0.492881        13.4120 
 113   0.0000       0.509112        13.8536 
 114   0.0000       0.513488        13.9727 
 115   0.0000       0.518691        14.1143 
 116   0.0000       0.522881        14.2283 
 117   0.0000       0.527856        14.3637 
 118   0.0000       0.535371        14.5682 
 119   0.0000       0.545531        14.8447 
 120   0.0000       0.554536        15.0897 
 121   0.0000       0.560542        15.2531 
 122   0.0000       0.569540        15.4980 
 123   0.0000       0.592325        16.1180 
 124   0.0000       0.595593        16.2069 
 125   0.0000       0.605611        16.4795 
 126   0.0000       0.616381        16.7726 
 127   0.0000       0.616644        16.7797 
 128   0.0000       0.620789        16.8925 
 129   0.0000       0.621340        16.9075 
 130   0.0000       0.640337        17.4245 
 131   0.0000       0.641097        17.4451 
 132   0.0000       0.644604        17.5406 
 133   0.0000       0.645194        17.5566 
 134   0.0000       0.652697        17.7608 
 135   0.0000       0.654632        17.8135 
 136   0.0000       0.658913        17.9299 
 137   0.0000       0.660701        17.9786 
 138   0.0000       0.662194        18.0192 
 139   0.0000       0.663575        18.0568 
 140   0.0000       0.668475        18.1901 
 141   0.0000       0.671940        18.2844 
 142   0.0000       0.684000        18.6126 
 143   0.0000       0.689074        18.7507 
 144   0.0000       0.690898        18.8003 
 145   0.0000       0.694836        18.9074 
 146   0.0000       0.696478        18.9521 
 147   0.0000       0.704899        19.1813 
 148   0.0000       0.711424        19.3588 
 149   0.0000       0.714255        19.4359 
 150   0.0000       0.729832        19.8597 
 151   0.0000       0.733424        19.9575 
 152   0.0000       0.733716        19.9654 
 153   0.0000       0.743251        20.2249 
 154   0.0000       0.747709        20.3462 
 155   0.0000       0.753352        20.4998 
 156   0.0000       0.764372        20.7996 
 157   0.0000       0.785418        21.3723 
 158   0.0000       0.814207        22.1557 
 159   0.0000       0.819510        22.3000 
 160   0.0000       0.832983        22.6666 
 161   0.0000       0.836980        22.7754 
 162   0.0000       0.842667        22.9301 
 163   0.0000       0.871858        23.7245 
 164   0.0000       0.888312        24.1722 
 165   0.0000       0.904935        24.6245 
 166   0.0000       0.920586        25.0504 
 167   0.0000       0.923895        25.1405 
 168   0.0000       0.941173        25.6106 
 169   0.0000       0.950775        25.8719 
 170   0.0000       0.958638        26.0859 
 171   0.0000       0.994591        27.0642 
 172   0.0000       0.995358        27.0851 
 173   0.0000       1.011765        27.5315 
 174   0.0000       1.018817        27.7234 
 175   0.0000       1.037869        28.2418 
 176   0.0000       1.040466        28.3125 
 177   0.0000       1.053615        28.6703 
 178   0.0000       1.061128        28.8748 
 179   0.0000       1.069117        29.0922 
 180   0.0000       1.082026        29.4434 
 181   0.0000       1.082957        29.4688 
 182   0.0000       1.134562        30.8730 
 183   0.0000       1.160587        31.5812 
 184   0.0000       1.186431        32.2844 
 185   0.0000       1.205838        32.8125 
 186   0.0000       1.209496        32.9120 
 187   0.0000       1.210902        32.9503 
 188   0.0000       1.218327        33.1524 
 189   0.0000       1.219261        33.1778 
 190   0.0000       1.224703        33.3259 
 191   0.0000       1.227146        33.3923 
 192   0.0000       1.233645        33.5692 
 193   0.0000       1.253634        34.1131 
 194   0.0000       1.286211        34.9996 
 195   0.0000       1.294988        35.2384 
 196   0.0000       1.311798        35.6958 
 197   0.0000       1.323373        36.0108 
 198   0.0000       1.340469        36.4760 
 199   0.0000       1.342383        36.5281 
 200   0.0000       1.346231        36.6328 
 201   0.0000       1.374544        37.4032 
 202   0.0000       1.379330        37.5335 
 203   0.0000       1.392817        37.9005 
 204   0.0000       1.414665        38.4950 
 205   0.0000       1.425342        38.7855 
 206   0.0000       1.426923        38.8286 
 207   0.0000       1.427097        38.8333 
 208   0.0000       1.433825        39.0164 
 209   0.0000       1.445022        39.3210 
 210   0.0000       1.465444        39.8768 
 211   0.0000       1.469067        39.9753 
 212   0.0000       1.470788        40.0222 
 213   0.0000       1.492184        40.6044 
 214   0.0000       1.500128        40.8206 
 215   0.0000       1.523192        41.4482 
 216   0.0000       1.531683        41.6792 
 217   0.0000       1.546180        42.0737 
 218   0.0000       1.572974        42.8028 
 219   0.0000       1.579116        42.9699 
 220   0.0000       1.591954        43.3193 
 221   0.0000       1.596084        43.4317 
 222   0.0000       1.602797        43.6143 
 223   0.0000       1.616923        43.9987 
 224   0.0000       1.623376        44.1743 
 225   0.0000       1.627137        44.2766 
 226   0.0000       1.630676        44.3730 
 227   0.0000       1.632839        44.4318 
 228   0.0000       1.635479        44.5036 
 229   0.0000       1.640202        44.6322 
 230   0.0000       1.645684        44.7813 
 231   0.0000       1.653054        44.9819 
 232   0.0000       1.658321        45.1252 
 233   0.0000       1.671339        45.4794 
 234   0.0000       1.678612        45.6774 
 235   0.0000       1.684067        45.8258 
 236   0.0000       1.686252        45.8852 
 237   0.0000       1.693770        46.0898 
 238   0.0000       1.696113        46.1536 
 239   0.0000       1.702148        46.3178 
 240   0.0000       1.704663        46.3862 
 241   0.0000       1.709231        46.5105 
 242   0.0000       1.713718        46.6326 
 243   0.0000       1.724199        46.9178 
 244   0.0000       1.732691        47.1489 
 245   0.0000       1.742097        47.4049 
 246   0.0000       1.752015        47.6747 
 247   0.0000       1.755774        47.7770 
 248   0.0000       1.760246        47.8987 
 249   0.0000       1.776475        48.3403 
 250   0.0000       1.780736        48.4563 
 251   0.0000       1.791617        48.7524 
 252   0.0000       1.797280        48.9065 
 253   0.0000       1.798359        48.9358 
 254   0.0000       1.817404        49.4541 
 255   0.0000       1.820923        49.5498 
 256   0.0000       1.824368        49.6436 
 257   0.0000       1.837452        49.9996 
 258   0.0000       1.859986        50.6128 
 259   0.0000       1.878603        51.1194 
 260   0.0000       1.878898        51.1274 
 261   0.0000       1.894243        51.5450 
 262   0.0000       1.910697        51.9927 
 263   0.0000       1.920753        52.2664 
 264   0.0000       1.929161        52.4951 
 265   0.0000       1.938112        52.7387 
 266   0.0000       1.941626        52.8343 
 267   0.0000       1.950222        53.0682 
 268   0.0000       1.971159        53.6380 
 269   0.0000       1.997105        54.3440 
 270   0.0000       2.001727        54.4698 
 271   0.0000       2.011246        54.7288 
 272   0.0000       2.030785        55.2605 
 273   0.0000       2.043776        55.6140 
 274   0.0000       2.063433        56.1489 
 275   0.0000       2.076871        56.5145 
 276   0.0000       2.090494        56.8852 
 277   0.0000       2.091398        56.9098 
 278   0.0000       2.116048        57.5806 
 279   0.0000       2.135861        58.1197 
 280   0.0000       2.154017        58.6138 
 281   0.0000       2.158853        58.7454 
 282   0.0000       2.170311        59.0572 
 283   0.0000       2.180406        59.3319 
 284   0.0000       2.184689        59.4484 
 285   0.0000       2.202622        59.9364 
 286   0.0000       2.207771        60.0765 
 287   0.0000       2.221653        60.4542 
 288   0.0000       2.224404        60.5291 
 289   0.0000       2.227426        60.6113 
 290   0.0000       2.263927        61.6046 
 291   0.0000       2.279381        62.0251 
 292   0.0000       2.288305        62.2679 
 293   0.0000       2.294967        62.4492 
 294   0.0000       2.298927        62.5570 
 295   0.0000       2.303305        62.6761 
 296   0.0000       2.321678        63.1761 
 297   0.0000       2.334270        63.5187 
 298   0.0000       2.353028        64.0292 
 299   0.0000       2.355763        64.1036 
 300   0.0000       2.405980        65.4700 
 301   0.0000       2.410467        65.5921 
 302   0.0000       2.412629        65.6510 
 303   0.0000       2.413508        65.6749 
 304   0.0000       2.413596        65.6773 
 305   0.0000       2.426988        66.0417 
 306   0.0000       2.446136        66.5627 
 307   0.0000       2.466159        67.1076 
 308   0.0000       2.474981        67.3477 
 309   0.0000       2.507110        68.2219 
 310   0.0000       2.536136        69.0118 
 311   0.0000       2.536852        69.0312 
 312   0.0000       2.557438        69.5914 
 313   0.0000       2.596661        70.6587 
 314   0.0000       2.597194        70.6732 
 315   0.0000       2.626792        71.4786 
 316   0.0000       2.641708        71.8845 
 317   0.0000       2.680603        72.9429 
 318   0.0000       2.688890        73.1684 
 319   0.0000       2.714562        73.8670 
 320   0.0000       2.722976        74.0959 
 321   0.0000       2.742106        74.6165 
 322   0.0000       2.771316        75.4114 
 323   0.0000       2.820274        76.7436 
 324   0.0000       2.837317        77.2073 
 325   0.0000       2.930841        79.7522 
 326   0.0000       2.989697        81.3538 
 327   0.0000       3.196283        86.9753 
 328   0.0000       3.434684        93.4625 

                 SPIN DOWN ORBITALS
  NO   OCC          E(Eh)            E(eV) 
   0   1.0000     -10.208916      -277.7987 
   1   1.0000     -10.195672      -277.4383 
   2   1.0000     -10.194329      -277.4018 
   3   1.0000     -10.188062      -277.2313 
   4   1.0000     -10.187813      -277.2245 
   5   1.0000     -10.187651      -277.2201 
   6   1.0000     -10.186263      -277.1823 
   7   1.0000     -10.185696      -277.1669 
   8   1.0000     -10.184421      -277.1322 
   9   1.0000     -10.183955      -277.1195 
  10   1.0000     -10.183180      -277.0984 
  11   1.0000     -10.180996      -277.0390 
  12   1.0000     -10.180731      -277.0318 
  13   1.0000     -10.180519      -277.0260 
  14   1.0000     -10.176980      -276.9297 
  15   1.0000     -10.175108      -276.8788 
  16   1.0000      -0.862257       -23.4632 
  17   1.0000      -0.808567       -22.0022 
  18   1.0000      -0.793266       -21.5859 
  19   1.0000      -0.779330       -21.2067 
  20   1.0000      -0.761426       -20.7194 
  21   1.0000      -0.726438       -19.7674 
  22   1.0000      -0.721473       -19.6323 
  23   1.0000      -0.693921       -18.8825 
  24   1.0000      -0.650393       -17.6981 
  25   1.0000      -0.619930       -16.8691 
  26   1.0000      -0.607261       -16.5244 
  27   1.0000      -0.587171       -15.9777 
  28   1.0000      -0.576477       -15.6867 
  29   1.0000      -0.556456       -15.1419 
  30   1.0000      -0.524103       -14.2616 
  31   1.0000      -0.492235       -13.3944 
  32   1.0000      -0.470455       -12.8017 
  33   1.0000      -0.468321       -12.7437 
  34   1.0000      -0.460395       -12.5280 
  35   1.0000      -0.458219       -12.4688 
  36   1.0000      -0.426228       -11.5983 
  37   1.0000      -0.424982       -11.5643 
  38   1.0000      -0.421515       -11.4700 
  39   1.0000      -0.416937       -11.3454 
  40   1.0000      -0.409734       -11.1494 
  41   1.0000      -0.387492       -10.5442 
  42   1.0000      -0.386430       -10.5153 
  43   1.0000      -0.372213       -10.1284 
  44   1.0000      -0.370753       -10.0887 
  45   1.0000      -0.361831        -9.8459 
  46   1.0000      -0.346587        -9.4311 
  47   1.0000      -0.344973        -9.3872 
  48   1.0000      -0.336092        -9.1455 
  49   1.0000      -0.330618        -8.9966 
  50   1.0000      -0.328506        -8.9391 
  51   1.0000      -0.324411        -8.8277 
  52   1.0000      -0.321859        -8.7582 
  53   1.0000      -0.320275        -8.7151 
  54   1.0000      -0.305559        -8.3147 
  55   1.0000      -0.271902        -7.3988 
  56   1.0000      -0.252751        -6.8777 
  57   1.0000      -0.228031        -6.2050 
  58   0.0000      -0.074550        -2.0286 
  59   0.0000      -0.022331        -0.6076 
  60   0.0000       0.033063         0.8997 
  61   0.0000       0.048589         1.3222 
  62   0.0000       0.063805         1.7362 
  63   0.0000       0.064007         1.7417 
  64   0.0000       0.078750         2.1429 
  65   0.0000       0.084700         2.3048 
  66   0.0000       0.089461         2.4344 
  67   0.0000       0.092037         2.5044 
  68   0.0000       0.094400         2.5688 
  69   0.0000       0.098178         2.6716 
  70   0.0000       0.099063         2.6956 
  71   0.0000       0.105163         2.8616 
  72   0.0000       0.112573         3.0633 
  73   0.0000       0.130472         3.5503 
  74   0.0000       0.133171         3.6238 
  75   0.0000       0.147434         4.0119 
  76   0.0000       0.150606         4.0982 
  77   0.0000       0.151193         4.1142 
  78   0.0000       0.160893         4.3781 
  79   0.0000       0.163380         4.4458 
  80   0.0000       0.169053         4.6002 
  81   0.0000       0.171303         4.6614 
  82   0.0000       0.175769         4.7829 
  83   0.0000       0.181443         4.9373 
  84   0.0000       0.196163         5.3379 
  85   0.0000       0.207343         5.6421 
  86   0.0000       0.213733         5.8160 
  87   0.0000       0.224881         6.1193 
  88   0.0000       0.232061         6.3147 
  89   0.0000       0.240621         6.5476 
  90   0.0000       0.255961         6.9650 
  91   0.0000       0.265569         7.2265 
  92   0.0000       0.283439         7.7128 
  93   0.0000       0.303526         8.2594 
  94   0.0000       0.319517         8.6945 
  95   0.0000       0.343394         9.3442 
  96   0.0000       0.348379         9.4799 
  97   0.0000       0.364959         9.9310 
  98   0.0000       0.370401        10.0791 
  99   0.0000       0.404739        11.0135 
 100   0.0000       0.411282        11.1916 
 101   0.0000       0.413652        11.2560 
 102   0.0000       0.414024        11.2662 
 103   0.0000       0.422098        11.4859 
 104   0.0000       0.434630        11.8269 
 105   0.0000       0.457019        12.4361 
 106   0.0000       0.461219        12.5504 
 107   0.0000       0.466909        12.7053 
 108   0.0000       0.470300        12.7975 
 109   0.0000       0.482392        13.1265 
 110   0.0000       0.488562        13.2944 
 111   0.0000       0.491080        13.3630 
 112   0.0000       0.495581        13.4854 
 113   0.0000       0.510526        13.8921 
 114   0.0000       0.514522        14.0009 
 115   0.0000       0.523802        14.2534 
 116   0.0000       0.525354        14.2956 
 117   0.0000       0.538119        14.6430 
 118   0.0000       0.539037        14.6679 
 119   0.0000       0.546386        14.8679 
 120   0.0000       0.555740        15.1224 
 121   0.0000       0.571200        15.5431 
 122   0.0000       0.573804        15.6140 
 123   0.0000       0.594209        16.1692 
 124   0.0000       0.597099        16.2479 
 125   0.0000       0.606500        16.5037 
 126   0.0000       0.617210        16.7951 
 127   0.0000       0.618494        16.8301 
 128   0.0000       0.621801        16.9201 
 129   0.0000       0.626512        17.0483 
 130   0.0000       0.640811        17.4373 
 131   0.0000       0.641244        17.4491 
 132   0.0000       0.645362        17.5612 
 133   0.0000       0.648136        17.6367 
 134   0.0000       0.653431        17.7808 
 135   0.0000       0.656130        17.8542 
 136   0.0000       0.659253        17.9392 
 137   0.0000       0.661526        18.0010 
 138   0.0000       0.662485        18.0271 
 139   0.0000       0.666559        18.1380 
 140   0.0000       0.670145        18.2356 
 141   0.0000       0.673406        18.3243 
 142   0.0000       0.685647        18.6574 
 143   0.0000       0.689477        18.7616 
 144   0.0000       0.691821        18.8254 
 145   0.0000       0.695930        18.9372 
 146   0.0000       0.697576        18.9820 
 147   0.0000       0.705825        19.2065 
 148   0.0000       0.712787        19.3959 
 149   0.0000       0.716527        19.4977 
 150   0.0000       0.730602        19.8807 
 151   0.0000       0.734905        19.9978 
 152   0.0000       0.738771        20.1030 
 153   0.0000       0.746477        20.3127 
 154   0.0000       0.749436        20.3932 
 155   0.0000       0.755338        20.5538 
 156   0.0000       0.765295        20.8247 
 157   0.0000       0.788467        21.4553 
 158   0.0000       0.815355        22.1869 
 159   0.0000       0.821723        22.3602 
 160   0.0000       0.835186        22.7266 
 161   0.0000       0.837882        22.7999 
 162   0.0000       0.843765        22.9600 
 163   0.0000       0.875257        23.8170 
 164   0.0000       0.892190        24.2777 
 165   0.0000       0.905782        24.6476 
 166   0.0000       0.926902        25.2223 
 167   0.0000       0.928021        25.2527 
 168   0.0000       0.951497        25.8915 
 169   0.0000       0.952524        25.9195 
 170   0.0000       0.961396        26.1609 
 171   0.0000       0.995200        27.0808 
 172   0.0000       0.997599        27.1460 
 173   0.0000       1.013719        27.5847 
 174   0.0000       1.022895        27.8344 
 175   0.0000       1.040051        28.3012 
 176   0.0000       1.041330        28.3360 
 177   0.0000       1.058386        28.8002 
 178   0.0000       1.062433        28.9103 
 179   0.0000       1.069043        29.0901 
 180   0.0000       1.085307        29.5327 
 181   0.0000       1.085512        29.5383 
 182   0.0000       1.135492        30.8983 
 183   0.0000       1.160393        31.5759 
 184   0.0000       1.187527        32.3142 
 185   0.0000       1.206173        32.8216 
 186   0.0000       1.210091        32.9282 
 187   0.0000       1.211823        32.9754 
 188   0.0000       1.218889        33.1677 
 189   0.0000       1.220579        33.2136 
 190   0.0000       1.225071        33.3359 
 191   0.0000       1.228096        33.4182 
 192   0.0000       1.236744        33.6535 
 193   0.0000       1.254348        34.1325 
 194   0.0000       1.287402        35.0320 
 195   0.0000       1.296941        35.2916 
 196   0.0000       1.312616        35.7181 
 197   0.0000       1.328019        36.1372 
 198   0.0000       1.341698        36.5095 
 199   0.0000       1.343222        36.5509 
 200   0.0000       1.359071        36.9822 
 201   0.0000       1.376682        37.4614 
 202   0.0000       1.379954        37.5505 
 203   0.0000       1.397781        38.0355 
 204   0.0000       1.416429        38.5430 
 205   0.0000       1.425445        38.7883 
 206   0.0000       1.426945        38.8292 
 207   0.0000       1.428545        38.8727 
 208   0.0000       1.442840        39.2617 
 209   0.0000       1.446307        39.3560 
 210   0.0000       1.468118        39.9495 
 211   0.0000       1.469732        39.9935 
 212   0.0000       1.473475        40.0953 
 213   0.0000       1.495713        40.7004 
 214   0.0000       1.501919        40.8693 
 215   0.0000       1.525478        41.5104 
 216   0.0000       1.533761        41.7358 
 217   0.0000       1.550443        42.1897 
 218   0.0000       1.574822        42.8531 
 219   0.0000       1.581853        43.0444 
 220   0.0000       1.592898        43.3450 
 221   0.0000       1.598481        43.4969 
 222   0.0000       1.603747        43.6402 
 223   0.0000       1.617817        44.0230 
 224   0.0000       1.623864        44.1876 
 225   0.0000       1.629187        44.3324 
 226   0.0000       1.631060        44.3834 
 227   0.0000       1.634662        44.4814 
 228   0.0000       1.637072        44.5470 
 229   0.0000       1.640732        44.6466 
 230   0.0000       1.646260        44.7970 
 231   0.0000       1.653977        45.0070 
 232   0.0000       1.659385        45.1542 
 233   0.0000       1.674385        45.5623 
 234   0.0000       1.679390        45.6985 
 235   0.0000       1.684789        45.8454 
 236   0.0000       1.686526        45.8927 
 237   0.0000       1.696159        46.1548 
 238   0.0000       1.696562        46.1658 
 239   0.0000       1.703322        46.3498 
 240   0.0000       1.705872        46.4191 
 241   0.0000       1.711424        46.5702 
 242   0.0000       1.714973        46.6668 
 243   0.0000       1.724988        46.9393 
 244   0.0000       1.733643        47.1748 
 245   0.0000       1.746332        47.5201 
 246   0.0000       1.754662        47.7468 
 247   0.0000       1.757001        47.8104 
 248   0.0000       1.760693        47.9109 
 249   0.0000       1.778299        48.3900 
 250   0.0000       1.783630        48.5350 
 251   0.0000       1.793562        48.8053 
 252   0.0000       1.799458        48.9657 
 253   0.0000       1.800409        48.9916 
 254   0.0000       1.820275        49.5322 
 255   0.0000       1.823218        49.6123 
 256   0.0000       1.826611        49.7046 
 257   0.0000       1.840093        50.0715 
 258   0.0000       1.860876        50.6370 
 259   0.0000       1.879629        51.1473 
 260   0.0000       1.888201        51.3806 
 261   0.0000       1.894486        51.5516 
 262   0.0000       1.911762        52.0217 
 263   0.0000       1.924555        52.3698 
 264   0.0000       1.930671        52.5362 
 265   0.0000       1.938215        52.7415 
 266   0.0000       1.944548        52.9139 
 267   0.0000       1.951585        53.1053 
 268   0.0000       1.973218        53.6940 
 269   0.0000       2.002125        54.4806 
 270   0.0000       2.004784        54.5530 
 271   0.0000       2.011952        54.7480 
 272   0.0000       2.035499        55.3887 
 273   0.0000       2.047595        55.7179 
 274   0.0000       2.064605        56.1807 
 275   0.0000       2.077830        56.5406 
 276   0.0000       2.091013        56.8994 
 277   0.0000       2.095479        57.0209 
 278   0.0000       2.119591        57.6770 
 279   0.0000       2.139184        58.2102 
 280   0.0000       2.156758        58.6884 
 281   0.0000       2.162130        58.8345 
 282   0.0000       2.174705        59.1767 
 283   0.0000       2.181201        59.3535 
 284   0.0000       2.188527        59.5528 
 285   0.0000       2.203196        59.9520 
 286   0.0000       2.210472        60.1500 
 287   0.0000       2.223962        60.5171 
 288   0.0000       2.225246        60.5520 
 289   0.0000       2.229235        60.6606 
 290   0.0000       2.264519        61.6207 
 291   0.0000       2.282453        62.1087 
 292   0.0000       2.289189        62.2920 
 293   0.0000       2.295869        62.4738 
 294   0.0000       2.300824        62.6086 
 295   0.0000       2.306812        62.7715 
 296   0.0000       2.321895        63.1820 
 297   0.0000       2.335758        63.5592 
 298   0.0000       2.356653        64.1278 
 299   0.0000       2.358164        64.1689 
 300   0.0000       2.407034        65.4987 
 301   0.0000       2.411469        65.6194 
 302   0.0000       2.413044        65.6623 
 303   0.0000       2.414209        65.6940 
 304   0.0000       2.414810        65.7103 
 305   0.0000       2.428807        66.0912 
 306   0.0000       2.447251        66.5931 
 307   0.0000       2.468245        67.1644 
 308   0.0000       2.475685        67.3668 
 309   0.0000       2.508049        68.2475 
 310   0.0000       2.536826        69.0305 
 311   0.0000       2.538042        69.0636 
 312   0.0000       2.558423        69.6182 
 313   0.0000       2.597409        70.6791 
 314   0.0000       2.597966        70.6943 
 315   0.0000       2.628064        71.5133 
 316   0.0000       2.643148        71.9237 
 317   0.0000       2.682598        72.9972 
 318   0.0000       2.690237        73.2051 
 319   0.0000       2.714832        73.8743 
 320   0.0000       2.723539        74.1113 
 321   0.0000       2.743264        74.6480 
 322   0.0000       2.772618        75.4468 
 323   0.0000       2.821517        76.7774 
 324   0.0000       2.838761        77.2466 
 325   0.0000       2.931280        79.7642 
 326   0.0000       2.992489        81.4298 
 327   0.0000       3.195747        86.9607 
 328   0.0000       3.436417        93.5097 

                    ********************************
                    * MULLIKEN POPULATION ANALYSIS *
                    ********************************

--------------------------------------------
MULLIKEN ATOMIC CHARGES AND SPIN POPULATIONS
--------------------------------------------
   0 C :    0.619804    0.026881
   1 C :    0.027416    0.218104
   2 C :    0.084740   -0.160641
   3 C :   -0.003482    0.222938
   4 C :   -0.042984   -0.104170
   5 C :   -0.085399    0.241076
   6 C :    0.026663   -0.113471
   7 H :   -0.052866   -0.009483
   8 H :   -0.043204    0.004240
   9 C :   -0.073378    0.737448
  10 H :   -0.038030   -0.032303
  11 C :    0.029226   -0.050532
  12 H :    0.027957    0.033381
  13 H :    0.028021    0.033277
  14 C :   -0.040615    0.002301
  15 H :    0.011597    0.000545
  16 H :    0.011589    0.000533
  17 C :    0.003461   -0.000200
  18 H :    0.017857    0.000165
  19 H :    0.017881    0.000165
  20 C :    0.042996   -0.019244
  21 H :    0.031041    0.010465
  22 H :    0.030907    0.010213
  23 C :   -0.035049    0.000874
  24 H :    0.014172    0.000171
  25 H :    0.014385    0.000150
  26 C :   -0.025288    0.000018
  27 H :    0.006025    0.000054
  28 H :    0.006036    0.000055
  29 C :    0.002967   -0.000083
  30 H :    0.016496    0.000024
  31 H :    0.016519    0.000023
  32 C :   -0.593776   -0.045011
  33 H :   -0.030711    0.001777
  34 H :    0.013195   -0.000212
  35 H :    0.012651   -0.000006
  36 H :   -0.048818   -0.009523
Sum of atomic charges         :    0.0000000
Sum of atomic spin populations:    1.0000000

-----------------------------------------------------
MULLIKEN REDUCED ORBITAL CHARGES AND SPIN POPULATIONS
-----------------------------------------------------
CHARGE
  0 C s       :     3.121754  s :     3.121754
      pz      :     0.960590  p :     2.203823
      px      :     0.310100
      py      :     0.933133
      dz2     :     0.003540  d :     0.054619
      dxz     :     0.021528
      dyz     :     0.000195
      dx2y2   :     0.009139
      dxy     :     0.020216
  1 C s       :     3.152954  s :     3.152954
      pz      :     0.978326  p :     2.754587
      px      :     0.817491
      py      :     0.958770
      dz2     :     0.003121  d :     0.065044
      dxz     :     0.003642
      dyz     :     0.013309
      dx2y2   :     0.026520
      dxy     :     0.018452
  2 C s       :     3.097162  s :     3.097162
      pz      :     0.954340  p :     2.732482
      px      :     0.950729
      py      :     0.827413
      dz2     :     0.004611  d :     0.085616
      dxz     :     0.012728
      dyz     :     0.014081
      dx2y2   :     0.027113
      dxy     :     0.027084
  3 C s       :     3.216031  s :     3.216031
      pz      :     0.988264  p :     2.723803
      px      :     0.894580
      py      :     0.840960
      dz2     :     0.003379  d :     0.063647
      dxz     :     0.010239
      dyz     :     0.006904
      dx2y2   :     0.019130
      dxy     :     0.023996
  4 C s       :     3.220533  s :     3.220533
[...]
 A(DIA)         -0.0001               0.0002               0.0001    A(PC) =   0.0001
             ----------           ----------           ----------
 A(Tot)          1.9970               2.8241               4.2693    A(iso)=    3.0301
 Orientation: 
  X           0.9978880           -0.0253061           -0.0598265
  Y          -0.0597010            0.0056891           -0.9982001
  Z           0.0256009            0.9996636            0.0041663

Notes:  (1) The A matrix conforms to the "SAI" spin Hamiltonian convention.
        (2) Tensor is right-handed.

 -----------------------------------------------------------
 Nucleus  34H : A:ISTP=    1 I=  0.5 P=533.5514 MHz/au**3
                Q:ISTP=    2 I=  1.0 Q=  0.0029 barn     
 -----------------------------------------------------------
 Solving for nuclear perturbation:
Forming RHS of the CP-SCF equations         ... 
Calc. nucleus orbit integrals (SHARK)       ... done

------------------------------------------------------------------------------
                           ORCA CP-SCF CALCULATION
------------------------------------------------------------------------------

Input orbitals are from        ... cc-pVDZ_i.gbw
Input Perturbation             ... cc-pVDZ_i.pin.tmp
Wavefunction output            ... cc-pVDZ_i.pout.tmp
Perturbation mode              ... Imaginary perturbation
Solver                         ... POPLE
Max. number of iterations      ... 64
Convergence tolerance          ... 1.000e-03
Integral handling              ... Direct
DFT GridXC                     ... 1
COSX GridX                     ... 1
COSX IntAccX                   ... 3.067
COSX Algorithm                 ... Auto
Number of perturbations        ... 3
Number of operators            ... 2
Orbital ranges used for CP-SCF:
 Operator 0:  Orbitals   0... 58  to  59...328
 Operator 1:  Orbitals   0... 57  to  58...328
Variables per perturbation     ... 31648
DFT calculation                         ... on
XC functional terms                     ... off
Hybrid DFT                              ... on
   Exchange mixing (SCF)                ...  0.200
   Exchange mixing (CP-SCF)             ...  0.200
   GGA exch. scaling(SCF)               ...  0.720
   GGA exch. scaling (CP-SCF)           ...  0.720
   GGA corr. scaling (SCF)              ...  0.810
   GGA corr. scaling (CP-SCF)           ...  0.810

CP-SCF GRID
-----------

General Integration Accuracy     IntAcc      ... 3.467
Radial Grid Type                 RadialGrid  ... OptM3 with GC (2021)
Angular Grid (max. ang.)         AngularGrid ... 1 (Lebedev-50)
Angular grid pruning method      GridPruning ... 4 (adaptive)
Weight generation scheme         WeightScheme... Becke
Basis function cutoff            BFCut       ... 1.0000e-10
Integration weight cutoff        WCut        ... 1.0000e-14
Angular grids for H and He will be reduced by one unit
Partially contracted basis set               ... off
Rotationally invariant grid construction     ... off

Total number of grid points                  ...    22945
Total number of batches                      ...      374
Average number of points per batch           ...       61
Average number of grid points per atom       ...      620

CP-SCF GRIDX
------------

General Integration Accuracy     IntAcc      ... 3.067
Radial Grid Type                 RadialGrid  ... OptM3 with GC (2021)
Angular Grid (max. ang.)         AngularGrid ... 1 (Lebedev-50)
Angular grid pruning method      GridPruning ... 4 (adaptive)
Weight generation scheme         WeightScheme... Becke
Basis function cutoff            BFCut       ... 1.0000e-10
Integration weight cutoff        WCut        ... 1.0000e-14
Angular grids for H and He will be reduced by one unit
Partially contracted basis set               ... on
Rotationally invariant grid construction     ... off

Total number of grid points                  ...    10826
Total number of batches                      ...      191
Average number of points per batch           ...       56
Average number of grid points per atom       ...      293

Memory available               ... 916.1 MB
Memory needed per perturbation ...   6.9 MB
Perturbations treated per batch... 3
Number of batches              ... 1
     CP-SCF ITERATION   0:   3.6473e-02 (   0.9 sec   0/  3 done)
     CP-SCF ITERATION   1:   5.8044e-04 (   0.9 sec   3/  3 done)
                    *** THE CP-SCF HAS CONVERGED ***

Forming final perturbed densities           ... done
Transforming perturbed density to AO basis  ... done

 Raw HFC matrix (all values in MHz): 
 -----------------------------------
                -0.7968               0.2879              -0.0002
                 0.2879               0.7448               0.0003
                -0.0002               0.0003              -0.8197

 A(FC)          -0.2906              -0.2906              -0.2906
 A(SD)           1.0869              -0.5289              -0.5580
 A(ORB+DIA)      0.0005              -0.0001              -0.0001    A(PC) =   0.0001
 A(ORB)          0.0004               0.0000              -0.0001    A(PC) =   0.0001
 A(DIA)          0.0001              -0.0001              -0.0000    A(PC) =  -0.0000
             ----------           ----------           ----------
 A(Tot)          0.7968              -0.8197              -0.8488    A(iso)=   -0.2906
 Orientation: 
  X           0.1777864            0.0072767           -0.9840422
  Y           0.9840691           -0.0011538            0.1777827
  Z           0.0001583           -0.9999729           -0.0073659

Notes:  (1) The A matrix conforms to the "SAI" spin Hamiltonian convention.
        (2) Tensor is right-handed.

 -----------------------------------------------------------
 Nucleus  35H : A:ISTP=    1 I=  0.5 P=533.5514 MHz/au**3
                Q:ISTP=    2 I=  1.0 Q=  0.0029 barn     
 -----------------------------------------------------------
 Solving for nuclear perturbation:
Forming RHS of the CP-SCF equations         ... 
Calc. nucleus orbit integrals (SHARK)       ... done

------------------------------------------------------------------------------
                           ORCA CP-SCF CALCULATION
------------------------------------------------------------------------------

Input orbitals are from        ... cc-pVDZ_i.gbw
Input Perturbation             ... cc-pVDZ_i.pin.tmp
Wavefunction output            ... cc-pVDZ_i.pout.tmp
Perturbation mode              ... Imaginary perturbation
Solver                         ... POPLE
Max. number of iterations      ... 64
Convergence tolerance          ... 1.000e-03
Integral handling              ... Direct
DFT GridXC                     ... 1
COSX GridX                     ... 1
COSX IntAccX                   ... 3.067
COSX Algorithm                 ... Auto
Number of perturbations        ... 3
Number of operators            ... 2
Orbital ranges used for CP-SCF:
 Operator 0:  Orbitals   0... 58  to  59...328
 Operator 1:  Orbitals   0... 57  to  58...328
Variables per perturbation     ... 31648
DFT calculation                         ... on
XC functional terms                     ... off
Hybrid DFT                              ... on
   Exchange mixing (SCF)                ...  0.200
   Exchange mixing (CP-SCF)             ...  0.200
   GGA exch. scaling(SCF)               ...  0.720
   GGA exch. scaling (CP-SCF)           ...  0.720
   GGA corr. scaling (SCF)              ...  0.810
   GGA corr. scaling (CP-SCF)           ...  0.810

CP-SCF GRID
-----------

General Integration Accuracy     IntAcc      ... 3.467
Radial Grid Type                 RadialGrid  ... OptM3 with GC (2021)
Angular Grid (max. ang.)         AngularGrid ... 1 (Lebedev-50)
Angular grid pruning method      GridPruning ... 4 (adaptive)
Weight generation scheme         WeightScheme... Becke
Basis function cutoff            BFCut       ... 1.0000e-10
Integration weight cutoff        WCut        ... 1.0000e-14
Angular grids for H and He will be reduced by one unit
Partially contracted basis set               ... off
Rotationally invariant grid construction     ... off

Total number of grid points                  ...    22945
Total number of batches                      ...      374
Average number of points per batch           ...       61
Average number of grid points per atom       ...      620

CP-SCF GRIDX
------------

General Integration Accuracy     IntAcc      ... 3.067
Radial Grid Type                 RadialGrid  ... OptM3 with GC (2021)
Angular Grid (max. ang.)         AngularGrid ... 1 (Lebedev-50)
Angular grid pruning method      GridPruning ... 4 (adaptive)
Weight generation scheme         WeightScheme... Becke
Basis function cutoff            BFCut       ... 1.0000e-10
Integration weight cutoff        WCut        ... 1.0000e-14
Angular grids for H and He will be reduced by one unit
Partially contracted basis set               ... on
Rotationally invariant grid construction     ... off

Total number of grid points                  ...    10826
Total number of batches                      ...      191
Average number of points per batch           ...       56
Average number of grid points per atom       ...      293

Memory available               ... 915.7 MB
Memory needed per perturbation ...   6.9 MB
Perturbations treated per batch... 3
Number of batches              ... 1
     CP-SCF ITERATION   0:   3.6571e-02 (   0.9 sec   0/  3 done)
     CP-SCF ITERATION   1:   6.0294e-04 (   1.0 sec   3/  3 done)
                    *** THE CP-SCF HAS CONVERGED ***

Forming final perturbed densities           ... done
Transforming perturbed density to AO basis  ... done

 Raw HFC matrix (all values in MHz): 
 -----------------------------------
                -0.1286               0.0561               0.0000
                 0.0561               0.2412               0.0008
                 0.0000               0.0008              -0.1334

 A(FC)          -0.0070              -0.0070              -0.0070
 A(SD)          -0.1264              -0.1300               0.2564
 A(ORB+DIA)      0.0000               0.0000               0.0001    A(PC) =   0.0000
 A(ORB)          0.0000              -0.0000               0.0001    A(PC) =   0.0000
 A(DIA)          0.0000               0.0000               0.0000    A(PC) =   0.0000
             ----------           ----------           ----------
 A(Tot)         -0.1334              -0.1369               0.2495    A(iso)=   -0.0069
 Orientation: 
  X          -0.0283430            0.9887670            0.1467530
  Y           0.0021812           -0.1467504            0.9891711
  Z           0.9995959            0.0283562            0.0020027

Notes:  (1) The A matrix conforms to the "SAI" spin Hamiltonian convention.
        (2) Tensor is right-handed.

 -----------------------------------------------------------
 Nucleus  36H : A:ISTP=    1 I=  0.5 P=533.5514 MHz/au**3
                Q:ISTP=    2 I=  1.0 Q=  0.0029 barn     
 -----------------------------------------------------------
 Solving for nuclear perturbation:
Forming RHS of the CP-SCF equations         ... 
Calc. nucleus orbit integrals (SHARK)       ... done

------------------------------------------------------------------------------
                           ORCA CP-SCF CALCULATION
------------------------------------------------------------------------------

Input orbitals are from        ... cc-pVDZ_i.gbw
Input Perturbation             ... cc-pVDZ_i.pin.tmp
Wavefunction output            ... cc-pVDZ_i.pout.tmp
Perturbation mode              ... Imaginary perturbation
Solver                         ... POPLE
Max. number of iterations      ... 64
Convergence tolerance          ... 1.000e-03
Integral handling              ... Direct
DFT GridXC                     ... 1
COSX GridX                     ... 1
COSX IntAccX                   ... 3.067
COSX Algorithm                 ... Auto
Number of perturbations        ... 3
Number of operators            ... 2
Orbital ranges used for CP-SCF:
 Operator 0:  Orbitals   0... 58  to  59...328
 Operator 1:  Orbitals   0... 57  to  58...328
Variables per perturbation     ... 31648
DFT calculation                         ... on
XC functional terms                     ... off
Hybrid DFT                              ... on
   Exchange mixing (SCF)                ...  0.200
   Exchange mixing (CP-SCF)             ...  0.200
   GGA exch. scaling(SCF)               ...  0.720
   GGA exch. scaling (CP-SCF)           ...  0.720
   GGA corr. scaling (SCF)              ...  0.810
   GGA corr. scaling (CP-SCF)           ...  0.810

CP-SCF GRID
-----------

General Integration Accuracy     IntAcc      ... 3.467
Radial Grid Type                 RadialGrid  ... OptM3 with GC (2021)
Angular Grid (max. ang.)         AngularGrid ... 1 (Lebedev-50)
Angular grid pruning method      GridPruning ... 4 (adaptive)
Weight generation scheme         WeightScheme... Becke
Basis function cutoff            BFCut       ... 1.0000e-10
Integration weight cutoff        WCut        ... 1.0000e-14
Angular grids for H and He will be reduced by one unit
Partially contracted basis set               ... off
Rotationally invariant grid construction     ... off

Total number of grid points                  ...    22945
Total number of batches                      ...      374
Average number of points per batch           ...       61
Average number of grid points per atom       ...      620

CP-SCF GRIDX
------------

General Integration Accuracy     IntAcc      ... 3.067
Radial Grid Type                 RadialGrid  ... OptM3 with GC (2021)
Angular Grid (max. ang.)         AngularGrid ... 1 (Lebedev-50)
Angular grid pruning method      GridPruning ... 4 (adaptive)
Weight generation scheme         WeightScheme... Becke
Basis function cutoff            BFCut       ... 1.0000e-10
Integration weight cutoff        WCut        ... 1.0000e-14
Angular grids for H and He will be reduced by one unit
Partially contracted basis set               ... on
Rotationally invariant grid construction     ... off

Total number of grid points                  ...    10826
Total number of batches                      ...      191
Average number of points per batch           ...       56
Average number of grid points per atom       ...      293

Memory available               ... 915.4 MB
Memory needed per perturbation ...   6.9 MB
Perturbations treated per batch... 3
Number of batches              ... 1
     CP-SCF ITERATION   0:   4.4614e-02 (   1.0 sec   0/  3 done)
     CP-SCF ITERATION   1:   2.0060e-03 (   1.0 sec   0/  3 done)
     CP-SCF ITERATION   2:   1.0742e-04 (   1.0 sec   3/  3 done)
                    *** THE CP-SCF HAS CONVERGED ***

Forming final perturbed densities           ... done
Transforming perturbed density to AO basis  ... done

 Raw HFC matrix (all values in MHz): 
 -----------------------------------
                -6.6738              -1.6987               0.1915
                -1.6963             -19.1081              -0.0190
                 0.1915              -0.0191             -16.4527

 A(FC)         -14.0806             -14.0806             -14.0806
 A(SD)           7.6367              -2.3752              -5.2615
 A(ORB+DIA)      0.0013              -0.0007               0.0064    A(PC) =   0.0024
 A(ORB)         -0.0001               0.0002               0.0064    A(PC) =   0.0022
 A(DIA)          0.0014              -0.0009              -0.0000    A(PC) =   0.0002
             ----------           ----------           ----------
 A(Tot)         -6.4426             -16.4564             -19.3357    A(iso)=  -14.0782
 Orientation: 
  X          -0.9909397           -0.0187369            0.1329943
  Y           0.1329265            0.0048247            0.9911142
  Z          -0.0192120            0.9998128           -0.0022904

Notes:  (1) The A matrix conforms to the "SAI" spin Hamiltonian convention.
        (2) Tensor is right-handed.


--------------------------------------------------------------------------------
----------------------------------------------------------------------------
                           ORCA EULER ANGLE PROGRAM
----------------------------------------------------------------------------

Only g-tensor available        -->  using g-tensor as reference tensor

Reference tensor               ...  g

g-tensor ordering              ...  |g_min> --> |gx>
                                    |g_mid> --> |gy>
                                    |g_max> --> |gz>

A- and EFG-tensor ordering     ...  the axes |Ax>, |Qx>, |Ay>, etc. are assigned
                                    such that the Euler rotation is minimal. You
                                    can find the respective eigenvalues as Ax,
                                    EFGx, Ay, etc. in the tables below.
                                    The relation of |Ax>, |Ay>,  etc. to Amin, Amid, etc.
                                    (as printed in the ORCA EPR/NMR CALCULATION Output)
                                    is obtained in the detailed printout.

Euler rotation around          ...  z - y - z
   First rotation              -->  by alpha around z
   Second rotation             -->  by beta around y'
   Third rotation              -->  by gamma around z''
   Positive / Negative angle   -->  clockwise / counterclockwise rotation

Plot EFG-tensors                    (-)
Plot HFC-tensors                    (-)
Detailed Printout                   (-)

-------------------------------------------------------------------------
          Euler rotation of hyperfine tensor to g-tensor
-------------------------------------------------------------------------

-------------------------------------------------------------------
 Atom  |   Alpha    Beta    Gamma   |   Ax       Ay       Az 
       |          [degrees]         |           [MHz]         
-------------------------------------------------------------------
  7H      -92.1      2.3     92.2     -16.34    -6.89   -19.96
  8H      -90.1      2.4     90.1       3.83     4.76     9.25
 10H      -89.9     44.7     90.0     -47.82   -73.87   -17.43
 12H      -23.0     12.2      5.1      60.21    70.28    61.53
 13H     -156.7     11.8    174.6      59.96    70.03    61.29
 15H       17.8     27.2    -57.0      -3.37    -3.20     3.33
 16H      162.2     27.0   -122.5      -3.36    -3.20     3.33
 18H     -129.0     48.7    153.3      -0.09     2.36     0.04
 19H      -50.7     49.1     26.5      -0.10     2.36     0.04
 21H     -146.9     17.5   -170.5      21.05    21.64    24.93
 22H      -33.2     17.1     -8.1      20.57    21.14    24.44
 24H      -89.8     29.3    104.3      -0.97     1.10    -0.87
 25H      -93.6     29.3     80.3      -0.95     1.09    -0.86
 27H       71.4     31.0   -106.4      -0.13    -0.18     0.82
 28H      108.4     30.9    -72.6      -0.13    -0.17     0.82
 30H      -93.3     40.9     85.0      -0.13     0.40    -0.11
 31H      -88.4     40.9     98.0      -0.13     0.40    -0.11
 33H       89.6     43.9    -90.0       2.82     2.00     4.27
 34H       90.5     37.1    -89.8      -0.82    -0.85     0.80
 35H       89.2     38.9    -89.6      -0.13    -0.14     0.25
 36H       90.0     39.7    -90.0     -16.46    -6.44   -19.34
-------------------------------------------------------------------


Maximum memory used throughout the entire EPRNMR-calculation: 148.1 MB

Timings for individual modules:

Sum of individual times         ...     1495.223 sec (=  24.920 min)
GTO integral calculation        ...        3.792 sec (=   0.063 min)   0.3 %
Spin-Orbit-Coupling Matrices    ...        5.763 sec (=   0.096 min)   0.4 %
SCF iterations                  ...       60.475 sec (=   1.008 min)   4.0 %
EPR/NMR calculation             ...     1425.193 sec (=  23.753 min)  95.3 %
                             ****ORCA TERMINATED NORMALLY****
TOTAL RUN TIME: 0 days 0 hours 24 minutes 59 seconds 131 msec
