
                                 *****************
                                 * O   R   C   A *
                                 *****************

                                            #,                                       
                                            ###                                      
                                            ####                                     
                                            #####                                    
                                            ######                                   
                                           ########,                                 
                                     ,,################,,,,,                         
                               ,,#################################,,                 
                          ,,##########################################,,             
                       ,#########################################, ''#####,          
                    ,#############################################,,   '####,        
                  ,##################################################,,,,####,       
                ,###########''''           ''''###############################       
              ,#####''   ,,,,##########,,,,          '''####'''          '####       
            ,##' ,,,,###########################,,,                        '##       
           ' ,,###''''                  '''############,,,                           
         ,,##''                                '''############,,,,        ,,,,,,###''
      ,#''                                            '''#######################'''  
     '                                                          ''''####''''         
             ,#######,   #######,   ,#######,      ##                                
            ,#'     '#,  ##    ##  ,#'     '#,    #''#        ######   ,####,        
            ##       ##  ##   ,#'  ##            #'  '#       #        #'  '#        
            ##       ##  #######   ##           ,######,      #####,   #    #        
            '#,     ,#'  ##    ##  '#,     ,#' ,#      #,         ##   #,  ,#        
             '#######'   ##     ##  '#######'  #'      '#     #####' # '####'        



                  #######################################################
                  #                        -***-                        #
                  #          Department of theory and spectroscopy      #
                  #    Directorship and core code : Frank Neese         #
                  #        Max Planck Institute fuer Kohlenforschung    #
                  #                Kaiser Wilhelm Platz 1               #
                  #                 D-45470 Muelheim/Ruhr               #
                  #                      Germany                        #
                  #                                                     #
                  #                  All rights reserved                #
                  #                        -***-                        #
                  #######################################################


                         Program Version 5.0.4 -  RELEASE  -


 With contributions from (in alphabetic order):
   Daniel Aravena         : Magnetic Suceptibility
   Michael Atanasov       : Ab Initio Ligand Field Theory (pilot matlab implementation)
   Alexander A. Auer      : GIAO ZORA, VPT2 properties, NMR spectrum
   Ute Becker             : Parallelization
   Giovanni Bistoni       : ED, misc. LED, open-shell LED, HFLD
   Martin Brehm           : Molecular dynamics
   Dmytro Bykov           : SCF Hessian
   Vijay G. Chilkuri      : MRCI spin determinant printing, contributions to CSF-ICE
   Dipayan Datta          : RHF DLPNO-CCSD density
   Achintya Kumar Dutta   : EOM-CC, STEOM-CC
   Dmitry Ganyushin       : Spin-Orbit,Spin-Spin,Magnetic field MRCI
   Miquel Garcia          : C-PCM and meta-GGA Hessian, CC/C-PCM, Gaussian charge scheme
   Yang Guo               : DLPNO-NEVPT2, F12-NEVPT2, CIM, IAO-localization
   Andreas Hansen         : Spin unrestricted coupled pair/coupled cluster methods
   Benjamin Helmich-Paris : MC-RPA, TRAH-SCF, COSX integrals
   Lee Huntington         : MR-EOM, pCC
   Robert Izsak           : Overlap fitted RIJCOSX, COSX-SCS-MP3, EOM
   Marcus Kettner         : VPT2
   Christian Kollmar      : KDIIS, OOCD, Brueckner-CCSD(T), CCSD density, CASPT2, CASPT2-K
   Simone Kossmann        : Meta GGA functionals, TD-DFT gradient, OOMP2, MP2 Hessian
   Martin Krupicka        : Initial AUTO-CI
   Lucas Lang             : DCDCAS
   Marvin Lechner         : AUTO-CI (C++ implementation), FIC-MRCC
   Dagmar Lenk            : GEPOL surface, SMD
   Dimitrios Liakos       : Extrapolation schemes; Compound Job, initial MDCI parallelization
   Dimitrios Manganas     : Further ROCIS development; embedding schemes
   Dimitrios Pantazis     : SARC Basis sets
   Anastasios Papadopoulos: AUTO-CI, single reference methods and gradients
   Taras Petrenko         : DFT Hessian,TD-DFT gradient, ASA, ECA, R-Raman, ABS, FL, XAS/XES, NRVS
   Peter Pinski           : DLPNO-MP2, DLPNO-MP2 Gradient
   Christoph Reimann      : Effective Core Potentials
   Marius Retegan         : Local ZFS, SOC
   Christoph Riplinger    : Optimizer, TS searches, QM/MM, DLPNO-CCSD(T), (RO)-DLPNO pert. Triples
   Tobias Risthaus        : Range-separated hybrids, TD-DFT gradient, RPA, STAB
   Michael Roemelt        : Original ROCIS implementation
   Masaaki Saitow         : Open-shell DLPNO-CCSD energy and density
   Barbara Sandhoefer     : DKH picture change effects
   Avijit Sen             : IP-ROCIS
   Kantharuban Sivalingam : CASSCF convergence, NEVPT2, FIC-MRCI
   Bernardo de Souza      : ESD, SOC TD-DFT
   Georgi Stoychev        : AutoAux, RI-MP2 NMR, DLPNO-MP2 response
   Willem Van den Heuvel  : Paramagnetic NMR
   Boris Wezisla          : Elementary symmetry handling
   Frank Wennmohs         : Technical directorship


 We gratefully acknowledge several colleagues who have allowed us to
 interface, adapt or use parts of their codes:
   Stefan Grimme, W. Hujo, H. Kruse, P. Pracht,  : VdW corrections, initial TS optimization,
                  C. Bannwarth, S. Ehlert          DFT functionals, gCP, sTDA/sTD-DF
   Ed Valeev, F. Pavosevic, A. Kumar             : LibInt (2-el integral package), F12 methods
   Garnet Chan, S. Sharma, J. Yang, R. Olivares  : DMRG
   Ulf Ekstrom                                   : XCFun DFT Library
   Mihaly Kallay                                 : mrcc  (arbitrary order and MRCC methods)
   Jiri Pittner, Ondrej Demel                    : Mk-CCSD
   Frank Weinhold                                : gennbo (NPA and NBO analysis)
   Christopher J. Cramer and Donald G. Truhlar   : smd solvation model
   Lars Goerigk                                  : TD-DFT with DH, B97 family of functionals
   V. Asgeirsson, H. Jonsson                     : NEB implementation
   FAccTs GmbH                                   : IRC, NEB, NEB-TS, DLPNO-Multilevel, CI-OPT
                                                   MM, QMMM, 2- and 3-layer-ONIOM, Crystal-QMMM,
                                                   LR-CPCM, SF, NACMEs, symmetry and pop. for TD-DFT,
                                                   nearIR, NL-DFT gradient (VV10), updates on ESD,
                                                   ML-optimized integration grids
   S Lehtola, MJT Oliveira, MAL Marques          : LibXC Library
   Liviu Ungur et al                             : ANISO software


 Your calculation uses the libint2 library for the computation of 2-el integrals
 For citations please refer to: http://libint.valeyev.net

 Your ORCA version has been built with support for libXC version: 5.1.0
 For citations please refer to: https://tddft.org/programs/libxc/

 This ORCA versions uses:
   CBLAS   interface :  Fast vector & matrix operations
   LAPACKE interface :  Fast linear algebra routines
   SCALAPACK package :  Parallel linear algebra routines
   Shared memory     :  Shared parallel matrices
   BLAS/LAPACK       :  OpenBLAS 0.3.15  USE64BITINT DYNAMIC_ARCH NO_AFFINITY SkylakeX SINGLE_THREADED
        Core in use  :  SkylakeX
   Copyright (c) 2011-2014, The OpenBLAS Project




***************************************
The coordinates will be read from file: opt_EPRII.xyz
***************************************


================================================================================

----- Orbital basis set information -----
Your calculation utilizes the basis: EPR-II
   V. Barone, in Recent Advances in Density Functional Methods, Part 1 (ed. D. P. Chong), World Scientific, Singapore, 1995, p. 287.

----- AuxJ basis set information -----
Your calculation utilizes the AutoAux generation procedure.
  G. L. Stoychev, A. A. Auer, F. Neese, J. Chem. Theory Comput. 13, 554 (2017)

----- AuxC basis set information -----
Your calculation utilizes the AutoAux generation procedure.
  G. L. Stoychev, A. A. Auer, F. Neese, J. Chem. Theory Comput. 13, 554 (2017)

----- AuxJK basis set information -----
Your calculation utilizes the AutoAux generation procedure.
  G. L. Stoychev, A. A. Auer, F. Neese, J. Chem. Theory Comput. 13, 554 (2017)

================================================================================
                                        WARNINGS
                       Please study these warnings very carefully!
================================================================================

WARNING: Old DensityContainer found on disk!
         Will remove this file - 
         If you want to keep old densities, please start your calculation with a different basename. 


WARNING: your system is open-shell and RHF/RKS was chosen
  ===> : WILL SWITCH to UHF/UKS


INFO   : the flag for use of the SHARK integral package has been found!

================================================================================
                                       INPUT FILE
================================================================================
NAME = EPRII_i.inp
|  1> ! B3LYP EPR-II AUTOAUX
|  2> %pal nprocs 16 end
|  3> *XYZFile 0 2 opt_EPRII.xyz
|  4> %EPRNMR
|  5>         GTENSOR   TRUE
|  6>         NUCLEI    = ALL H {SHIFT, AISO, ADIP, AORB}
|  7>         ORI       GIAO
|  8> END
|  9> 
| 10>                          ****END OF INPUT****
================================================================================

                       ****************************
                       * Single Point Calculation *
                       ****************************

---------------------------------
CARTESIAN COORDINATES (ANGSTROEM)
---------------------------------
  C     -2.943722   -0.016991   -0.034021
  C      1.296695    0.060298    0.032841
  C      0.587353    1.301631    0.016913
  C     -0.836879    1.224848   -0.005828
  C     -1.505465   -0.009021   -0.011491
  C     -0.782186   -1.240370    0.005053
  C      0.626187   -1.161313    0.026992
  H     -1.428855    2.133872   -0.018797
  H      1.209869   -2.075998    0.039720
  C      1.288952    2.539403    0.024368
  H      2.376931    2.497568    0.042798
  C      0.641340    3.898229    0.008650
  H      0.003029    3.999589   -0.883878
  H     -0.042119    3.998247    0.867145
  C      1.653991    5.058367    0.035927
  H      2.281175    4.965743    0.931881
  H      2.327242    4.967521   -0.826191
  C      0.980438    6.440706    0.019529
  H      0.324246    6.569689    0.887703
  H      0.369154    6.570490   -0.880724
  C     -1.536448   -2.559965   -0.000484
  H     -2.216592   -2.572581    0.862390
  H     -2.195034   -2.577891   -0.879766
  C     -0.683713   -3.838537    0.014084
  H     -0.015200   -3.852723   -0.857175
  H     -0.040135   -3.849399    0.903990
  C     -1.543411   -5.115692    0.004753
  H     -2.214933   -5.105554    0.873519
  H     -2.188987   -5.110202   -0.883502
  C     -0.704208   -6.405133    0.020515
  H     -0.072588   -6.452980    0.914827
  H     -0.045503   -6.456771   -0.853815
  C     -4.163750   -0.026494   -0.054089
  H     -5.229461   -0.029959   -0.073501
  H      1.722863    7.245059    0.038689
  H     -1.341129   -7.295750    0.012738
  H      2.384255    0.078932    0.050170

----------------------------
CARTESIAN COORDINATES (A.U.)
----------------------------
  NO LB      ZA    FRAG     MASS         X           Y           Z
   0 C     6.0000    0    12.011   -5.562828   -0.032109   -0.064290
   1 C     6.0000    0    12.011    2.450399    0.113947    0.062061
   2 C     6.0000    0    12.011    1.109937    2.459727    0.031962
   3 C     6.0000    0    12.011   -1.581473    2.314627   -0.011013
   4 C     6.0000    0    12.011   -2.844917   -0.017047   -0.021716
   5 C     6.0000    0    12.011   -1.478116   -2.343959    0.009549
   6 C     6.0000    0    12.011    1.183322   -2.194564    0.051007
   7 H     1.0000    0     1.008   -2.700145    4.032434   -0.035521
   8 H     1.0000    0     1.008    2.286321   -3.923068    0.075061
   9 C     6.0000    0    12.011    2.435767    4.798775    0.046048
  10 H     1.0000    0     1.008    4.491749    4.719719    0.080876
  11 C     6.0000    0    12.011    1.211957    7.366586    0.016347
  12 H     1.0000    0     1.008    0.005725    7.558128   -1.670287
  13 H     1.0000    0     1.008   -0.079593    7.555592    1.638666
  14 C     6.0000    0    12.011    3.125590    9.558929    0.067893
  15 H     1.0000    0     1.008    4.310797    9.383895    1.761001
  16 H     1.0000    0     1.008    4.397850    9.387254   -1.561275
  17 C     6.0000    0    12.011    1.852758   12.171171    0.036904
  18 H     1.0000    0     1.008    0.612737   12.414913    1.677515
  19 H     1.0000    0     1.008    0.697600   12.416427   -1.664327
  20 C     6.0000    0    12.011   -2.903466   -4.837632   -0.000914
  21 H     1.0000    0     1.008   -4.188751   -4.861474    1.629681
  22 H     1.0000    0     1.008   -4.148013   -4.871508   -1.662517
  23 C     6.0000    0    12.011   -1.292030   -7.253784    0.026616
  24 H     1.0000    0     1.008   -0.028725   -7.280591   -1.619827
  25 H     1.0000    0     1.008   -0.075845   -7.274309    1.708293
  26 C     6.0000    0    12.011   -2.916624   -9.667257    0.008982
  27 H     1.0000    0     1.008   -4.185616   -9.648099    1.650712
  28 H     1.0000    0     1.008   -4.136587   -9.656883   -1.669577
  29 C     6.0000    0    12.011   -1.330761  -12.103947    0.038768
  30 H     1.0000    0     1.008   -0.137172  -12.194364    1.728772
  31 H     1.0000    0     1.008   -0.085987  -12.201529   -1.613477
  32 C     6.0000    0    12.011   -7.868348   -0.050066   -0.102214
  33 H     1.0000    0     1.008   -9.882249   -0.056615   -0.138897
  34 H     1.0000    0     1.008    3.255738   13.691178    0.073112
  35 H     1.0000    0     1.008   -2.534366  -13.786969    0.024072
  36 H     1.0000    0     1.008    4.505589    0.149159    0.094808

--------------------------------
INTERNAL COORDINATES (ANGSTROEM)
--------------------------------
 C      0   0   0     0.000000000000     0.00000000     0.00000000
 C      1   0   0     4.241648282200     0.00000000     0.00000000
 C      2   1   0     1.429799956736    61.29338365     0.00000000
 C      3   2   1     1.426482110806   116.66518724     0.00000000
 C      4   3   2     1.403378436133   121.53707682     0.03373550
 C      5   4   3     1.428155198668   121.11324821     0.00000000
 C      2   1   3     1.393538869657    60.19464580   179.99290121
 H      4   3   2     1.084863277652   119.99310712   180.00812608
 H      7   2   1     1.085124149015   118.69028222   179.99468721
 C      3   2   1     1.422805170695   120.70270862   179.95205447
 H     10   3   2     1.088938726893   117.34466575     0.00000000
 C     10   3   2     1.505343327714   124.96550006   179.98064509
 H     12  10   3     1.101962161479   109.91853521   301.72059532
 H     12  10   3     1.101876802540   109.91621229    57.14222716
 C     12  10   3     1.540170950522   113.38414120   179.42029191
 H     15  12  10     1.097576069753   109.06248857   302.03393816
 H     15  12  10     1.097619377305   109.08883292    57.95807037
 C     15  12  10     1.537791994452   112.88836570   179.99894706
 H     18  15  12     1.095878132381   111.07677179    59.91834528
 H     18  15  12     1.095886233519   111.07146812   300.16136470
 C      6   5   4     1.519958532040   119.81362033   179.95018958
 H     21   6   5     1.098774634961   108.31740108   303.17733661
 H     21   6   5     1.098723821346   108.33245326    56.45268887
 C     21   6   5     1.536918254590   116.54356038   179.82673929
 H     24  21   6     1.098272843425   109.93476932   301.57198688
 H     24  21   6     1.098290286302   109.93963467    58.64787757
 C     24  21   6     1.539575326921   112.34799368   180.09414739
 H     27  24  21     1.098088723979   109.20980128   302.13637517
 H     27  24  21     1.098087776854   109.21076540    57.97630129
 C     27  24  21     1.538560511777   112.99135200   180.05501918
 H     30  27  24     1.095913255702   111.05804050    59.89524990
 H     30  27  24     1.095907501990   111.04874975   300.18690620
 C      1   2   3     1.220230675623   179.40085839     3.51984408
 H     33   1   5     1.065893273864   179.72109152   220.51152741
 H     18  15  12     1.094781132222   111.29858944   180.04495820
 H     30  27  24     1.094954950301   111.36636682   180.04035178
 H      2   1   3     1.087857216796   179.93664742   171.55632605

---------------------------
INTERNAL COORDINATES (A.U.)
---------------------------
 C      0   0   0     0.000000000000     0.00000000     0.00000000
 C      1   0   0     8.015553609776     0.00000000     0.00000000
 C      2   1   0     2.701930344524    61.29338365     0.00000000
 C      3   2   1     2.695660524360   116.66518724     0.00000000
 C      4   3   2     2.652000906542   121.53707682     0.03373550
 C      5   4   3     2.698822202218   121.11324821     0.00000000
 C      2   1   3     2.633406820625    60.19464580   179.99290121
 H      4   3   2     2.050094487511   119.99310712   180.00812608
 H      7   2   1     2.050587462943   118.69028222   179.99468721
 C      3   2   1     2.688712114541   120.70270862   179.95205447
 H     10   3   2     2.057795970448   117.34466575     0.00000000
 C     10   3   2     2.844686626905   124.96550006   179.98064509
 H     12  10   3     2.082406695140   109.91853521   301.72059532
 H     12  10   3     2.082245390121   109.91621229    57.14222716
 C     12  10   3     2.910501295908   113.38414120   179.42029191
 H     15  12  10     2.074118182978   109.06248857   302.03393816
 H     15  12  10     2.074200022392   109.08883292    57.95807037
 C     15  12  10     2.906005720451   112.88836570   179.99894706
 H     18  15  12     2.070909546353   111.07677179    59.91834528
 H     18  15  12     2.070924855286   111.07146812   300.16136470
 C      6   5   4     2.872305360473   119.81362033   179.95018958
 H     21   6   5     2.076383142976   108.31740108   303.17733661
 H     21   6   5     2.076287119159   108.33245326    56.45268887
 C     21   6   5     2.904354591398   116.54356038   179.82673929
 H     24  21   6     2.075434894396   109.93476932   301.57198688
 H     24  21   6     2.075467856657   109.93963467    58.64787757
 C     24  21   6     2.909375730422   112.34799368   180.09414739
 H     27  24  21     2.075086959067   109.20980128   302.13637517
 H     27  24  21     2.075085169260   109.21076540    57.97630129
 C     27  24  21     2.907458007724   112.99135200   180.05501918
 H     30  27  24     2.070975919811   111.05804050    59.89524990
 H     30  27  24     2.070965046870   111.04874975   300.18690620
 C      1   2   3     2.305901797136   179.40085839     3.51984408
 H     33   1   5     2.014246375592   179.72109152   220.51152741
 H     18  15  12     2.068836516484   111.29858944   180.04495820
 H     30  27  24     2.069164985051   111.36636682   180.04035178
 H      2   1   3     2.055752212555   179.93664742   171.55632605

---------------------
BASIS SET INFORMATION
---------------------
There are 2 groups of distinct atoms

 Group   1 Type C   : 10s5p1d contracted to 6s2p1d pattern {511111/41/1}
 Group   2 Type H   : 6s1p contracted to 4s1p pattern {3111/1}

Atom   0C    basis set group =>   1
Atom   1C    basis set group =>   1
Atom   2C    basis set group =>   1
Atom   3C    basis set group =>   1
Atom   4C    basis set group =>   1
Atom   5C    basis set group =>   1
Atom   6C    basis set group =>   1
Atom   7H    basis set group =>   2
Atom   8H    basis set group =>   2
Atom   9C    basis set group =>   1
Atom  10H    basis set group =>   2
Atom  11C    basis set group =>   1
Atom  12H    basis set group =>   2
Atom  13H    basis set group =>   2
Atom  14C    basis set group =>   1
Atom  15H    basis set group =>   2
Atom  16H    basis set group =>   2
Atom  17C    basis set group =>   1
Atom  18H    basis set group =>   2
Atom  19H    basis set group =>   2
Atom  20C    basis set group =>   1
Atom  21H    basis set group =>   2
Atom  22H    basis set group =>   2
Atom  23C    basis set group =>   1
Atom  24H    basis set group =>   2
Atom  25H    basis set group =>   2
Atom  26C    basis set group =>   1
Atom  27H    basis set group =>   2
Atom  28H    basis set group =>   2
Atom  29C    basis set group =>   1
Atom  30H    basis set group =>   2
Atom  31H    basis set group =>   2
Atom  32C    basis set group =>   1
Atom  33H    basis set group =>   2
Atom  34H    basis set group =>   2
Atom  35H    basis set group =>   2
Atom  36H    basis set group =>   2
---------------------------------
AUXILIARY/J BASIS SET INFORMATION
---------------------------------
There are 2 groups of distinct atoms

 Group   1 Type C   : 17s13p12d2f contracted to 17s13p12d2f pattern {11111111111111111/1111111111111/111111111111/11}
 Group   2 Type H   : 15s6p1d contracted to 15s6p1d pattern {111111111111111/111111/1}

Atom   0C    basis set group =>   1
Atom   1C    basis set group =>   1
Atom   2C    basis set group =>   1
Atom   3C    basis set group =>   1
Atom   4C    basis set group =>   1
Atom   5C    basis set group =>   1
Atom   6C    basis set group =>   1
Atom   7H    basis set group =>   2
Atom   8H    basis set group =>   2
Atom   9C    basis set group =>   1
Atom  10H    basis set group =>   2
Atom  11C    basis set group =>   1
Atom  12H    basis set group =>   2
Atom  13H    basis set group =>   2
Atom  14C    basis set group =>   1
Atom  15H    basis set group =>   2
Atom  16H    basis set group =>   2
Atom  17C    basis set group =>   1
Atom  18H    basis set group =>   2
Atom  19H    basis set group =>   2
Atom  20C    basis set group =>   1
Atom  21H    basis set group =>   2
Atom  22H    basis set group =>   2
Atom  23C    basis set group =>   1
Atom  24H    basis set group =>   2
Atom  25H    basis set group =>   2
Atom  26C    basis set group =>   1
Atom  27H    basis set group =>   2
Atom  28H    basis set group =>   2
Atom  29C    basis set group =>   1
Atom  30H    basis set group =>   2
Atom  31H    basis set group =>   2
Atom  32C    basis set group =>   1
Atom  33H    basis set group =>   2
Atom  34H    basis set group =>   2
Atom  35H    basis set group =>   2
Atom  36H    basis set group =>   2
---------------------------------
AUXILIARY/C BASIS SET INFORMATION
---------------------------------
There are 2 groups of distinct atoms

 Group   1 Type C   : 17s13p12d2f contracted to 17s13p12d2f pattern {11111111111111111/1111111111111/111111111111/11}
 Group   2 Type H   : 15s6p1d contracted to 15s6p1d pattern {111111111111111/111111/1}

Atom   0C    basis set group =>   1
Atom   1C    basis set group =>   1
Atom   2C    basis set group =>   1
Atom   3C    basis set group =>   1
Atom   4C    basis set group =>   1
Atom   5C    basis set group =>   1
Atom   6C    basis set group =>   1
Atom   7H    basis set group =>   2
Atom   8H    basis set group =>   2
Atom   9C    basis set group =>   1
Atom  10H    basis set group =>   2
Atom  11C    basis set group =>   1
Atom  12H    basis set group =>   2
Atom  13H    basis set group =>   2
Atom  14C    basis set group =>   1
Atom  15H    basis set group =>   2
Atom  16H    basis set group =>   2
Atom  17C    basis set group =>   1
Atom  18H    basis set group =>   2
Atom  19H    basis set group =>   2
Atom  20C    basis set group =>   1
Atom  21H    basis set group =>   2
Atom  22H    basis set group =>   2
Atom  23C    basis set group =>   1
Atom  24H    basis set group =>   2
Atom  25H    basis set group =>   2
Atom  26C    basis set group =>   1
Atom  27H    basis set group =>   2
Atom  28H    basis set group =>   2
Atom  29C    basis set group =>   1
Atom  30H    basis set group =>   2
Atom  31H    basis set group =>   2
Atom  32C    basis set group =>   1
Atom  33H    basis set group =>   2
Atom  34H    basis set group =>   2
Atom  35H    basis set group =>   2
Atom  36H    basis set group =>   2
----------------------------------
AUXILIARY/JK BASIS SET INFORMATION
----------------------------------
There are 2 groups of distinct atoms

 Group   1 Type C   : 17s13p12d2f contracted to 17s13p12d2f pattern {11111111111111111/1111111111111/111111111111/11}
 Group   2 Type H   : 15s6p1d contracted to 15s6p1d pattern {111111111111111/111111/1}

Atom   0C    basis set group =>   1
Atom   1C    basis set group =>   1
Atom   2C    basis set group =>   1
Atom   3C    basis set group =>   1
Atom   4C    basis set group =>   1
Atom   5C    basis set group =>   1
Atom   6C    basis set group =>   1
Atom   7H    basis set group =>   2
Atom   8H    basis set group =>   2
Atom   9C    basis set group =>   1
Atom  10H    basis set group =>   2
Atom  11C    basis set group =>   1
Atom  12H    basis set group =>   2
Atom  13H    basis set group =>   2
Atom  14C    basis set group =>   1
Atom  15H    basis set group =>   2
Atom  16H    basis set group =>   2
Atom  17C    basis set group =>   1
Atom  18H    basis set group =>   2
Atom  19H    basis set group =>   2
Atom  20C    basis set group =>   1
Atom  21H    basis set group =>   2
Atom  22H    basis set group =>   2
Atom  23C    basis set group =>   1
Atom  24H    basis set group =>   2
Atom  25H    basis set group =>   2
Atom  26C    basis set group =>   1
Atom  27H    basis set group =>   2
Atom  28H    basis set group =>   2
Atom  29C    basis set group =>   1
Atom  30H    basis set group =>   2
Atom  31H    basis set group =>   2
Atom  32C    basis set group =>   1
Atom  33H    basis set group =>   2
Atom  34H    basis set group =>   2
Atom  35H    basis set group =>   2
Atom  36H    basis set group =>   2

Checking for AutoStart:
The File: EPRII_i.gbw exists
Trying to determine its content:
     ... Fine, the file contains calculation information
     ... Fine, the calculation information was read
     ... Fine, the file contains a basis set
     ... Fine, the basis set was read
     ... Fine, the file contains a geometry
     ... Fine, the geometry was read
     ... Fine, the file contains a set of orbitals
     ... Fine, the orbitals can be read
     => possible old guess file was deleted
     => GBW file was renamed to GES file
     => GES file is set as startup file
     => Guess is set to MORead
     ... now leaving AutoStart



           ************************************************************
           *        Program running with 16 parallel MPI-processes    *
           *              working on a common directory               *
           ************************************************************
------------------------------------------------------------------------------
                           ORCA GTO INTEGRAL CALCULATION
                           -- RI-GTO INTEGRALS CHOSEN --
------------------------------------------------------------------------------
------------------------------------------------------------------------------
                   ___                                                        
                  /   \      - P O W E R E D   B Y -                         
                 /     \                                                     
                 |  |  |   _    _      __       _____    __    __             
                 |  |  |  | |  | |    /  \     |  _  \  |  |  /  |          
                  \  \/   | |  | |   /    \    | | | |  |  | /  /          
                 / \  \   | |__| |  /  /\  \   | |_| |  |  |/  /          
                |  |  |   |  __  | /  /__\  \  |    /   |      \           
                |  |  |   | |  | | |   __   |  |    \   |  |\   \          
                \     /   | |  | | |  |  |  |  | |\  \  |  | \   \       
                 \___/    |_|  |_| |__|  |__|  |_| \__\ |__|  \__/        
                                                                              
                      - O R C A' S   B I G   F R I E N D -                    
                                      &                                       
                       - I N T E G R A L  F E E D E R -                       
                                                                              
 v1 FN, 2020, v2 2021                                                         
------------------------------------------------------------------------------


Reading SHARK input file EPRII_i.SHARKINP.tmp ... ok
----------------------
SHARK INTEGRAL PACKAGE
----------------------

Number of atoms                             ...     37
Number of basis functions                   ...    419
Number of shells                            ...    249
Maximum angular momentum                    ...      2
Integral batch strategy                     ... SHARK/LIBINT Hybrid
RI-J (if used) integral strategy            ... SPLIT-RIJ (Revised 2003 algorithm where possible)
Printlevel                                  ...      1
Contraction scheme used                     ... SEGMENTED contraction
Coulomb Range Separation                    ... NOT USED
Exchange Range Separation                   ... NOT USED
Finite Nucleus Model                        ... NOT USED
Auxiliary Coulomb fitting basis             ... AVAILABLE
   # of basis functions in Aux-J            ...   2878
   # of shells in Aux-J                     ...   1166
   Maximum angular momentum in Aux-J        ...      3
Auxiliary J/K fitting basis                 ... AVAILABLE
   # of basis functions in Aux-JK           ...   2878
   # of shells in Aux-JK                    ...   1166
   Maximum angular momentum in Aux-JK       ...      3
Auxiliary Correlation fitting basis         ... AVAILABLE
   # of basis functions in Aux-C            ...   2878
   # of shells in Aux-C                     ...   1166
   Maximum angular momentum in Aux-C        ...      3
Auxiliary 'external' fitting basis          ... NOT available
Integral threshold                          ...     1.000000e-10
Primitive cut-off                           ...     1.000000e-11
Primitive pair pre-selection threshold      ...     1.000000e-11

Calculating pre-screening integrals         ... done (  0.0 sec) Dimension = 249
Organizing shell pair data                  ... done (  0.1 sec)
Shell pair information
Total number of shell pairs                 ...     31125
Shell pairs after pre-screening             ...     17900
Total number of primitive shell pairs       ...     81725
Primitive shell pairs kept                  ...     34197
          la=0 lb=0:   8313 shell pairs
          la=1 lb=0:   6162 shell pairs
          la=1 lb=1:   1063 shell pairs
          la=2 lb=0:   1667 shell pairs
          la=2 lb=1:    598 shell pairs
          la=2 lb=2:     97 shell pairs

Calculating one electron integrals          ... done (  0.0 sec)
Calculating RI/J V-Matrix + Cholesky decomp.... done (  0.5 sec)
Calculating RI/JK V-Matrix + Cholesky decomp... done (  0.5 sec)
Calculating RI/C V-Matrix + Cholesky decomp.... done (  0.5 sec)
Calculating Nuclear repulsion               ... done (  0.0 sec) ENN=    967.523818127794 Eh

SHARK setup successfully completed in   2.0 seconds

Maximum memory used throughout the entire GTOINT-calculation: 34.5 MB


           ************************************************************
           *        Program running with 16 parallel MPI-processes    *
           *              working on a common directory               *
           ************************************************************
-------------------------------------------------------------------------------
                                 ORCA SCF
-------------------------------------------------------------------------------

------------
SCF SETTINGS
------------
Hamiltonian:
 Density Functional     Method          .... DFT(GTOs)
 Exchange Functional    Exchange        .... B88
   X-Alpha parameter    XAlpha          ....  0.666667
   Becke's b parameter  XBeta           ....  0.004200
 Correlation Functional Correlation     .... LYP
 LDA part of GGA corr.  LDAOpt          .... VWN-5
 Gradients option       PostSCFGGA      .... off
 Hybrid DFT is turned on
   Fraction HF Exchange ScalHFX         ....  0.200000
   Scaling of DF-GGA-X  ScalDFX         ....  0.720000
   Scaling of DF-GGA-C  ScalDFC         ....  0.810000
   Scaling of DF-LDA-C  ScalLDAC        ....  1.000000
   Perturbative correction              ....  0.000000
   Density functional embedding theory  .... OFF
   NL short-range parameter             ....  4.800000
 RI-approximation to the Coulomb term is turned on
   Number of AuxJ basis functions       .... 2878
   RIJ-COSX (HFX calculated with COS-X)).... on


General Settings:
 Integral files         IntName         .... EPRII_i
 Hartree-Fock type      HFTyp           .... UHF
 Total Charge           Charge          ....    0
 Multiplicity           Mult            ....    2
 Number of Electrons    NEL             ....  117
 Basis Dimension        Dim             ....  419
 Nuclear Repulsion      ENuc            ....    967.5238181278 Eh

Convergence Acceleration:
 DIIS                   CNVDIIS         .... on
   Start iteration      DIISMaxIt       ....    12
   Startup error        DIISStart       ....  0.200000
   # of expansion vecs  DIISMaxEq       ....     5
   Bias factor          DIISBfac        ....   1.050
   Max. coefficient     DIISMaxC        ....  10.000
 Trust-Rad. Augm. Hess. CNVTRAH         .... auto
   Auto Start mean grad. ratio tolernc. ....  1.125000
   Auto Start start iteration           ....     1
   Auto Start num. interpolation iter.  ....    10
   Max. Number of Micro iterations      ....    16
   Max. Number of Macro iterations      .... Maxiter - #DIIS iter
   Number of Davidson start vectors     ....     2
   Converg. threshold I  (grad. norm)   ....   5.000e-05
   Converg. threshold II (energy diff.) ....   1.000e-06
   Grad. Scal. Fac. for Micro threshold ....   0.100
   Minimum threshold for Micro iter.    ....   0.010
   NR start threshold (gradient norm)   ....   0.001
   Initial trust radius                 ....   0.400
   Minimum AH scaling param. (alpha)    ....   1.000
   Maximum AH scaling param. (alpha)    .... 1000.000
   Orbital update algorithm             .... Taylor
   White noise on init. David. guess    .... on
   Maximum white noise                  ....   0.010
   Quad. conv. algorithm                .... NR
 SOSCF                  CNVSOSCF        .... off
 Level Shifting         CNVShift        .... on
   Level shift para.    LevelShift      ....    0.2500
   Turn off err/grad.   ShiftErr        ....    0.0010
 Zerner damping         CNVZerner       .... off
 Static damping         CNVDamp         .... on
   Fraction old density DampFac         ....    0.7000
   Max. Damping (<1)    DampMax         ....    0.9800
   Min. Damping (>=0)   DampMin         ....    0.0000
   Turn off err/grad.   DampErr         ....    0.1000
 Fernandez-Rico         CNVRico         .... off

SCF Procedure:
 Maximum # iterations   MaxIter         ....   125
 SCF integral mode      SCFMode         .... Direct
   Integral package                     .... SHARK and LIBINT hybrid scheme
 Reset frequency        DirectResetFreq ....    20
 Integral Threshold     Thresh          ....  1.000e-10 Eh
 Primitive CutOff       TCut            ....  1.000e-11 Eh

Convergence Tolerance:
 Convergence Check Mode ConvCheckMode   .... Total+1el-Energy
 Convergence forced     ConvForced      .... 0
 Energy Change          TolE            ....  1.000e-06 Eh
 1-El. energy change                    ....  1.000e-03 Eh
 DIIS Error             TolErr          ....  1.000e-06


Diagonalization of the overlap matrix:
Smallest eigenvalue                        ... 1.665e-04
Time for diagonalization                   ...    0.044 sec
Threshold for overlap eigenvalues          ... 1.000e-08
Number of eigenvalues below threshold      ... 0
Time for construction of square roots      ...    0.039 sec
Total time needed                          ...    0.084 sec

---------------------
INITIAL GUESS: MOREAD
---------------------
Guess MOs are being read from file: EPRII_i.ges
Input geometry compatible with but different from current geometry
Input basis set matches current basis set (good)
MOs were renormalized
MOs were reorthogonalized (Cholesky)
                      ------------------
                      INITIAL GUESS DONE (   0.2 sec)
                      ------------------
-------------------
DFT GRID GENERATION
-------------------

General Integration Accuracy     IntAcc      ... 4.388
Radial Grid Type                 RadialGrid  ... OptM3 with GC (2021)
Angular Grid (max. ang.)         AngularGrid ... 4 (Lebedev-302)
Angular grid pruning method      GridPruning ... 4 (adaptive)
Weight generation scheme         WeightScheme... Becke
Basis function cutoff            BFCut       ... 1.0000e-10
Integration weight cutoff        WCut        ... 1.0000e-14
Angular grids for H and He will be reduced by one unit
Partially contracted basis set               ... off
Rotationally invariant grid construction     ... off

Total number of grid points                  ...   162779
Total number of batches                      ...     2560
Average number of points per batch           ...       63
Average number of grid points per atom       ...     4399
Time for grid setup =    0.861 sec

--------------------
COSX GRID GENERATION
--------------------

GRIDX 1
-------
General Integration Accuracy     IntAcc      ... 3.816
Radial Grid Type                 RadialGrid  ... OptM3 with GC (2021)
Angular Grid (max. ang.)         AngularGrid ... 1 (Lebedev-50)
Angular grid pruning method      GridPruning ... 4 (adaptive)
Weight generation scheme         WeightScheme... Becke
Basis function cutoff            BFCut       ... 1.0000e-10
Integration weight cutoff        WCut        ... 1.0000e-14
Angular grids for H and He will be reduced by one unit
Partially contracted basis set               ... on
Rotationally invariant grid construction     ... off

Total number of grid points                  ...    20779
Total number of batches                      ...      346
Average number of points per batch           ...       60
Average number of grid points per atom       ...      562
UseSFitting                                  ... on

GRIDX 2
-------
General Integration Accuracy     IntAcc      ... 4.020
Radial Grid Type                 RadialGrid  ... OptM3 with GC (2021)
Angular Grid (max. ang.)         AngularGrid ... 2 (Lebedev-110)
Angular grid pruning method      GridPruning ... 4 (adaptive)
Weight generation scheme         WeightScheme... Becke
Basis function cutoff            BFCut       ... 1.0000e-10
Integration weight cutoff        WCut        ... 1.0000e-14
Angular grids for H and He will be reduced by one unit
Partially contracted basis set               ... on
Rotationally invariant grid construction     ... off

Total number of grid points                  ...    43897
Total number of batches                      ...      707
Average number of points per batch           ...       62
Average number of grid points per atom       ...     1186
UseSFitting                                  ... on

GRIDX 3
-------
General Integration Accuracy     IntAcc      ... 4.338
Radial Grid Type                 RadialGrid  ... OptM3 with GC (2021)
Angular Grid (max. ang.)         AngularGrid ... 3 (Lebedev-194)
Angular grid pruning method      GridPruning ... 4 (adaptive)
Weight generation scheme         WeightScheme... Becke
Basis function cutoff            BFCut       ... 1.0000e-10
Integration weight cutoff        WCut        ... 1.0000e-14
Angular grids for H and He will be reduced by one unit
Partially contracted basis set               ... on
Rotationally invariant grid construction     ... off

Total number of grid points                  ...    95913
Total number of batches                      ...     1518
Average number of points per batch           ...       63
Average number of grid points per atom       ...     2592
UseSFitting                                  ... on

Time for X-Grid setup             =    1.625 sec

--------------
SCF ITERATIONS
--------------
ITER       Energy         Delta-E        Max-DP      RMS-DP      [F,P]     Damp
               ***  Starting incremental Fock matrix formation  ***
  0   -621.9217333219   0.000000000000 0.00200596  0.00003250  0.0022673 0.7000
  1   -621.9218711906  -0.000137868698 0.00179907  0.00002804  0.0016425 0.7000
                               ***Turning on DIIS***
  2   -621.9219690313  -0.000097840653 0.00488693  0.00006909  0.0011711 0.0000
  3   -621.9221960722  -0.000227040962 0.00068000  0.00001144  0.0003364 0.0000
               *** Restarting incremental Fock matrix formation ***
                                   *** Resetting DIIS ***
  4   -621.9221911272   0.000004944993 0.00091828  0.00001221  0.0003869 0.0000
  5   -621.9221873902   0.000003737041 0.00046683  0.00000675  0.0004567 0.0000
  6   -621.9221969864  -0.000009596166 0.00021294  0.00000147  0.0001384 0.0000
  7   -621.9221968569   0.000000129452 0.00012842  0.00000089  0.0001786 0.0000
                 **** Energy Check signals convergence ****

               *****************************************************
               *                     SUCCESS                       *
               *           SCF CONVERGED AFTER   8 CYCLES          *
               *****************************************************

Old exchange energy                            =    -18.051393458 Eh
New exchange energy                            =    -18.051364741 Eh
Exchange energy change after final integration =      0.000028718 Eh
Total energy after final integration           =   -621.922168342 Eh
Final COS-X integration done in                =     4.797 sec

----------------
TOTAL SCF ENERGY
----------------

Total Energy       :         -621.92216834 Eh          -16923.36257 eV

Components:
Nuclear Repulsion  :          967.52381813 Eh           26327.66156 eV
Electronic Energy  :        -1589.44598647 Eh          -43251.02413 eV
One Electron Energy:        -2757.27934932 Eh          -75029.38552 eV
Two Electron Energy:         1167.83336285 Eh           31778.36138 eV
Max COSX asymmetry :            0.00000252 Eh               0.00007 eV

Virial components:
Potential Energy   :        -1238.90426699 Eh          -33712.29900 eV
Kinetic Energy     :          616.98209864 Eh           16788.93644 eV
Virial Ratio       :            2.00800683


DFT components:
N(Alpha)           :       59.000075216438 electrons
N(Beta)            :       58.000065777845 electrons
N(Total)           :      117.000140994282 electrons
E(X)               :      -71.571020025214 Eh       
E(C)               :       -4.509082914893 Eh       
E(XC)              :      -76.080102940107 Eh       
DFET-embed. en.    :        0.000000000000 Eh       

---------------
SCF CONVERGENCE
---------------

  Last Energy change         ...   -2.0217e-07  Tolerance :   1.0000e-06
  Last MAX-Density change    ...    0.0000e+00  Tolerance :   1.0000e-05
  Last RMS-Density change    ...    0.0000e+00  Tolerance :   1.0000e-06
  Last DIIS Error            ...    3.0143e-05  Tolerance :   1.0000e-06

             **** THE GBW FILE WAS UPDATED (EPRII_i.gbw) ****
             **** DENSITY EPRII_i.scfp WAS UPDATED ****
             **** ENERGY FILE WAS UPDATED (EPRII_i.en.tmp) ****
----------------------
UHF SPIN CONTAMINATION
----------------------

Warning: in a DFT calculation there is little theoretical justification to 
         calculate <S**2> as in Hartree-Fock theory. We will do it anyways
         but you should keep in mind that the values have only limited relevance

Expectation value of <S**2>     :     0.782336
Ideal value S*(S+1) for S=0.5   :     0.750000
Deviation                       :     0.032336

             **** THE GBW FILE WAS UPDATED (EPRII_i.gbw) ****
             **** DENSITY EPRII_i.scfp WAS UPDATED ****
----------------
ORBITAL ENERGIES
----------------
                 SPIN UP ORBITALS
  NO   OCC          E(Eh)            E(eV) 
   0   1.0000     -10.218676      -278.0643 
   1   1.0000     -10.209325      -277.8099 
   2   1.0000     -10.203570      -277.6533 
   3   1.0000     -10.203332      -277.6468 
   4   1.0000     -10.198257      -277.5087 
   5   1.0000     -10.197149      -277.4785 
   6   1.0000     -10.197065      -277.4762 
   7   1.0000     -10.193525      -277.3799 
   8   1.0000     -10.191984      -277.3380 
   9   1.0000     -10.187470      -277.2151 
  10   1.0000     -10.184346      -277.1302 
  11   1.0000     -10.183697      -277.1125 
  12   1.0000     -10.180067      -277.0137 
  13   1.0000     -10.179847      -277.0077 
  14   1.0000     -10.172634      -276.8114 
  15   1.0000     -10.170399      -276.7506 
  16   1.0000      -0.863295       -23.4914 
  17   1.0000      -0.811677       -22.0869 
  18   1.0000      -0.791793       -21.5458 
  19   1.0000      -0.778783       -21.1918 
  20   1.0000      -0.761681       -20.7264 
  21   1.0000      -0.728481       -19.8230 
  22   1.0000      -0.723996       -19.7009 
  23   1.0000      -0.694796       -18.9064 
  24   1.0000      -0.652780       -17.7631 
  25   1.0000      -0.622826       -16.9480 
  26   1.0000      -0.612925       -16.6785 
  27   1.0000      -0.588924       -16.0254 
  28   1.0000      -0.579639       -15.7728 
  29   1.0000      -0.560099       -15.2411 
  30   1.0000      -0.528168       -14.3722 
  31   1.0000      -0.495133       -13.4732 
  32   1.0000      -0.471750       -12.8370 
  33   1.0000      -0.469561       -12.7774 
  34   1.0000      -0.462676       -12.5901 
  35   1.0000      -0.462548       -12.5866 
  36   1.0000      -0.427240       -11.6258 
  37   1.0000      -0.425448       -11.5770 
  38   1.0000      -0.422181       -11.4881 
  39   1.0000      -0.420230       -11.4350 
  40   1.0000      -0.409893       -11.1538 
  41   1.0000      -0.396438       -10.7876 
  42   1.0000      -0.386548       -10.5185 
  43   1.0000      -0.375317       -10.2129 
  44   1.0000      -0.374572       -10.1926 
  45   1.0000      -0.361795        -9.8450 
  46   1.0000      -0.349573        -9.5124 
  47   1.0000      -0.347368        -9.4524 
  48   1.0000      -0.336137        -9.1467 
  49   1.0000      -0.332605        -9.0507 
  50   1.0000      -0.330396        -8.9905 
  51   1.0000      -0.324151        -8.8206 
  52   1.0000      -0.323987        -8.8161 
  53   1.0000      -0.319338        -8.6896 
  54   1.0000      -0.308234        -8.3875 
  55   1.0000      -0.273074        -7.4307 
  56   1.0000      -0.267722        -7.2851 
  57   1.0000      -0.237013        -6.4495 
  58   1.0000      -0.171624        -4.6701 
  59   0.0000      -0.035038        -0.9534 
  60   0.0000       0.012042         0.3277 
  61   0.0000       0.020824         0.5666 
  62   0.0000       0.022981         0.6253 
  63   0.0000       0.027399         0.7456 
  64   0.0000       0.031456         0.8560 
  65   0.0000       0.037667         1.0250 
  66   0.0000       0.041827         1.1382 
  67   0.0000       0.047876         1.3028 
  68   0.0000       0.050589         1.3766 
  69   0.0000       0.061265         1.6671 
  70   0.0000       0.076285         2.0758 
  71   0.0000       0.084838         2.3085 
  72   0.0000       0.086996         2.3673 
  73   0.0000       0.096343         2.6216 
  74   0.0000       0.104052         2.8314 
  75   0.0000       0.121260         3.2997 
  76   0.0000       0.135202         3.6790 
  77   0.0000       0.152941         4.1617 
  78   0.0000       0.153244         4.1700 
  79   0.0000       0.161386         4.3915 
  80   0.0000       0.170700         4.6450 
  81   0.0000       0.177754         4.8369 
  82   0.0000       0.185717         5.0536 
  83   0.0000       0.190560         5.1854 
  84   0.0000       0.191672         5.2157 
  85   0.0000       0.198759         5.4085 
  86   0.0000       0.201303         5.4777 
  87   0.0000       0.201459         5.4820 
  88   0.0000       0.202013         5.4970 
  89   0.0000       0.203367         5.5339 
  90   0.0000       0.208034         5.6609 
  91   0.0000       0.220738         6.0066 
  92   0.0000       0.222814         6.0631 
  93   0.0000       0.233839         6.3631 
  94   0.0000       0.242432         6.5969 
  95   0.0000       0.247778         6.7424 
  96   0.0000       0.248561         6.7637 
  97   0.0000       0.256604         6.9825 
  98   0.0000       0.258045         7.0218 
  99   0.0000       0.264288         7.1916 
 100   0.0000       0.267541         7.2802 
 101   0.0000       0.275079         7.4853 
 102   0.0000       0.281469         7.6591 
 103   0.0000       0.283401         7.7117 
 104   0.0000       0.287608         7.8262 
 105   0.0000       0.288194         7.8422 
 106   0.0000       0.298860         8.1324 
 107   0.0000       0.301449         8.2029 
 108   0.0000       0.302360         8.2276 
 109   0.0000       0.306982         8.3534 
 110   0.0000       0.309185         8.4133 
 111   0.0000       0.315569         8.5871 
 112   0.0000       0.316270         8.6062 
 113   0.0000       0.328554         8.9404 
 114   0.0000       0.333101         9.0641 
 115   0.0000       0.337384         9.1807 
 116   0.0000       0.342767         9.3272 
 117   0.0000       0.343545         9.3483 
 118   0.0000       0.355259         9.6671 
 119   0.0000       0.357486         9.7277 
 120   0.0000       0.361125         9.8267 
 121   0.0000       0.365066         9.9339 
 122   0.0000       0.371817        10.1177 
 123   0.0000       0.375912        10.2291 
 124   0.0000       0.391926        10.6648 
 125   0.0000       0.394191        10.7265 
 126   0.0000       0.397894        10.8272 
 127   0.0000       0.408930        11.1276 
 128   0.0000       0.413782        11.2596 
 129   0.0000       0.417224        11.3532 
 130   0.0000       0.424688        11.5563 
 131   0.0000       0.433541        11.7972 
 132   0.0000       0.437721        11.9110 
 133   0.0000       0.453008        12.3270 
 134   0.0000       0.454590        12.3700 
 135   0.0000       0.464209        12.6318 
 136   0.0000       0.472383        12.8542 
 137   0.0000       0.480056        13.0630 
 138   0.0000       0.485056        13.1991 
 139   0.0000       0.496298        13.5050 
 140   0.0000       0.503148        13.6913 
 141   0.0000       0.503518        13.7014 
 142   0.0000       0.511044        13.9062 
 143   0.0000       0.522474        14.2173 
 144   0.0000       0.533610        14.5203 
 145   0.0000       0.540882        14.7181 
 146   0.0000       0.547648        14.9023 
 147   0.0000       0.554333        15.0842 
 148   0.0000       0.559600        15.2275 
 149   0.0000       0.570113        15.5136 
 150   0.0000       0.576250        15.6805 
 151   0.0000       0.577175        15.7057 
 152   0.0000       0.601750        16.3744 
 153   0.0000       0.615101        16.7378 
 154   0.0000       0.616063        16.7639 
 155   0.0000       0.638672        17.3791 
 156   0.0000       0.656901        17.8752 
 157   0.0000       0.678396        18.4601 
 158   0.0000       0.706244        19.2179 
 159   0.0000       0.728277        19.8174 
 160   0.0000       0.743478        20.2311 
 161   0.0000       0.760328        20.6896 
 162   0.0000       0.774583        21.0775 
 163   0.0000       0.782608        21.2959 
 164   0.0000       0.795094        21.6356 
 165   0.0000       0.811141        22.0723 
 166   0.0000       0.820748        22.3337 
 167   0.0000       0.842040        22.9131 
 168   0.0000       0.844599        22.9827 
 169   0.0000       0.854981        23.2652 
 170   0.0000       0.861744        23.4493 
 171   0.0000       0.868616        23.6363 
 172   0.0000       0.873705        23.7747 
 173   0.0000       0.875209        23.8156 
 174   0.0000       0.887185        24.1415 
 175   0.0000       0.899361        24.4729 
 176   0.0000       0.907222        24.6868 
 177   0.0000       0.912914        24.8416 
 178   0.0000       0.918878        25.0039 
 179   0.0000       0.927101        25.2277 
 180   0.0000       0.932057        25.3626 
 181   0.0000       0.933994        25.4153 
 182   0.0000       0.936323        25.4786 
 183   0.0000       0.941334        25.6150 
 184   0.0000       0.954905        25.9843 
 185   0.0000       0.963872        26.2283 
 186   0.0000       0.964602        26.2481 
 187   0.0000       0.970178        26.3999 
 188   0.0000       0.978708        26.6320 
 189   0.0000       0.989119        26.9153 
 190   0.0000       0.990768        26.9602 
 191   0.0000       0.991994        26.9935 
 192   0.0000       1.005283        27.3551 
 193   0.0000       1.023587        27.8532 
 194   0.0000       1.024350        27.8740 
 195   0.0000       1.031324        28.0637 
 196   0.0000       1.044642        28.4262 
 197   0.0000       1.050435        28.5838 
 198   0.0000       1.054835        28.7035 
 199   0.0000       1.058983        28.8164 
 200   0.0000       1.078708        29.3531 
 201   0.0000       1.083628        29.4870 
 202   0.0000       1.099641        29.9228 
 203   0.0000       1.110776        30.2257 
 204   0.0000       1.120789        30.4982 
 205   0.0000       1.136186        30.9172 
 206   0.0000       1.137725        30.9591 
 207   0.0000       1.168620        31.7998 
 208   0.0000       1.171074        31.8666 
 209   0.0000       1.179426        32.0938 
 210   0.0000       1.187348        32.3094 
 211   0.0000       1.188322        32.3359 
 212   0.0000       1.201468        32.6936 
 213   0.0000       1.205396        32.8005 
 214   0.0000       1.219694        33.1895 
 215   0.0000       1.236563        33.6486 
 216   0.0000       1.248832        33.9824 
 217   0.0000       1.255536        34.1649 
 218   0.0000       1.261004        34.3137 
 219   0.0000       1.275281        34.7022 
 220   0.0000       1.278512        34.7901 
 221   0.0000       1.300588        35.3908 
 222   0.0000       1.307345        35.5747 
 223   0.0000       1.320837        35.9418 
 224   0.0000       1.337784        36.4029 
 225   0.0000       1.348633        36.6982 
 226   0.0000       1.355006        36.8716 
 227   0.0000       1.370699        37.2986 
 228   0.0000       1.377547        37.4850 
 229   0.0000       1.403753        38.1981 
 230   0.0000       1.417856        38.5818 
 231   0.0000       1.429618        38.9019 
 232   0.0000       1.432038        38.9677 
 233   0.0000       1.434994        39.0482 
 234   0.0000       1.438268        39.1373 
 235   0.0000       1.444829        39.3158 
 236   0.0000       1.460767        39.7495 
 237   0.0000       1.463240        39.8168 
 238   0.0000       1.480280        40.2805 
 239   0.0000       1.504597        40.9422 
 240   0.0000       1.514677        41.2164 
 241   0.0000       1.518429        41.3186 
 242   0.0000       1.522569        41.4312 
 243   0.0000       1.541420        41.9442 
 244   0.0000       1.550755        42.1982 
 245   0.0000       1.561235        42.4834 
 246   0.0000       1.562665        42.5223 
 247   0.0000       1.562944        42.5299 
 248   0.0000       1.581127        43.0246 
 249   0.0000       1.584638        43.1202 
 250   0.0000       1.593136        43.3514 
 251   0.0000       1.598053        43.4852 
 252   0.0000       1.599943        43.5367 
 253   0.0000       1.605924        43.6994 
 254   0.0000       1.624823        44.2137 
 255   0.0000       1.632514        44.4230 
 256   0.0000       1.643359        44.7181 
 257   0.0000       1.652229        44.9594 
 258   0.0000       1.657658        45.1072 
 259   0.0000       1.665902        45.3315 
 260   0.0000       1.682427        45.7812 
 261   0.0000       1.693687        46.0876 
 262   0.0000       1.694308        46.1045 
 263   0.0000       1.702900        46.3383 
 264   0.0000       1.709498        46.5178 
 265   0.0000       1.715797        46.6892 
 266   0.0000       1.723726        46.9050 
 267   0.0000       1.743284        47.4372 
 268   0.0000       1.747149        47.5423 
 269   0.0000       1.754211        47.7345 
 270   0.0000       1.766859        48.0787 
 271   0.0000       1.778293        48.3898 
 272   0.0000       1.778823        48.4042 
 273   0.0000       1.789486        48.6944 
 274   0.0000       1.792977        48.7894 
 275   0.0000       1.800627        48.9975 
 276   0.0000       1.811345        49.2892 
 277   0.0000       1.812708        49.3263 
 278   0.0000       1.826968        49.7143 
 279   0.0000       1.832652        49.8690 
 280   0.0000       1.859957        50.6120 
 281   0.0000       1.914090        52.0850 
 282   0.0000       1.916218        52.1429 
 283   0.0000       1.927566        52.4517 
 284   0.0000       1.935095        52.6566 
 285   0.0000       1.937572        52.7240 
 286   0.0000       1.952844        53.1396 
 287   0.0000       1.953291        53.1517 
 288   0.0000       1.984269        53.9947 
 289   0.0000       2.020219        54.9730 
 290   0.0000       2.035028        55.3759 
 291   0.0000       2.045064        55.6490 
 292   0.0000       2.048512        55.7429 
 293   0.0000       2.075370        56.4737 
 294   0.0000       2.101642        57.1886 
 295   0.0000       2.105091        57.2824 
 296   0.0000       2.128032        57.9067 
 297   0.0000       2.131956        58.0135 
 298   0.0000       2.164002        58.8855 
 299   0.0000       2.177323        59.2480 
 300   0.0000       2.188247        59.5452 
 301   0.0000       2.190821        59.6153 
 302   0.0000       2.195758        59.7496 
 303   0.0000       2.235156        60.8217 
 304   0.0000       2.240376        60.9637 
 305   0.0000       2.246861        61.1402 
 306   0.0000       2.263922        61.6045 
 307   0.0000       2.264963        61.6328 
 308   0.0000       2.274562        61.8940 
 309   0.0000       2.311765        62.9063 
 310   0.0000       2.312113        62.9158 
 311   0.0000       2.324855        63.2625 
 312   0.0000       2.330494        63.4160 
 313   0.0000       2.332064        63.4587 
 314   0.0000       2.361404        64.2571 
 315   0.0000       2.374869        64.6235 
 316   0.0000       2.395796        65.1929 
 317   0.0000       2.418983        65.8239 
 318   0.0000       2.420681        65.8701 
 319   0.0000       2.436579        66.3027 
 320   0.0000       2.457148        66.8624 
 321   0.0000       2.460192        66.9452 
 322   0.0000       2.467354        67.1401 
 323   0.0000       2.486972        67.6740 
 324   0.0000       2.488653        67.7197 
 325   0.0000       2.492601        67.8271 
 326   0.0000       2.516797        68.4855 
 327   0.0000       2.529209        68.8233 
 328   0.0000       2.543398        69.2094 
 329   0.0000       2.549242        69.3684 
 330   0.0000       2.562834        69.7383 
 331   0.0000       2.572472        70.0005 
 332   0.0000       2.576058        70.0981 
 333   0.0000       2.585298        70.3495 
 334   0.0000       2.605519        70.8998 
 335   0.0000       2.620370        71.3039 
 336   0.0000       2.627180        71.4892 
 337   0.0000       2.658043        72.3290 
 338   0.0000       2.691133        73.2294 
 339   0.0000       2.737299        74.4857 
 340   0.0000       2.818709        76.7010 
 341   0.0000       2.895307        78.7853 
 342   0.0000       2.936268        79.8999 
 343   0.0000       2.965367        80.6917 
 344   0.0000       3.302970        89.8784 
 345   0.0000       4.983457       135.6068 
 346   0.0000       4.991625       135.8290 
 347   0.0000       5.008077       136.2767 
 348   0.0000       5.014365       136.4478 
 349   0.0000       5.016817       136.5145 
 350   0.0000       5.023843       136.7057 
 351   0.0000       5.029125       136.8495 
 352   0.0000       5.029503       136.8597 
 353   0.0000       5.039777       137.1393 
 354   0.0000       5.052479       137.4849 
 355   0.0000       5.147709       140.0763 
 356   0.0000       5.180630       140.9721 
 357   0.0000       5.237570       142.5215 
 358   0.0000       5.241603       142.6313 
 359   0.0000       5.265819       143.2902 
 360   0.0000       5.286400       143.8503 
 361   0.0000       5.295685       144.1029 
 362   0.0000       5.313627       144.5911 
 363   0.0000       5.316719       144.6753 
 364   0.0000       5.330708       145.0559 
 365   0.0000       5.366385       146.0267 
 366   0.0000       5.378384       146.3533 
 367   0.0000       5.404901       147.0748 
 368   0.0000       5.412159       147.2723 
 369   0.0000       5.459809       148.5689 
 370   0.0000       5.508871       149.9040 
 371   0.0000       5.563074       151.3790 
 372   0.0000       5.598959       152.3554 
 373   0.0000       5.614282       152.7724 
 374   0.0000       5.663136       154.1018 
 375   0.0000       5.731381       155.9588 
 376   0.0000       5.741933       156.2459 
 377   0.0000       5.791919       157.6061 
 378   0.0000       5.842878       158.9928 
 379   0.0000       5.876974       159.9206 
 380   0.0000       6.064120       165.0131 
 381   0.0000       6.326915       172.1641 
 382   0.0000      29.626035       806.1654 
 383   0.0000      29.809049       811.1455 
 384   0.0000      29.848590       812.2214 
 385   0.0000      29.865348       812.6774 
 386   0.0000      29.956238       815.1507 
 387   0.0000      29.986127       815.9640 
 388   0.0000      30.001477       816.3817 
 389   0.0000      30.070529       818.2607 
 390   0.0000      30.103174       819.1490 
 391   0.0000      30.118423       819.5639 
 392   0.0000      30.150649       820.4409 
 393   0.0000      30.208609       822.0180 
 394   0.0000      30.249654       823.1349 
 395   0.0000      30.281492       824.0013 
 396   0.0000      30.363809       826.2413 
 397   0.0000      30.549262       831.2877 
 398   0.0000      36.608283       996.1620 
 399   0.0000      36.618412       996.4377 
 400   0.0000      36.633874       996.8584 
 401   0.0000      36.638120       996.9739 
 402   0.0000      36.641518       997.0664 
 403   0.0000      36.649251       997.2768 
 404   0.0000      36.654521       997.4202 
 405   0.0000      36.664933       997.7035 
 406   0.0000      36.676404       998.0157 
 407   0.0000      36.763438      1000.3840 
 408   0.0000      36.812682      1001.7240 
 409   0.0000      36.825799      1002.0809 
 410   0.0000      36.864095      1003.1230 
 411   0.0000      36.871315      1003.3195 
 412   0.0000      36.877458      1003.4866 
 413   0.0000      36.886758      1003.7397 
 414   0.0000      36.926591      1004.8236 
 415   0.0000      36.939056      1005.1628 
 416   0.0000      36.955777      1005.6178 
 417   0.0000      36.978216      1006.2284 
 418   0.0000      37.013365      1007.1849 

                 SPIN DOWN ORBITALS
  NO   OCC          E(Eh)            E(eV) 
   0   1.0000     -10.220206      -278.1060 
   1   1.0000     -10.205780      -277.7134 
   2   1.0000     -10.205732      -277.7121 
   3   1.0000     -10.203171      -277.6424 
   4   1.0000     -10.195091      -277.4225 
   5   1.0000     -10.194125      -277.3963 
   6   1.0000     -10.194080      -277.3950 
   7   1.0000     -10.193399      -277.3765 
   8   1.0000     -10.188160      -277.2339 
   9   1.0000     -10.186648      -277.1928 
  10   1.0000     -10.184548      -277.1356 
  11   1.0000     -10.183657      -277.1114 
  12   1.0000     -10.180066      -277.0137 
  13   1.0000     -10.179847      -277.0077 
  14   1.0000     -10.172643      -276.8117 
  15   1.0000     -10.170401      -276.7507 
  16   1.0000      -0.859824       -23.3970 
  17   1.0000      -0.805759       -21.9258 
  18   1.0000      -0.790285       -21.5048 
  19   1.0000      -0.778105       -21.1733 
  20   1.0000      -0.759489       -20.6667 
  21   1.0000      -0.724930       -19.7263 
  22   1.0000      -0.721403       -19.6304 
  23   1.0000      -0.692541       -18.8450 
  24   1.0000      -0.649564       -17.6755 
  25   1.0000      -0.620165       -16.8755 
  26   1.0000      -0.607330       -16.5263 
  27   1.0000      -0.587802       -15.9949 
  28   1.0000      -0.577412       -15.7122 
  29   1.0000      -0.557427       -15.1684 
  30   1.0000      -0.526618       -14.3300 
  31   1.0000      -0.492589       -13.4040 
  32   1.0000      -0.469442       -12.7742 
  33   1.0000      -0.468747       -12.7552 
  34   1.0000      -0.460839       -12.5401 
  35   1.0000      -0.459241       -12.4966 
  36   1.0000      -0.426235       -11.5985 
  37   1.0000      -0.423034       -11.5113 
  38   1.0000      -0.421048       -11.4573 
  39   1.0000      -0.417879       -11.3711 
  40   1.0000      -0.409466       -11.1421 
  41   1.0000      -0.389052       -10.5866 
  42   1.0000      -0.385148       -10.4804 
  43   1.0000      -0.372311       -10.1311 
  44   1.0000      -0.370920       -10.0933 
  45   1.0000      -0.360793        -9.8177 
  46   1.0000      -0.346448        -9.4273 
  47   1.0000      -0.346380        -9.4255 
  48   1.0000      -0.333968        -9.0877 
  49   1.0000      -0.330715        -8.9992 
  50   1.0000      -0.329710        -8.9719 
  51   1.0000      -0.323629        -8.8064 
  52   1.0000      -0.323431        -8.8010 
  53   1.0000      -0.318494        -8.6667 
  54   1.0000      -0.305658        -8.3174 
  55   1.0000      -0.272979        -7.4281 
  56   1.0000      -0.252404        -6.8683 
  57   1.0000      -0.228756        -6.2248 
  58   0.0000      -0.075384        -2.0513 
  59   0.0000      -0.026272        -0.7149 
  60   0.0000       0.021129         0.5750 
  61   0.0000       0.023195         0.6312 
  62   0.0000       0.027704         0.7539 
  63   0.0000       0.029698         0.8081 
  64   0.0000       0.032032         0.8716 
  65   0.0000       0.038009         1.0343 
  66   0.0000       0.042234         1.1493 
  67   0.0000       0.047971         1.3053 
  68   0.0000       0.050988         1.3875 
  69   0.0000       0.061708         1.6792 
  70   0.0000       0.076463         2.0807 
  71   0.0000       0.087797         2.3891 
  72   0.0000       0.087826         2.3899 
  73   0.0000       0.096925         2.6375 
  74   0.0000       0.104346         2.8394 
  75   0.0000       0.122285         3.3275 
  76   0.0000       0.135569         3.6890 
  77   0.0000       0.153924         4.1885 
  78   0.0000       0.156586         4.2609 
  79   0.0000       0.162065         4.4100 
  80   0.0000       0.170908         4.6506 
  81   0.0000       0.178326         4.8525 
  82   0.0000       0.186403         5.0723 
  83   0.0000       0.192081         5.2268 
  84   0.0000       0.192703         5.2437 
  85   0.0000       0.200715         5.4617 
  86   0.0000       0.201814         5.4916 
  87   0.0000       0.202281         5.5043 
  88   0.0000       0.202665         5.5148 
  89   0.0000       0.203928         5.5492 
  90   0.0000       0.210092         5.7169 
  91   0.0000       0.221100         6.0164 
  92   0.0000       0.223301         6.0763 
  93   0.0000       0.234066         6.3693 
  94   0.0000       0.243851         6.6355 
  95   0.0000       0.250699         6.8219 
  96   0.0000       0.250841         6.8257 
  97   0.0000       0.257325         7.0022 
  98   0.0000       0.258597         7.0368 
  99   0.0000       0.265286         7.2188 
 100   0.0000       0.269124         7.3232 
 101   0.0000       0.275590         7.4992 
 102   0.0000       0.282161         7.6780 
 103   0.0000       0.284005         7.7282 
 104   0.0000       0.289562         7.8794 
 105   0.0000       0.291550         7.9335 
 106   0.0000       0.299787         8.1576 
 107   0.0000       0.303749         8.2654 
 108   0.0000       0.304190         8.2774 
 109   0.0000       0.310971         8.4619 
 110   0.0000       0.312326         8.4988 
 111   0.0000       0.318016         8.6537 
 112   0.0000       0.320278         8.7152 
 113   0.0000       0.330870         9.0034 
 114   0.0000       0.337450         9.1825 
 115   0.0000       0.338875         9.2213 
 116   0.0000       0.344443         9.3728 
 117   0.0000       0.351212         9.5570 
 118   0.0000       0.356043         9.6884 
 119   0.0000       0.360135         9.7998 
 120   0.0000       0.362204         9.8561 
 121   0.0000       0.365698         9.9512 
 122   0.0000       0.373509        10.1637 
 123   0.0000       0.376910        10.2562 
 124   0.0000       0.395236        10.7549 
 125   0.0000       0.399368        10.8673 
 126   0.0000       0.401522        10.9260 
 127   0.0000       0.409924        11.1546 
 128   0.0000       0.416365        11.3299 
 129   0.0000       0.418440        11.3863 
 130   0.0000       0.433099        11.7852 
 131   0.0000       0.434996        11.8369 
 132   0.0000       0.438896        11.9430 
 133   0.0000       0.455276        12.3887 
 134   0.0000       0.455673        12.3995 
 135   0.0000       0.465590        12.6693 
 136   0.0000       0.473849        12.8941 
 137   0.0000       0.480977        13.0881 
 138   0.0000       0.487572        13.2675 
 139   0.0000       0.498324        13.5601 
 140   0.0000       0.505673        13.7601 
 141   0.0000       0.506056        13.7705 
 142   0.0000       0.512029        13.9330 
 143   0.0000       0.529924        14.4200 
 144   0.0000       0.534644        14.5484 
 145   0.0000       0.541329        14.7303 
 146   0.0000       0.548852        14.9350 
 147   0.0000       0.555819        15.1246 
 148   0.0000       0.559536        15.2257 
 149   0.0000       0.570697        15.5295 
 150   0.0000       0.577202        15.7065 
 151   0.0000       0.578141        15.7320 
 152   0.0000       0.602999        16.4084 
 153   0.0000       0.617500        16.8030 
 154   0.0000       0.617690        16.8082 
 155   0.0000       0.640333        17.4243 
 156   0.0000       0.658719        17.9246 
 157   0.0000       0.680738        18.5238 
 158   0.0000       0.708459        19.2782 
 159   0.0000       0.729765        19.8579 
 160   0.0000       0.745475        20.2854 
 161   0.0000       0.762512        20.7490 
 162   0.0000       0.775100        21.0916 
 163   0.0000       0.785988        21.3878 
 164   0.0000       0.796519        21.6744 
 165   0.0000       0.811503        22.0821 
 166   0.0000       0.821937        22.3660 
 167   0.0000       0.843307        22.9475 
 168   0.0000       0.845003        22.9937 
 169   0.0000       0.855232        23.2720 
 170   0.0000       0.864140        23.5144 
 171   0.0000       0.869868        23.6703 
 172   0.0000       0.875457        23.8224 
 173   0.0000       0.877397        23.8752 
 174   0.0000       0.890618        24.2349 
 175   0.0000       0.899931        24.4884 
 176   0.0000       0.907745        24.7010 
 177   0.0000       0.916155        24.9299 
 178   0.0000       0.919506        25.0210 
 179   0.0000       0.928628        25.2693 
 180   0.0000       0.933715        25.4077 
 181   0.0000       0.937317        25.5057 
 182   0.0000       0.938303        25.5325 
 183   0.0000       0.942262        25.6402 
 184   0.0000       0.955763        26.0076 
 185   0.0000       0.965731        26.2789 
 186   0.0000       0.971094        26.4248 
 187   0.0000       0.971860        26.4456 
 188   0.0000       0.979204        26.6455 
 189   0.0000       0.991639        26.9839 
 190   0.0000       0.992126        26.9971 
 191   0.0000       0.994747        27.0684 
 192   0.0000       1.006520        27.3888 
 193   0.0000       1.024731        27.8843 
 194   0.0000       1.026506        27.9326 
 195   0.0000       1.031883        28.0790 
 196   0.0000       1.045909        28.4606 
 197   0.0000       1.054882        28.7048 
 198   0.0000       1.055852        28.7312 
 199   0.0000       1.059098        28.8195 
 200   0.0000       1.081088        29.4179 
 201   0.0000       1.085814        29.5465 
 202   0.0000       1.100061        29.9342 
 203   0.0000       1.111968        30.2582 
 204   0.0000       1.121449        30.5162 
 205   0.0000       1.137104        30.9422 
 206   0.0000       1.142143        31.0793 
 207   0.0000       1.170238        31.8438 
 208   0.0000       1.174062        31.9478 
 209   0.0000       1.180026        32.1102 
 210   0.0000       1.188473        32.3400 
 211   0.0000       1.189912        32.3792 
 212   0.0000       1.202209        32.7138 
 213   0.0000       1.205587        32.8057 
 214   0.0000       1.223600        33.2959 
 215   0.0000       1.240313        33.7506 
 216   0.0000       1.251111        34.0445 
 217   0.0000       1.259102        34.2619 
 218   0.0000       1.263401        34.3789 
 219   0.0000       1.276903        34.7463 
 220   0.0000       1.281847        34.8808 
 221   0.0000       1.301729        35.4218 
 222   0.0000       1.320932        35.9444 
 223   0.0000       1.322834        35.9962 
 224   0.0000       1.339516        36.4501 
 225   0.0000       1.349350        36.7177 
 226   0.0000       1.358032        36.9539 
 227   0.0000       1.378263        37.5044 
 228   0.0000       1.380447        37.5639 
 229   0.0000       1.404603        38.2212 
 230   0.0000       1.421172        38.6721 
 231   0.0000       1.430095        38.9149 
 232   0.0000       1.432681        38.9852 
 233   0.0000       1.435988        39.0752 
 234   0.0000       1.439828        39.1797 
 235   0.0000       1.447008        39.3751 
 236   0.0000       1.461460        39.7683 
 237   0.0000       1.464311        39.8459 
 238   0.0000       1.481612        40.3167 
 239   0.0000       1.505539        40.9678 
 240   0.0000       1.516707        41.2717 
 241   0.0000       1.519140        41.3379 
 242   0.0000       1.523049        41.4443 
 243   0.0000       1.542856        41.9832 
 244   0.0000       1.551178        42.2097 
 245   0.0000       1.562427        42.5158 
 246   0.0000       1.563339        42.5406 
 247   0.0000       1.564309        42.5670 
 248   0.0000       1.584241        43.1094 
 249   0.0000       1.585270        43.1374 
 250   0.0000       1.594754        43.3955 
 251   0.0000       1.601046        43.5667 
 252   0.0000       1.602854        43.6159 
 253   0.0000       1.606531        43.7159 
 254   0.0000       1.627303        44.2812 
 255   0.0000       1.633043        44.4374 
 256   0.0000       1.645017        44.7632 
 257   0.0000       1.654117        45.0108 
 258   0.0000       1.662555        45.2404 
 259   0.0000       1.666884        45.3582 
 260   0.0000       1.683493        45.8102 
 261   0.0000       1.695670        46.1415 
 262   0.0000       1.696888        46.1747 
 263   0.0000       1.703539        46.3556 
 264   0.0000       1.710933        46.5569 
 265   0.0000       1.717007        46.7221 
 266   0.0000       1.724894        46.9368 
 267   0.0000       1.744672        47.4749 
 268   0.0000       1.748256        47.5725 
 269   0.0000       1.756199        47.7886 
 270   0.0000       1.769557        48.1521 
 271   0.0000       1.779790        48.4305 
 272   0.0000       1.782894        48.5150 
 273   0.0000       1.792307        48.7711 
 274   0.0000       1.793567        48.8054 
 275   0.0000       1.803628        49.0792 
 276   0.0000       1.812768        49.3279 
 277   0.0000       1.816731        49.4358 
 278   0.0000       1.829564        49.7850 
 279   0.0000       1.836819        49.9824 
 280   0.0000       1.860919        50.6382 
 281   0.0000       1.914530        52.0970 
 282   0.0000       1.921355        52.2827 
 283   0.0000       1.927854        52.4596 
 284   0.0000       1.939079        52.7650 
 285   0.0000       1.943213        52.8775 
 286   0.0000       1.954441        53.1831 
 287   0.0000       1.956042        53.2266 
 288   0.0000       1.989208        54.1291 
 289   0.0000       2.025342        55.1123 
 290   0.0000       2.036137        55.4061 
 291   0.0000       2.047285        55.7095 
 292   0.0000       2.049226        55.7623 
 293   0.0000       2.075585        56.4795 
 294   0.0000       2.103896        57.2499 
 295   0.0000       2.107040        57.3355 
 296   0.0000       2.129471        57.9459 
 297   0.0000       2.136508        58.1373 
 298   0.0000       2.165311        58.9211 
 299   0.0000       2.179924        59.3187 
 300   0.0000       2.191647        59.6377 
 301   0.0000       2.195237        59.7354 
 302   0.0000       2.199008        59.8381 
 303   0.0000       2.236466        60.8573 
 304   0.0000       2.242159        61.0122 
 305   0.0000       2.249731        61.2183 
 306   0.0000       2.264407        61.6177 
 307   0.0000       2.265446        61.6459 
 308   0.0000       2.275282        61.9136 
 309   0.0000       2.312646        62.9303 
 310   0.0000       2.314960        62.9933 
 311   0.0000       2.326649        63.3113 
 312   0.0000       2.330675        63.4209 
 313   0.0000       2.332568        63.4724 
 314   0.0000       2.361722        64.2657 
 315   0.0000       2.378125        64.7121 
 316   0.0000       2.397480        65.2388 
 317   0.0000       2.419794        65.8459 
 318   0.0000       2.420767        65.8724 
 319   0.0000       2.437553        66.3292 
 320   0.0000       2.457533        66.8729 
 321   0.0000       2.460891        66.9643 
 322   0.0000       2.467704        67.1496 
 323   0.0000       2.487095        67.6773 
 324   0.0000       2.488982        67.7286 
 325   0.0000       2.492775        67.8319 
 326   0.0000       2.517560        68.5063 
 327   0.0000       2.529647        68.8352 
 328   0.0000       2.543948        69.2244 
 329   0.0000       2.551937        69.4417 
 330   0.0000       2.564224        69.7761 
 331   0.0000       2.573157        70.0192 
 332   0.0000       2.577472        70.1366 
 333   0.0000       2.587110        70.3989 
 334   0.0000       2.606875        70.9367 
 335   0.0000       2.620653        71.3116 
 336   0.0000       2.627793        71.5059 
 337   0.0000       2.659241        72.3616 
 338   0.0000       2.692060        73.2547 
 339   0.0000       2.738519        74.5189 
 340   0.0000       2.820015        76.7365 
 341   0.0000       2.896064        78.8059 
 342   0.0000       2.938364        79.9569 
 343   0.0000       2.964693        80.6734 
 344   0.0000       3.304662        89.9244 
 345   0.0000       4.986074       135.6780 
 346   0.0000       4.991934       135.8374 
 347   0.0000       5.009485       136.3150 
 348   0.0000       5.014412       136.4491 
 349   0.0000       5.018215       136.5526 
[...]
 A(DIA)         -0.0002               0.0002               0.0001    A(PC) =   0.0001
             ----------           ----------           ----------
 A(Tot)          2.5587               3.4009               4.8813    A(iso)=    3.6136
 Orientation: 
  X           0.9985175           -0.0203741           -0.0504753
  Y          -0.0503931            0.0045273           -0.9987192
  Z           0.0205766            0.9997822            0.0034939

Notes:  (1) The A matrix conforms to the "SAI" spin Hamiltonian convention.
        (2) Tensor is right-handed.

 -----------------------------------------------------------
 Nucleus  34H : A:ISTP=    1 I=  0.5 P=533.5514 MHz/au**3
                Q:ISTP=    2 I=  1.0 Q=  0.0029 barn     
 -----------------------------------------------------------
 Solving for nuclear perturbation:
Forming RHS of the CP-SCF equations         ... 
Calc. nucleus orbit integrals (SHARK)       ... done

------------------------------------------------------------------------------
                           ORCA CP-SCF CALCULATION
------------------------------------------------------------------------------

Input orbitals are from        ... EPRII_i.gbw
Input Perturbation             ... EPRII_i.pin.tmp
Wavefunction output            ... EPRII_i.pout.tmp
Perturbation mode              ... Imaginary perturbation
Solver                         ... POPLE
Max. number of iterations      ... 64
Convergence tolerance          ... 1.000e-03
Integral handling              ... Direct
DFT GridXC                     ... 1
COSX GridX                     ... 1
COSX IntAccX                   ... 3.067
COSX Algorithm                 ... Auto
Number of perturbations        ... 3
Number of operators            ... 2
Orbital ranges used for CP-SCF:
 Operator 0:  Orbitals   0... 58  to  59...418
 Operator 1:  Orbitals   0... 57  to  58...418
Variables per perturbation     ... 42178
DFT calculation                         ... on
XC functional terms                     ... off
Hybrid DFT                              ... on
   Exchange mixing (SCF)                ...  0.200
   Exchange mixing (CP-SCF)             ...  0.200
   GGA exch. scaling(SCF)               ...  0.720
   GGA exch. scaling (CP-SCF)           ...  0.720
   GGA corr. scaling (SCF)              ...  0.810
   GGA corr. scaling (CP-SCF)           ...  0.810

CP-SCF GRID
-----------

General Integration Accuracy     IntAcc      ... 3.467
Radial Grid Type                 RadialGrid  ... OptM3 with GC (2021)
Angular Grid (max. ang.)         AngularGrid ... 1 (Lebedev-50)
Angular grid pruning method      GridPruning ... 4 (adaptive)
Weight generation scheme         WeightScheme... Becke
Basis function cutoff            BFCut       ... 1.0000e-10
Integration weight cutoff        WCut        ... 1.0000e-14
Angular grids for H and He will be reduced by one unit
Partially contracted basis set               ... off
Rotationally invariant grid construction     ... off

Total number of grid points                  ...    22947
Total number of batches                      ...      373
Average number of points per batch           ...       61
Average number of grid points per atom       ...      620

CP-SCF GRIDX
------------

General Integration Accuracy     IntAcc      ... 3.067
Radial Grid Type                 RadialGrid  ... OptM3 with GC (2021)
Angular Grid (max. ang.)         AngularGrid ... 1 (Lebedev-50)
Angular grid pruning method      GridPruning ... 4 (adaptive)
Weight generation scheme         WeightScheme... Becke
Basis function cutoff            BFCut       ... 1.0000e-10
Integration weight cutoff        WCut        ... 1.0000e-14
Angular grids for H and He will be reduced by one unit
Partially contracted basis set               ... on
Rotationally invariant grid construction     ... off

Total number of grid points                  ...    10826
Total number of batches                      ...      190
Average number of points per batch           ...       56
Average number of grid points per atom       ...      293

Memory available               ... 905.2 MB
Memory needed per perturbation ...  10.3 MB
Perturbations treated per batch... 3
Number of batches              ... 1
     CP-SCF ITERATION   0:   3.7105e-02 (   1.1 sec   0/  3 done)
     CP-SCF ITERATION   1:   5.6440e-04 (   1.1 sec   3/  3 done)
                    *** THE CP-SCF HAS CONVERGED ***

Forming final perturbed densities           ... done
Transforming perturbed density to AO basis  ... done

 Raw HFC matrix (all values in MHz): 
 -----------------------------------
                -0.8390               0.2750               0.0024
                 0.2749               0.7013               0.0070
                 0.0024               0.0070              -0.8608

 A(FC)          -0.3330              -0.3330              -0.3330
 A(SD)           1.0814              -0.5278              -0.5536
 A(ORB+DIA)      0.0005              -0.0001              -0.0001    A(PC) =   0.0001
 A(ORB)          0.0004               0.0000              -0.0000    A(PC) =   0.0001
 A(DIA)          0.0001              -0.0001              -0.0000    A(PC) =  -0.0000
             ----------           ----------           ----------
 A(Tot)          0.7489              -0.8608              -0.8867    A(iso)=   -0.3329
 Orientation: 
  X          -0.1706623           -0.0430781            0.9843875
  Y          -0.9853190            0.0120938           -0.1702945
  Z          -0.0045690           -0.9989985           -0.0445096

Notes:  (1) The A matrix conforms to the "SAI" spin Hamiltonian convention.
        (2) Tensor is right-handed.

 -----------------------------------------------------------
 Nucleus  35H : A:ISTP=    1 I=  0.5 P=533.5514 MHz/au**3
                Q:ISTP=    2 I=  1.0 Q=  0.0029 barn     
 -----------------------------------------------------------
 Solving for nuclear perturbation:
Forming RHS of the CP-SCF equations         ... 
Calc. nucleus orbit integrals (SHARK)       ... done

------------------------------------------------------------------------------
                           ORCA CP-SCF CALCULATION
------------------------------------------------------------------------------

Input orbitals are from        ... EPRII_i.gbw
Input Perturbation             ... EPRII_i.pin.tmp
Wavefunction output            ... EPRII_i.pout.tmp
Perturbation mode              ... Imaginary perturbation
Solver                         ... POPLE
Max. number of iterations      ... 64
Convergence tolerance          ... 1.000e-03
Integral handling              ... Direct
DFT GridXC                     ... 1
COSX GridX                     ... 1
COSX IntAccX                   ... 3.067
COSX Algorithm                 ... Auto
Number of perturbations        ... 3
Number of operators            ... 2
Orbital ranges used for CP-SCF:
 Operator 0:  Orbitals   0... 58  to  59...418
 Operator 1:  Orbitals   0... 57  to  58...418
Variables per perturbation     ... 42178
DFT calculation                         ... on
XC functional terms                     ... off
Hybrid DFT                              ... on
   Exchange mixing (SCF)                ...  0.200
   Exchange mixing (CP-SCF)             ...  0.200
   GGA exch. scaling(SCF)               ...  0.720
   GGA exch. scaling (CP-SCF)           ...  0.720
   GGA corr. scaling (SCF)              ...  0.810
   GGA corr. scaling (CP-SCF)           ...  0.810

CP-SCF GRID
-----------

General Integration Accuracy     IntAcc      ... 3.467
Radial Grid Type                 RadialGrid  ... OptM3 with GC (2021)
Angular Grid (max. ang.)         AngularGrid ... 1 (Lebedev-50)
Angular grid pruning method      GridPruning ... 4 (adaptive)
Weight generation scheme         WeightScheme... Becke
Basis function cutoff            BFCut       ... 1.0000e-10
Integration weight cutoff        WCut        ... 1.0000e-14
Angular grids for H and He will be reduced by one unit
Partially contracted basis set               ... off
Rotationally invariant grid construction     ... off

Total number of grid points                  ...    22947
Total number of batches                      ...      373
Average number of points per batch           ...       61
Average number of grid points per atom       ...      620

CP-SCF GRIDX
------------

General Integration Accuracy     IntAcc      ... 3.067
Radial Grid Type                 RadialGrid  ... OptM3 with GC (2021)
Angular Grid (max. ang.)         AngularGrid ... 1 (Lebedev-50)
Angular grid pruning method      GridPruning ... 4 (adaptive)
Weight generation scheme         WeightScheme... Becke
Basis function cutoff            BFCut       ... 1.0000e-10
Integration weight cutoff        WCut        ... 1.0000e-14
Angular grids for H and He will be reduced by one unit
Partially contracted basis set               ... on
Rotationally invariant grid construction     ... off

Total number of grid points                  ...    10826
Total number of batches                      ...      190
Average number of points per batch           ...       56
Average number of grid points per atom       ...      293

Memory available               ... 904.8 MB
Memory needed per perturbation ...  10.3 MB
Perturbations treated per batch... 3
Number of batches              ... 1
     CP-SCF ITERATION   0:   3.7240e-02 (   1.1 sec   0/  3 done)
     CP-SCF ITERATION   1:   5.9380e-04 (   1.1 sec   3/  3 done)
                    *** THE CP-SCF HAS CONVERGED ***

Forming final perturbed densities           ... done
Transforming perturbed density to AO basis  ... done

 Raw HFC matrix (all values in MHz): 
 -----------------------------------
                -0.1313               0.0552              -0.0001
                 0.0553               0.2378              -0.0002
                -0.0001              -0.0002              -0.1358

 A(FC)          -0.0098              -0.0098              -0.0098
 A(SD)          -0.1260              -0.1296               0.2556
 A(ORB+DIA)      0.0000               0.0000               0.0001    A(PC) =   0.0000
 A(ORB)          0.0000              -0.0000               0.0001    A(PC) =   0.0000
 A(DIA)          0.0000               0.0000               0.0000    A(PC) =   0.0000
             ----------           ----------           ----------
 A(Tot)         -0.1358              -0.1394               0.2459    A(iso)=   -0.0098
 Orientation: 
  X          -0.0183478           -0.9892738           -0.1449160
  Y           0.0031830            0.1448819           -0.9894438
  Z           0.9998266           -0.0186154            0.0004906

Notes:  (1) The A matrix conforms to the "SAI" spin Hamiltonian convention.
        (2) Tensor is right-handed.

 -----------------------------------------------------------
 Nucleus  36H : A:ISTP=    1 I=  0.5 P=533.5514 MHz/au**3
                Q:ISTP=    2 I=  1.0 Q=  0.0029 barn     
 -----------------------------------------------------------
 Solving for nuclear perturbation:
Forming RHS of the CP-SCF equations         ... 
Calc. nucleus orbit integrals (SHARK)       ... done

------------------------------------------------------------------------------
                           ORCA CP-SCF CALCULATION
------------------------------------------------------------------------------

Input orbitals are from        ... EPRII_i.gbw
Input Perturbation             ... EPRII_i.pin.tmp
Wavefunction output            ... EPRII_i.pout.tmp
Perturbation mode              ... Imaginary perturbation
Solver                         ... POPLE
Max. number of iterations      ... 64
Convergence tolerance          ... 1.000e-03
Integral handling              ... Direct
DFT GridXC                     ... 1
COSX GridX                     ... 1
COSX IntAccX                   ... 3.067
COSX Algorithm                 ... Auto
Number of perturbations        ... 3
Number of operators            ... 2
Orbital ranges used for CP-SCF:
 Operator 0:  Orbitals   0... 58  to  59...418
 Operator 1:  Orbitals   0... 57  to  58...418
Variables per perturbation     ... 42178
DFT calculation                         ... on
XC functional terms                     ... off
Hybrid DFT                              ... on
   Exchange mixing (SCF)                ...  0.200
   Exchange mixing (CP-SCF)             ...  0.200
   GGA exch. scaling(SCF)               ...  0.720
   GGA exch. scaling (CP-SCF)           ...  0.720
   GGA corr. scaling (SCF)              ...  0.810
   GGA corr. scaling (CP-SCF)           ...  0.810

CP-SCF GRID
-----------

General Integration Accuracy     IntAcc      ... 3.467
Radial Grid Type                 RadialGrid  ... OptM3 with GC (2021)
Angular Grid (max. ang.)         AngularGrid ... 1 (Lebedev-50)
Angular grid pruning method      GridPruning ... 4 (adaptive)
Weight generation scheme         WeightScheme... Becke
Basis function cutoff            BFCut       ... 1.0000e-10
Integration weight cutoff        WCut        ... 1.0000e-14
Angular grids for H and He will be reduced by one unit
Partially contracted basis set               ... off
Rotationally invariant grid construction     ... off

Total number of grid points                  ...    22947
Total number of batches                      ...      373
Average number of points per batch           ...       61
Average number of grid points per atom       ...      620

CP-SCF GRIDX
------------

General Integration Accuracy     IntAcc      ... 3.067
Radial Grid Type                 RadialGrid  ... OptM3 with GC (2021)
Angular Grid (max. ang.)         AngularGrid ... 1 (Lebedev-50)
Angular grid pruning method      GridPruning ... 4 (adaptive)
Weight generation scheme         WeightScheme... Becke
Basis function cutoff            BFCut       ... 1.0000e-10
Integration weight cutoff        WCut        ... 1.0000e-14
Angular grids for H and He will be reduced by one unit
Partially contracted basis set               ... on
Rotationally invariant grid construction     ... off

Total number of grid points                  ...    10826
Total number of batches                      ...      190
Average number of points per batch           ...       56
Average number of grid points per atom       ...      293

Memory available               ... 904.4 MB
Memory needed per perturbation ...  10.3 MB
Perturbations treated per batch... 3
Number of batches              ... 1
     CP-SCF ITERATION   0:   4.5961e-02 (   1.1 sec   0/  3 done)
     CP-SCF ITERATION   1:   2.0568e-03 (   1.1 sec   0/  3 done)
     CP-SCF ITERATION   2:   1.1347e-04 (   1.1 sec   3/  3 done)
                    *** THE CP-SCF HAS CONVERGED ***

Forming final perturbed densities           ... done
Transforming perturbed density to AO basis  ... done

 Raw HFC matrix (all values in MHz): 
 -----------------------------------
                -7.7472              -1.6316               0.1683
                -1.6287             -20.4912              -0.0135
                 0.1683              -0.0135             -17.7261

 A(FC)         -15.3238             -15.3238             -15.3238
 A(SD)           7.7837              -2.4044              -5.3793
 A(ORB+DIA)      0.0009              -0.0007               0.0066    A(PC) =   0.0023
 A(ORB)         -0.0005               0.0002               0.0066    A(PC) =   0.0021
 A(DIA)          0.0014              -0.0009              -0.0000    A(PC) =   0.0002
             ----------           ----------           ----------
 A(Tot)         -7.5392             -17.7289             -20.6965    A(iso)=  -15.3215
 Orientation: 
  X          -0.9920211           -0.0160994            0.1250401
  Y           0.1249811            0.0046249            0.9921483
  Z          -0.0165513            0.9998597           -0.0025759

Notes:  (1) The A matrix conforms to the "SAI" spin Hamiltonian convention.
        (2) Tensor is right-handed.


--------------------------------------------------------------------------------
----------------------------------------------------------------------------
                           ORCA EULER ANGLE PROGRAM
----------------------------------------------------------------------------

Only g-tensor available        -->  using g-tensor as reference tensor

Reference tensor               ...  g

g-tensor ordering              ...  |g_min> --> |gx>
                                    |g_mid> --> |gy>
                                    |g_max> --> |gz>

A- and EFG-tensor ordering     ...  the axes |Ax>, |Qx>, |Ay>, etc. are assigned
                                    such that the Euler rotation is minimal. You
                                    can find the respective eigenvalues as Ax,
                                    EFGx, Ay, etc. in the tables below.
                                    The relation of |Ax>, |Ay>,  etc. to Amin, Amid, etc.
                                    (as printed in the ORCA EPR/NMR CALCULATION Output)
                                    is obtained in the detailed printout.

Euler rotation around          ...  z - y - z
   First rotation              -->  by alpha around z
   Second rotation             -->  by beta around y'
   Third rotation              -->  by gamma around z''
   Positive / Negative angle   -->  clockwise / counterclockwise rotation

Plot EFG-tensors                    (-)
Plot HFC-tensors                    (-)
Detailed Printout                   (-)

-------------------------------------------------------------------------
          Euler rotation of hyperfine tensor to g-tensor
-------------------------------------------------------------------------

-------------------------------------------------------------------
 Atom  |   Alpha    Beta    Gamma   |   Ax       Ay       Az 
       |          [degrees]         |           [MHz]         
-------------------------------------------------------------------
  7H      -92.5      3.9     92.7     -17.65    -7.94   -21.50
  8H      -90.4      4.2     90.4       4.37     5.23     9.92
 10H       90.0     44.2    -89.9     -50.73   -20.36   -77.53
 12H      -23.2     14.6      4.7      70.62    80.87    72.14
 13H     -155.9     13.0    174.0      69.13    79.38    70.69
 15H       12.8     26.6    -55.9      -3.47    -3.29     3.21
 16H       78.6     25.9   -122.8      -3.29    -3.45     3.20
 18H     -126.4     47.9    150.4      -0.05     2.39     0.06
 19H      -54.2     48.0     30.7      -0.05     2.39     0.06
 21H     -145.0     17.5   -175.0      24.56    25.20    28.52
 22H      -35.0     17.2     -4.5      24.36    24.99    28.32
 24H      -85.1     30.4     98.6      -1.01     1.06    -0.91
 25H      -96.1     30.4     82.9      -1.00     1.06    -0.91
 27H       78.1     30.0   -107.3      -0.13    -0.17     0.83
 28H      101.9     30.0    -72.5      -0.13    -0.17     0.83
 30H      -93.8     42.1     85.4      -0.13     0.40    -0.11
 31H      -86.7     42.1     95.5      -0.13     0.40    -0.11
 33H       89.8     43.2    -90.0       3.40     2.56     4.88
 34H       93.1     36.3    -89.5      -0.86    -0.89     0.75
 35H       89.8     37.8    -89.9      -0.14    -0.14     0.25
 36H       90.1     39.0    -90.1     -17.73    -7.54   -20.70
-------------------------------------------------------------------


Maximum memory used throughout the entire EPRNMR-calculation: 161.6 MB

Timings for individual modules:

Sum of individual times         ...     1720.652 sec (=  28.678 min)
GTO integral calculation        ...        4.197 sec (=   0.070 min)   0.2 %
Spin-Orbit-Coupling Matrices    ...        8.668 sec (=   0.144 min)   0.5 %
SCF iterations                  ...       47.749 sec (=   0.796 min)   2.8 %
EPR/NMR calculation             ...     1660.038 sec (=  27.667 min)  96.5 %
                             ****ORCA TERMINATED NORMALLY****
TOTAL RUN TIME: 0 days 0 hours 28 minutes 45 seconds 174 msec
