
                                 *****************
                                 * O   R   C   A *
                                 *****************

                                            #,                                       
                                            ###                                      
                                            ####                                     
                                            #####                                    
                                            ######                                   
                                           ########,                                 
                                     ,,################,,,,,                         
                               ,,#################################,,                 
                          ,,##########################################,,             
                       ,#########################################, ''#####,          
                    ,#############################################,,   '####,        
                  ,##################################################,,,,####,       
                ,###########''''           ''''###############################       
              ,#####''   ,,,,##########,,,,          '''####'''          '####       
            ,##' ,,,,###########################,,,                        '##       
           ' ,,###''''                  '''############,,,                           
         ,,##''                                '''############,,,,        ,,,,,,###''
      ,#''                                            '''#######################'''  
     '                                                          ''''####''''         
             ,#######,   #######,   ,#######,      ##                                
            ,#'     '#,  ##    ##  ,#'     '#,    #''#        ######   ,####,        
            ##       ##  ##   ,#'  ##            #'  '#       #        #'  '#        
            ##       ##  #######   ##           ,######,      #####,   #    #        
            '#,     ,#'  ##    ##  '#,     ,#' ,#      #,         ##   #,  ,#        
             '#######'   ##     ##  '#######'  #'      '#     #####' # '####'        



                  #######################################################
                  #                        -***-                        #
                  #          Department of theory and spectroscopy      #
                  #    Directorship and core code : Frank Neese         #
                  #        Max Planck Institute fuer Kohlenforschung    #
                  #                Kaiser Wilhelm Platz 1               #
                  #                 D-45470 Muelheim/Ruhr               #
                  #                      Germany                        #
                  #                                                     #
                  #                  All rights reserved                #
                  #                        -***-                        #
                  #######################################################


                         Program Version 5.0.4 -  RELEASE  -


 With contributions from (in alphabetic order):
   Daniel Aravena         : Magnetic Suceptibility
   Michael Atanasov       : Ab Initio Ligand Field Theory (pilot matlab implementation)
   Alexander A. Auer      : GIAO ZORA, VPT2 properties, NMR spectrum
   Ute Becker             : Parallelization
   Giovanni Bistoni       : ED, misc. LED, open-shell LED, HFLD
   Martin Brehm           : Molecular dynamics
   Dmytro Bykov           : SCF Hessian
   Vijay G. Chilkuri      : MRCI spin determinant printing, contributions to CSF-ICE
   Dipayan Datta          : RHF DLPNO-CCSD density
   Achintya Kumar Dutta   : EOM-CC, STEOM-CC
   Dmitry Ganyushin       : Spin-Orbit,Spin-Spin,Magnetic field MRCI
   Miquel Garcia          : C-PCM and meta-GGA Hessian, CC/C-PCM, Gaussian charge scheme
   Yang Guo               : DLPNO-NEVPT2, F12-NEVPT2, CIM, IAO-localization
   Andreas Hansen         : Spin unrestricted coupled pair/coupled cluster methods
   Benjamin Helmich-Paris : MC-RPA, TRAH-SCF, COSX integrals
   Lee Huntington         : MR-EOM, pCC
   Robert Izsak           : Overlap fitted RIJCOSX, COSX-SCS-MP3, EOM
   Marcus Kettner         : VPT2
   Christian Kollmar      : KDIIS, OOCD, Brueckner-CCSD(T), CCSD density, CASPT2, CASPT2-K
   Simone Kossmann        : Meta GGA functionals, TD-DFT gradient, OOMP2, MP2 Hessian
   Martin Krupicka        : Initial AUTO-CI
   Lucas Lang             : DCDCAS
   Marvin Lechner         : AUTO-CI (C++ implementation), FIC-MRCC
   Dagmar Lenk            : GEPOL surface, SMD
   Dimitrios Liakos       : Extrapolation schemes; Compound Job, initial MDCI parallelization
   Dimitrios Manganas     : Further ROCIS development; embedding schemes
   Dimitrios Pantazis     : SARC Basis sets
   Anastasios Papadopoulos: AUTO-CI, single reference methods and gradients
   Taras Petrenko         : DFT Hessian,TD-DFT gradient, ASA, ECA, R-Raman, ABS, FL, XAS/XES, NRVS
   Peter Pinski           : DLPNO-MP2, DLPNO-MP2 Gradient
   Christoph Reimann      : Effective Core Potentials
   Marius Retegan         : Local ZFS, SOC
   Christoph Riplinger    : Optimizer, TS searches, QM/MM, DLPNO-CCSD(T), (RO)-DLPNO pert. Triples
   Tobias Risthaus        : Range-separated hybrids, TD-DFT gradient, RPA, STAB
   Michael Roemelt        : Original ROCIS implementation
   Masaaki Saitow         : Open-shell DLPNO-CCSD energy and density
   Barbara Sandhoefer     : DKH picture change effects
   Avijit Sen             : IP-ROCIS
   Kantharuban Sivalingam : CASSCF convergence, NEVPT2, FIC-MRCI
   Bernardo de Souza      : ESD, SOC TD-DFT
   Georgi Stoychev        : AutoAux, RI-MP2 NMR, DLPNO-MP2 response
   Willem Van den Heuvel  : Paramagnetic NMR
   Boris Wezisla          : Elementary symmetry handling
   Frank Wennmohs         : Technical directorship


 We gratefully acknowledge several colleagues who have allowed us to
 interface, adapt or use parts of their codes:
   Stefan Grimme, W. Hujo, H. Kruse, P. Pracht,  : VdW corrections, initial TS optimization,
                  C. Bannwarth, S. Ehlert          DFT functionals, gCP, sTDA/sTD-DF
   Ed Valeev, F. Pavosevic, A. Kumar             : LibInt (2-el integral package), F12 methods
   Garnet Chan, S. Sharma, J. Yang, R. Olivares  : DMRG
   Ulf Ekstrom                                   : XCFun DFT Library
   Mihaly Kallay                                 : mrcc  (arbitrary order and MRCC methods)
   Jiri Pittner, Ondrej Demel                    : Mk-CCSD
   Frank Weinhold                                : gennbo (NPA and NBO analysis)
   Christopher J. Cramer and Donald G. Truhlar   : smd solvation model
   Lars Goerigk                                  : TD-DFT with DH, B97 family of functionals
   V. Asgeirsson, H. Jonsson                     : NEB implementation
   FAccTs GmbH                                   : IRC, NEB, NEB-TS, DLPNO-Multilevel, CI-OPT
                                                   MM, QMMM, 2- and 3-layer-ONIOM, Crystal-QMMM,
                                                   LR-CPCM, SF, NACMEs, symmetry and pop. for TD-DFT,
                                                   nearIR, NL-DFT gradient (VV10), updates on ESD,
                                                   ML-optimized integration grids
   S Lehtola, MJT Oliveira, MAL Marques          : LibXC Library
   Liviu Ungur et al                             : ANISO software


 Your calculation uses the libint2 library for the computation of 2-el integrals
 For citations please refer to: http://libint.valeyev.net

 Your ORCA version has been built with support for libXC version: 5.1.0
 For citations please refer to: https://tddft.org/programs/libxc/

 This ORCA versions uses:
   CBLAS   interface :  Fast vector & matrix operations
   LAPACKE interface :  Fast linear algebra routines
   SCALAPACK package :  Parallel linear algebra routines
   Shared memory     :  Shared parallel matrices
   BLAS/LAPACK       :  OpenBLAS 0.3.15  USE64BITINT DYNAMIC_ARCH NO_AFFINITY SkylakeX SINGLE_THREADED
        Core in use  :  SkylakeX
   Copyright (c) 2011-2014, The OpenBLAS Project




***************************************
The coordinates will be read from file: opt.xyz
***************************************


================================================================================

----- Orbital basis set information -----
Your calculation utilizes the basis: EPR-II
   V. Barone, in Recent Advances in Density Functional Methods, Part 1 (ed. D. P. Chong), World Scientific, Singapore, 1995, p. 287.

----- AuxJ basis set information -----
Your calculation utilizes the AutoAux generation procedure.
  G. L. Stoychev, A. A. Auer, F. Neese, J. Chem. Theory Comput. 13, 554 (2017)

----- AuxC basis set information -----
Your calculation utilizes the AutoAux generation procedure.
  G. L. Stoychev, A. A. Auer, F. Neese, J. Chem. Theory Comput. 13, 554 (2017)

----- AuxJK basis set information -----
Your calculation utilizes the AutoAux generation procedure.
  G. L. Stoychev, A. A. Auer, F. Neese, J. Chem. Theory Comput. 13, 554 (2017)

================================================================================
                                        WARNINGS
                       Please study these warnings very carefully!
================================================================================


WARNING: your system is open-shell and RHF/RKS was chosen
  ===> : WILL SWITCH to UHF/UKS


INFO   : the flag for use of the SHARK integral package has been found!

================================================================================
                                       INPUT FILE
================================================================================
NAME = EPRII.inp
|  1> ! B3LYP EPR-II AUTOAUX
|  2> %pal nprocs 16 end
|  3> *XYZFile 0 2 opt.xyz
|  4> %EPRNMR
|  5>         GTENSOR   TRUE
|  6>         NUCLEI    = ALL H {SHIFT, AISO, ADIP, AORB}
|  7>         ORI       GIAO
|  8> END
|  9> 
| 10>                          ****END OF INPUT****
================================================================================

                       ****************************
                       * Single Point Calculation *
                       ****************************

---------------------------------
CARTESIAN COORDINATES (ANGSTROEM)
---------------------------------
  C     -2.934073   -0.018766   -0.033821
  C      1.296326    0.061617    0.042355
  C      0.590316    1.299012    0.023646
  C     -0.830012    1.218758   -0.002083
  C     -1.498941   -0.010710   -0.008376
  C     -0.774370   -1.238300    0.010896
  C      0.629305   -1.156514    0.035978
  H     -1.426643    2.131592   -0.017243
  H      1.218068   -2.074806    0.050925
  C      1.286599    2.534948    0.031266
  H      2.380846    2.491530    0.052874
  C      0.640774    3.887237    0.012787
  H     -0.012358    3.982869   -0.879700
  H     -0.049610    3.989014    0.876092
  C      1.643397    5.048244    0.030137
  H      2.282865    4.958144    0.927400
  H      2.320748    4.952086   -0.838264
  C      0.972655    6.422996    0.011073
  H      0.314265    6.559972    0.886339
  H      0.351320    6.553366   -0.891860
  C     -1.525236   -2.553953    0.005144
  H     -2.211934   -2.565966    0.872443
  H     -2.196235   -2.567265   -0.874138
  C     -0.682959   -3.832515    0.013733
  H     -0.008492   -3.844031   -0.862466
  H     -0.029866   -3.846912    0.905937
  C     -1.540346   -5.103812    0.002012
  H     -2.217942   -5.093520    0.875899
  H     -2.195918   -5.092106   -0.888500
  C     -0.711165   -6.390340    0.011269
  H     -0.071581   -6.448752    0.909014
  H     -0.048195   -6.446330   -0.869486
  C     -4.149637   -0.020449   -0.056778
  H     -5.221734   -0.017269   -0.080213
  H      1.717399    7.235047    0.023638
  H     -1.353742   -7.285750    0.001613
  H      2.389514    0.078501    0.062394

----------------------------
CARTESIAN COORDINATES (A.U.)
----------------------------
  NO LB      ZA    FRAG     MASS         X           Y           Z
   0 C     6.0000    0    12.011   -5.544595   -0.035462   -0.063912
   1 C     6.0000    0    12.011    2.449702    0.116440    0.080040
   2 C     6.0000    0    12.011    1.115535    2.454777    0.044685
   3 C     6.0000    0    12.011   -1.568496    2.303118   -0.003936
   4 C     6.0000    0    12.011   -2.832588   -0.020239   -0.015828
   5 C     6.0000    0    12.011   -1.463347   -2.340047    0.020591
   6 C     6.0000    0    12.011    1.189213   -2.185496    0.067989
   7 H     1.0000    0     1.008   -2.695965    4.028126   -0.032585
   8 H     1.0000    0     1.008    2.301815   -3.920815    0.096233
   9 C     6.0000    0    12.011    2.431319    4.790357    0.059083
  10 H     1.0000    0     1.008    4.499146    4.708310    0.099917
  11 C     6.0000    0    12.011    1.210887    7.345813    0.024163
  12 H     1.0000    0     1.008   -0.023354    7.526532   -1.662393
  13 H     1.0000    0     1.008   -0.093748    7.538145    1.655575
  14 C     6.0000    0    12.011    3.105570    9.539799    0.056950
  15 H     1.0000    0     1.008    4.313990    9.369534    1.752532
  16 H     1.0000    0     1.008    4.385578    9.358086   -1.584090
  17 C     6.0000    0    12.011    1.838051   12.137704    0.020924
  18 H     1.0000    0     1.008    0.593874   12.396551    1.674939
  19 H     1.0000    0     1.008    0.663899   12.384067   -1.685372
  20 C     6.0000    0    12.011   -2.882279   -4.826272    0.009722
  21 H     1.0000    0     1.008   -4.179950   -4.848972    1.648678
  22 H     1.0000    0     1.008   -4.150282   -4.851428   -1.651882
  23 C     6.0000    0    12.011   -1.290606   -7.242403    0.025952
  24 H     1.0000    0     1.008   -0.016048   -7.264166   -1.629825
  25 H     1.0000    0     1.008   -0.056439   -7.269610    1.711973
  26 C     6.0000    0    12.011   -2.910832   -9.644806    0.003802
  27 H     1.0000    0     1.008   -4.191303   -9.625357    1.655210
  28 H     1.0000    0     1.008   -4.149684   -9.622686   -1.679022
  29 C     6.0000    0    12.011   -1.343908  -12.075992    0.021295
  30 H     1.0000    0     1.008   -0.135268  -12.186376    1.717787
  31 H     1.0000    0     1.008   -0.091074  -12.181798   -1.643091
  32 C     6.0000    0    12.011   -7.841677   -0.038643   -0.107294
  33 H     1.0000    0     1.008   -9.867647   -0.032633   -0.151580
  34 H     1.0000    0     1.008    3.245413   13.672258    0.044669
  35 H     1.0000    0     1.008   -2.558202  -13.768072    0.003049
  36 H     1.0000    0     1.008    4.515527    0.148345    0.117908

--------------------------------
INTERNAL COORDINATES (ANGSTROEM)
--------------------------------
 C      0   0   0     0.000000000000     0.00000000     0.00000000
 C      1   0   0     4.231848939847     0.00000000     0.00000000
 C      2   1   0     1.424762060632    61.37344351     0.00000000
 C      3   2   1     1.422825886963   116.48151840     0.00000000
 C      4   3   2     1.399677359441   121.78305841     0.00000000
 C      5   4   3     1.425605629839   120.89196210     0.00000000
 C      2   1   3     1.388813772745    60.20751446   180.00689524
 H      4   3   2     1.090626055393   119.94276010   179.99792087
 H      7   2   1     1.090928671512   118.62250577   180.00005822
 C      3   2   1     1.418592591911   120.88899395   179.95563514
 H     10   3   2     1.095321098643   117.12389638   359.94844694
 C     10   3   2     1.498705157018   125.06816424   179.98164747
 H     12  10   3     1.110072117945   109.94925009   302.56206846
 H     12  10   3     1.110083212556   109.94621140    57.16239201
 C     12  10   3     1.534109735725   113.64635141   179.85516404
 H     15  12  10     1.105494941857   108.99853322   302.34391275
 H     15  12  10     1.105518470360   109.00932731    57.64727482
 C     15  12  10     1.529771797325   113.16672195   180.00099529
 H     18  15  12     1.103780613789   111.29528058    59.88161723
 H     18  15  12     1.103784895252   111.29386069   300.17982201
 C      6   5   4     1.514852331370   119.72846641   179.92922622
 H     21   6   5     1.106302396969   108.30789276   303.18976293
 H     21   6   5     1.106143653315   108.30943594    55.70878025
 C     21   6   5     1.531085820367   116.90814177   179.45460909
 H     24  21   6     1.105786818929   109.86424906   301.96965616
 H     24  21   6     1.105787266606   109.89547614    58.46843302
 C     24  21   6     1.533442247174   112.62413367   180.20133835
 H     27  24  21     1.105857717831   109.19832109   302.38643287
 H     27  24  21     1.105858913116   109.19832160    57.68661707
 C     27  24  21     1.530614619735   113.19729136   180.03394763
 H     30  27  24     1.103823611824   111.30244500    59.90416299
 H     30  27  24     1.103809094676   111.29589034   300.19584285
 C      1   2   3     1.215781472594   178.98969451     2.58275710
 H     33   1   5     1.072357782986   179.69813644    19.04955831
 H     18  15  12     1.101920293683   111.45587995   180.02775680
 H     30  27  24     1.102160184204   111.52875570   180.05131216
 H      2   1   3     1.093501760516   179.79545470   175.07056308

---------------------------
INTERNAL COORDINATES (A.U.)
---------------------------
 C      0   0   0     0.000000000000     0.00000000     0.00000000
 C      1   0   0     7.997035536435     0.00000000     0.00000000
 C      2   1   0     2.692410100595    61.37344351     0.00000000
 C      3   2   1     2.688751262613   116.48151840     0.00000000
 C      4   3   2     2.645006885193   121.78305841     0.00000000
 C      5   4   3     2.694004215372   120.89196210     0.00000000
 C      2   1   3     2.624477681505    60.20751446   180.00689524
 H      4   3   2     2.060984559211   119.94276010   179.99792087
 H      7   2   1     2.061556420801   118.62250577   180.00005822
 C      3   2   1     2.680751494321   120.88899395   179.95563514
 H     10   3   2     2.069856905141   117.12389638   359.94844694
 C     10   3   2     2.832142302260   125.06816424   179.98164747
 H     12  10   3     2.097732291818   109.94925009   302.56206846
 H     12  10   3     2.097753257595   109.94621140    57.16239201
 C     12  10   3     2.899047259903   113.64635141   179.85516404
 H     15  12  10     2.089082682545   108.99853322   302.34391275
 H     15  12  10     2.089127144972   109.00932731    57.64727482
 C     15  12  10     2.890849744340   113.16672195   180.00099529
 H     18  15  12     2.085843071993   111.29528058    59.88161723
 H     18  15  12     2.085851162785   111.29386069   300.17982201
 C      6   5   4     2.862656039621   119.72846641   179.92922622
 H     21   6   5     2.090608551572   108.30789276   303.18976293
 H     21   6   5     2.090308569541   108.30943594    55.70878025
 C     21   6   5     2.893332888024   116.90814177   179.45460909
 H     24  21   6     2.089634250275   109.86424906   301.96965616
 H     24  21   6     2.089635096263   109.89547614    58.46843302
 C     24  21   6     2.897785889343   112.62413367   180.20133835
 H     27  24  21     2.089768229784   109.19832109   302.38643287
 H     27  24  21     2.089770488544   109.19832160    57.68661707
 C     27  24  21     2.892442447875   113.19729136   180.03394763
 H     30  27  24     2.085924326504   111.30244500    59.90416299
 H     30  27  24     2.085896893069   111.29589034   300.19584285
 C      1   2   3     2.297494021899   178.98969451     2.58275710
 H     33   1   5     2.026462527422   179.69813644    19.04955831
 H     18  15  12     2.082327576472   111.45587995   180.02775680
 H     30  27  24     2.082780903857   111.52875570   180.05131216
 H      2   1   3     2.066418854336   179.79545470   175.07056308

---------------------
BASIS SET INFORMATION
---------------------
There are 2 groups of distinct atoms

 Group   1 Type C   : 10s5p1d contracted to 6s2p1d pattern {511111/41/1}
 Group   2 Type H   : 6s1p contracted to 4s1p pattern {3111/1}

Atom   0C    basis set group =>   1
Atom   1C    basis set group =>   1
Atom   2C    basis set group =>   1
Atom   3C    basis set group =>   1
Atom   4C    basis set group =>   1
Atom   5C    basis set group =>   1
Atom   6C    basis set group =>   1
Atom   7H    basis set group =>   2
Atom   8H    basis set group =>   2
Atom   9C    basis set group =>   1
Atom  10H    basis set group =>   2
Atom  11C    basis set group =>   1
Atom  12H    basis set group =>   2
Atom  13H    basis set group =>   2
Atom  14C    basis set group =>   1
Atom  15H    basis set group =>   2
Atom  16H    basis set group =>   2
Atom  17C    basis set group =>   1
Atom  18H    basis set group =>   2
Atom  19H    basis set group =>   2
Atom  20C    basis set group =>   1
Atom  21H    basis set group =>   2
Atom  22H    basis set group =>   2
Atom  23C    basis set group =>   1
Atom  24H    basis set group =>   2
Atom  25H    basis set group =>   2
Atom  26C    basis set group =>   1
Atom  27H    basis set group =>   2
Atom  28H    basis set group =>   2
Atom  29C    basis set group =>   1
Atom  30H    basis set group =>   2
Atom  31H    basis set group =>   2
Atom  32C    basis set group =>   1
Atom  33H    basis set group =>   2
Atom  34H    basis set group =>   2
Atom  35H    basis set group =>   2
Atom  36H    basis set group =>   2
---------------------------------
AUXILIARY/J BASIS SET INFORMATION
---------------------------------
There are 2 groups of distinct atoms

 Group   1 Type C   : 17s13p12d2f contracted to 17s13p12d2f pattern {11111111111111111/1111111111111/111111111111/11}
 Group   2 Type H   : 15s6p1d contracted to 15s6p1d pattern {111111111111111/111111/1}

Atom   0C    basis set group =>   1
Atom   1C    basis set group =>   1
Atom   2C    basis set group =>   1
Atom   3C    basis set group =>   1
Atom   4C    basis set group =>   1
Atom   5C    basis set group =>   1
Atom   6C    basis set group =>   1
Atom   7H    basis set group =>   2
Atom   8H    basis set group =>   2
Atom   9C    basis set group =>   1
Atom  10H    basis set group =>   2
Atom  11C    basis set group =>   1
Atom  12H    basis set group =>   2
Atom  13H    basis set group =>   2
Atom  14C    basis set group =>   1
Atom  15H    basis set group =>   2
Atom  16H    basis set group =>   2
Atom  17C    basis set group =>   1
Atom  18H    basis set group =>   2
Atom  19H    basis set group =>   2
Atom  20C    basis set group =>   1
Atom  21H    basis set group =>   2
Atom  22H    basis set group =>   2
Atom  23C    basis set group =>   1
Atom  24H    basis set group =>   2
Atom  25H    basis set group =>   2
Atom  26C    basis set group =>   1
Atom  27H    basis set group =>   2
Atom  28H    basis set group =>   2
Atom  29C    basis set group =>   1
Atom  30H    basis set group =>   2
Atom  31H    basis set group =>   2
Atom  32C    basis set group =>   1
Atom  33H    basis set group =>   2
Atom  34H    basis set group =>   2
Atom  35H    basis set group =>   2
Atom  36H    basis set group =>   2
---------------------------------
AUXILIARY/C BASIS SET INFORMATION
---------------------------------
There are 2 groups of distinct atoms

 Group   1 Type C   : 17s13p12d2f contracted to 17s13p12d2f pattern {11111111111111111/1111111111111/111111111111/11}
 Group   2 Type H   : 15s6p1d contracted to 15s6p1d pattern {111111111111111/111111/1}

Atom   0C    basis set group =>   1
Atom   1C    basis set group =>   1
Atom   2C    basis set group =>   1
Atom   3C    basis set group =>   1
Atom   4C    basis set group =>   1
Atom   5C    basis set group =>   1
Atom   6C    basis set group =>   1
Atom   7H    basis set group =>   2
Atom   8H    basis set group =>   2
Atom   9C    basis set group =>   1
Atom  10H    basis set group =>   2
Atom  11C    basis set group =>   1
Atom  12H    basis set group =>   2
Atom  13H    basis set group =>   2
Atom  14C    basis set group =>   1
Atom  15H    basis set group =>   2
Atom  16H    basis set group =>   2
Atom  17C    basis set group =>   1
Atom  18H    basis set group =>   2
Atom  19H    basis set group =>   2
Atom  20C    basis set group =>   1
Atom  21H    basis set group =>   2
Atom  22H    basis set group =>   2
Atom  23C    basis set group =>   1
Atom  24H    basis set group =>   2
Atom  25H    basis set group =>   2
Atom  26C    basis set group =>   1
Atom  27H    basis set group =>   2
Atom  28H    basis set group =>   2
Atom  29C    basis set group =>   1
Atom  30H    basis set group =>   2
Atom  31H    basis set group =>   2
Atom  32C    basis set group =>   1
Atom  33H    basis set group =>   2
Atom  34H    basis set group =>   2
Atom  35H    basis set group =>   2
Atom  36H    basis set group =>   2
----------------------------------
AUXILIARY/JK BASIS SET INFORMATION
----------------------------------
There are 2 groups of distinct atoms

 Group   1 Type C   : 17s13p12d2f contracted to 17s13p12d2f pattern {11111111111111111/1111111111111/111111111111/11}
 Group   2 Type H   : 15s6p1d contracted to 15s6p1d pattern {111111111111111/111111/1}

Atom   0C    basis set group =>   1
Atom   1C    basis set group =>   1
Atom   2C    basis set group =>   1
Atom   3C    basis set group =>   1
Atom   4C    basis set group =>   1
Atom   5C    basis set group =>   1
Atom   6C    basis set group =>   1
Atom   7H    basis set group =>   2
Atom   8H    basis set group =>   2
Atom   9C    basis set group =>   1
Atom  10H    basis set group =>   2
Atom  11C    basis set group =>   1
Atom  12H    basis set group =>   2
Atom  13H    basis set group =>   2
Atom  14C    basis set group =>   1
Atom  15H    basis set group =>   2
Atom  16H    basis set group =>   2
Atom  17C    basis set group =>   1
Atom  18H    basis set group =>   2
Atom  19H    basis set group =>   2
Atom  20C    basis set group =>   1
Atom  21H    basis set group =>   2
Atom  22H    basis set group =>   2
Atom  23C    basis set group =>   1
Atom  24H    basis set group =>   2
Atom  25H    basis set group =>   2
Atom  26C    basis set group =>   1
Atom  27H    basis set group =>   2
Atom  28H    basis set group =>   2
Atom  29C    basis set group =>   1
Atom  30H    basis set group =>   2
Atom  31H    basis set group =>   2
Atom  32C    basis set group =>   1
Atom  33H    basis set group =>   2
Atom  34H    basis set group =>   2
Atom  35H    basis set group =>   2
Atom  36H    basis set group =>   2


           ************************************************************
           *        Program running with 16 parallel MPI-processes    *
           *              working on a common directory               *
           ************************************************************
------------------------------------------------------------------------------
                           ORCA GTO INTEGRAL CALCULATION
                           -- RI-GTO INTEGRALS CHOSEN --
------------------------------------------------------------------------------
------------------------------------------------------------------------------
                   ___                                                        
                  /   \      - P O W E R E D   B Y -                         
                 /     \                                                     
                 |  |  |   _    _      __       _____    __    __             
                 |  |  |  | |  | |    /  \     |  _  \  |  |  /  |          
                  \  \/   | |  | |   /    \    | | | |  |  | /  /          
                 / \  \   | |__| |  /  /\  \   | |_| |  |  |/  /          
                |  |  |   |  __  | /  /__\  \  |    /   |      \           
                |  |  |   | |  | | |   __   |  |    \   |  |\   \          
                \     /   | |  | | |  |  |  |  | |\  \  |  | \   \       
                 \___/    |_|  |_| |__|  |__|  |_| \__\ |__|  \__/        
                                                                              
                      - O R C A' S   B I G   F R I E N D -                    
                                      &                                       
                       - I N T E G R A L  F E E D E R -                       
                                                                              
 v1 FN, 2020, v2 2021                                                         
------------------------------------------------------------------------------


Reading SHARK input file EPRII.SHARKINP.tmp ... ok
----------------------
SHARK INTEGRAL PACKAGE
----------------------

Number of atoms                             ...     37
Number of basis functions                   ...    419
Number of shells                            ...    249
Maximum angular momentum                    ...      2
Integral batch strategy                     ... SHARK/LIBINT Hybrid
RI-J (if used) integral strategy            ... SPLIT-RIJ (Revised 2003 algorithm where possible)
Printlevel                                  ...      1
Contraction scheme used                     ... SEGMENTED contraction
Coulomb Range Separation                    ... NOT USED
Exchange Range Separation                   ... NOT USED
Finite Nucleus Model                        ... NOT USED
Auxiliary Coulomb fitting basis             ... AVAILABLE
   # of basis functions in Aux-J            ...   2878
   # of shells in Aux-J                     ...   1166
   Maximum angular momentum in Aux-J        ...      3
Auxiliary J/K fitting basis                 ... AVAILABLE
   # of basis functions in Aux-JK           ...   2878
   # of shells in Aux-JK                    ...   1166
   Maximum angular momentum in Aux-JK       ...      3
Auxiliary Correlation fitting basis         ... AVAILABLE
   # of basis functions in Aux-C            ...   2878
   # of shells in Aux-C                     ...   1166
   Maximum angular momentum in Aux-C        ...      3
Auxiliary 'external' fitting basis          ... NOT available
Integral threshold                          ...     1.000000e-10
Primitive cut-off                           ...     1.000000e-11
Primitive pair pre-selection threshold      ...     1.000000e-11

Calculating pre-screening integrals         ... done (  0.0 sec) Dimension = 249
Organizing shell pair data                  ... done (  0.1 sec)
Shell pair information
Total number of shell pairs                 ...     31125
Shell pairs after pre-screening             ...     17922
Total number of primitive shell pairs       ...     81725
Primitive shell pairs kept                  ...     34240
          la=0 lb=0:   8321 shell pairs
          la=1 lb=0:   6172 shell pairs
          la=1 lb=1:   1063 shell pairs
          la=2 lb=0:   1669 shell pairs
          la=2 lb=1:    600 shell pairs
          la=2 lb=2:     97 shell pairs

Calculating one electron integrals          ... done (  0.0 sec)
Calculating RI/J V-Matrix + Cholesky decomp.... done (  0.5 sec)
Calculating RI/JK V-Matrix + Cholesky decomp... done (  0.5 sec)
Calculating RI/C V-Matrix + Cholesky decomp.... done (  0.5 sec)
Calculating Nuclear repulsion               ... done (  0.0 sec) ENN=    969.243257158093 Eh

SHARK setup successfully completed in   2.0 seconds

Maximum memory used throughout the entire GTOINT-calculation: 34.5 MB


           ************************************************************
           *        Program running with 16 parallel MPI-processes    *
           *              working on a common directory               *
           ************************************************************
-------------------------------------------------------------------------------
                                 ORCA SCF
-------------------------------------------------------------------------------

------------
SCF SETTINGS
------------
Hamiltonian:
 Density Functional     Method          .... DFT(GTOs)
 Exchange Functional    Exchange        .... B88
   X-Alpha parameter    XAlpha          ....  0.666667
   Becke's b parameter  XBeta           ....  0.004200
 Correlation Functional Correlation     .... LYP
 LDA part of GGA corr.  LDAOpt          .... VWN-5
 Gradients option       PostSCFGGA      .... off
 Hybrid DFT is turned on
   Fraction HF Exchange ScalHFX         ....  0.200000
   Scaling of DF-GGA-X  ScalDFX         ....  0.720000
   Scaling of DF-GGA-C  ScalDFC         ....  0.810000
   Scaling of DF-LDA-C  ScalLDAC        ....  1.000000
   Perturbative correction              ....  0.000000
   Density functional embedding theory  .... OFF
   NL short-range parameter             ....  4.800000
 RI-approximation to the Coulomb term is turned on
   Number of AuxJ basis functions       .... 2878
   RIJ-COSX (HFX calculated with COS-X)).... on


General Settings:
 Integral files         IntName         .... EPRII
 Hartree-Fock type      HFTyp           .... UHF
 Total Charge           Charge          ....    0
 Multiplicity           Mult            ....    2
 Number of Electrons    NEL             ....  117
 Basis Dimension        Dim             ....  419
 Nuclear Repulsion      ENuc            ....    969.2432571581 Eh

Convergence Acceleration:
 DIIS                   CNVDIIS         .... on
   Start iteration      DIISMaxIt       ....    12
   Startup error        DIISStart       ....  0.200000
   # of expansion vecs  DIISMaxEq       ....     5
   Bias factor          DIISBfac        ....   1.050
   Max. coefficient     DIISMaxC        ....  10.000
 Trust-Rad. Augm. Hess. CNVTRAH         .... auto
   Auto Start mean grad. ratio tolernc. ....  1.125000
   Auto Start start iteration           ....    20
   Auto Start num. interpolation iter.  ....    10
   Max. Number of Micro iterations      ....    16
   Max. Number of Macro iterations      .... Maxiter - #DIIS iter
   Number of Davidson start vectors     ....     2
   Converg. threshold I  (grad. norm)   ....   5.000e-05
   Converg. threshold II (energy diff.) ....   1.000e-06
   Grad. Scal. Fac. for Micro threshold ....   0.100
   Minimum threshold for Micro iter.    ....   0.010
   NR start threshold (gradient norm)   ....   0.001
   Initial trust radius                 ....   0.400
   Minimum AH scaling param. (alpha)    ....   1.000
   Maximum AH scaling param. (alpha)    .... 1000.000
   Orbital update algorithm             .... Taylor
   White noise on init. David. guess    .... on
   Maximum white noise                  ....   0.010
   Quad. conv. algorithm                .... NR
 SOSCF                  CNVSOSCF        .... off
 Level Shifting         CNVShift        .... on
   Level shift para.    LevelShift      ....    0.2500
   Turn off err/grad.   ShiftErr        ....    0.0010
 Zerner damping         CNVZerner       .... off
 Static damping         CNVDamp         .... on
   Fraction old density DampFac         ....    0.7000
   Max. Damping (<1)    DampMax         ....    0.9800
   Min. Damping (>=0)   DampMin         ....    0.0000
   Turn off err/grad.   DampErr         ....    0.1000
 Fernandez-Rico         CNVRico         .... off

SCF Procedure:
 Maximum # iterations   MaxIter         ....   125
 SCF integral mode      SCFMode         .... Direct
   Integral package                     .... SHARK and LIBINT hybrid scheme
 Reset frequency        DirectResetFreq ....    20
 Integral Threshold     Thresh          ....  1.000e-10 Eh
 Primitive CutOff       TCut            ....  1.000e-11 Eh

Convergence Tolerance:
 Convergence Check Mode ConvCheckMode   .... Total+1el-Energy
 Convergence forced     ConvForced      .... 0
 Energy Change          TolE            ....  1.000e-06 Eh
 1-El. energy change                    ....  1.000e-03 Eh
 DIIS Error             TolErr          ....  1.000e-06


Diagonalization of the overlap matrix:
Smallest eigenvalue                        ... 1.622e-04
Time for diagonalization                   ...    0.039 sec
Threshold for overlap eigenvalues          ... 1.000e-08
Number of eigenvalues below threshold      ... 0
Time for construction of square roots      ...    0.038 sec
Total time needed                          ...    0.078 sec

Time for model grid setup =    0.182 sec

------------------------------
INITIAL GUESS: MODEL POTENTIAL
------------------------------
Loading Hartree-Fock densities                     ... done
Calculating cut-offs                               ... done
Initializing the effective Hamiltonian             ... done
Setting up the integral package (SHARK)            ... done
Starting the Coulomb interaction                   ... done (   0.2 sec)
Reading the grid                                   ... done
Mapping shells                                     ... done
Starting the XC term evaluation                    ... done (   0.1 sec)
  promolecular density results
     # of electrons  =    116.988151617
     EX              =    -88.402512392
     EC              =     -3.812504790
     EX+EC           =    -92.215017182
Transforming the Hamiltonian                       ... done (   0.0 sec)
Diagonalizing the Hamiltonian                      ... done (   0.0 sec)
Back transforming the eigenvectors                 ... done (   0.0 sec)
Now organizing SCF variables                       ... done
                      ------------------
                      INITIAL GUESS DONE (   0.8 sec)
                      ------------------
-------------------
DFT GRID GENERATION
-------------------

General Integration Accuracy     IntAcc      ... 4.388
Radial Grid Type                 RadialGrid  ... OptM3 with GC (2021)
Angular Grid (max. ang.)         AngularGrid ... 4 (Lebedev-302)
Angular grid pruning method      GridPruning ... 4 (adaptive)
Weight generation scheme         WeightScheme... Becke
Basis function cutoff            BFCut       ... 1.0000e-10
Integration weight cutoff        WCut        ... 1.0000e-14
Angular grids for H and He will be reduced by one unit
Partially contracted basis set               ... off
Rotationally invariant grid construction     ... off

Total number of grid points                  ...   162768
Total number of batches                      ...     2562
Average number of points per batch           ...       63
Average number of grid points per atom       ...     4399
Time for grid setup =    0.856 sec

--------------------
COSX GRID GENERATION
--------------------

GRIDX 1
-------
General Integration Accuracy     IntAcc      ... 3.816
Radial Grid Type                 RadialGrid  ... OptM3 with GC (2021)
Angular Grid (max. ang.)         AngularGrid ... 1 (Lebedev-50)
Angular grid pruning method      GridPruning ... 4 (adaptive)
Weight generation scheme         WeightScheme... Becke
Basis function cutoff            BFCut       ... 1.0000e-10
Integration weight cutoff        WCut        ... 1.0000e-14
Angular grids for H and He will be reduced by one unit
Partially contracted basis set               ... on
Rotationally invariant grid construction     ... off

Total number of grid points                  ...    20778
Total number of batches                      ...      346
Average number of points per batch           ...       60
Average number of grid points per atom       ...      562
UseSFitting                                  ... on

GRIDX 2
-------
General Integration Accuracy     IntAcc      ... 4.020
Radial Grid Type                 RadialGrid  ... OptM3 with GC (2021)
Angular Grid (max. ang.)         AngularGrid ... 2 (Lebedev-110)
Angular grid pruning method      GridPruning ... 4 (adaptive)
Weight generation scheme         WeightScheme... Becke
Basis function cutoff            BFCut       ... 1.0000e-10
Integration weight cutoff        WCut        ... 1.0000e-14
Angular grids for H and He will be reduced by one unit
Partially contracted basis set               ... on
Rotationally invariant grid construction     ... off

Total number of grid points                  ...    43896
Total number of batches                      ...      706
Average number of points per batch           ...       62
Average number of grid points per atom       ...     1186
UseSFitting                                  ... on

GRIDX 3
-------
General Integration Accuracy     IntAcc      ... 4.338
Radial Grid Type                 RadialGrid  ... OptM3 with GC (2021)
Angular Grid (max. ang.)         AngularGrid ... 3 (Lebedev-194)
Angular grid pruning method      GridPruning ... 4 (adaptive)
Weight generation scheme         WeightScheme... Becke
Basis function cutoff            BFCut       ... 1.0000e-10
Integration weight cutoff        WCut        ... 1.0000e-14
Angular grids for H and He will be reduced by one unit
Partially contracted basis set               ... on
Rotationally invariant grid construction     ... off

Total number of grid points                  ...    95920
Total number of batches                      ...     1518
Average number of points per batch           ...       63
Average number of grid points per atom       ...     2592
UseSFitting                                  ... on

Time for X-Grid setup             =    1.508 sec

--------------
SCF ITERATIONS
--------------
ITER       Energy         Delta-E        Max-DP      RMS-DP      [F,P]     Damp
               ***  Starting incremental Fock matrix formation  ***
  0   -621.5065623441   0.000000000000 0.04579608  0.00082575  0.0796836 0.7000
  1   -621.6911103329  -0.184547988767 0.03168972  0.00062445  0.0426946 0.7000
                               ***Turning on DIIS***
  2   -621.7728887151  -0.081778382137 0.10822918  0.00128769  0.0166016 0.0000
  3   -621.8862270791  -0.113338364082 0.02464700  0.00037163  0.0233735 0.0000
  4   -621.9189275743  -0.032700495197 0.02731171  0.00018825  0.0054199 0.0000
  5   -621.9205218271  -0.001594252819 0.01521846  0.00009277  0.0033986 0.0000
  6   -621.9207783827  -0.000256555546 0.00577946  0.00004035  0.0019002 0.0000
  7   -621.9208735233  -0.000095140618 0.00259050  0.00002165  0.0014381 0.0000
  8   -621.9209211982  -0.000047674905 0.00320167  0.00002529  0.0008716 0.0000
               *** Restarting incremental Fock matrix formation ***
                                   *** Resetting DIIS ***
  9   -621.9212464935  -0.000325295252 0.00246667  0.00001890  0.0006768 0.0000
 10   -621.9212434134   0.000003080077 0.00056735  0.00000404  0.0013484 0.0000
 11   -621.9212524673  -0.000009053918 0.00054149  0.00000372  0.0004823 0.0000
 12   -621.9212546858  -0.000002218472 0.00065817  0.00000423  0.0001550 0.0000
 13   -621.9212559011  -0.000001215292 0.00026022  0.00000157  0.0000805 0.0000
                 **** Energy Check signals convergence ****

               *****************************************************
               *                     SUCCESS                       *
               *           SCF CONVERGED AFTER  14 CYCLES          *
               *****************************************************

Old exchange energy                            =    -18.048044346 Eh
New exchange energy                            =    -18.048013780 Eh
Exchange energy change after final integration =      0.000030565 Eh
Total energy after final integration           =   -621.921225511 Eh
Final COS-X integration done in                =     4.878 sec

----------------
TOTAL SCF ENERGY
----------------

Total Energy       :         -621.92122551 Eh          -16923.33691 eV

Components:
Nuclear Repulsion  :          969.24325716 Eh           26374.44988 eV
Electronic Energy  :        -1591.16448267 Eh          -43297.78679 eV
One Electron Energy:        -2760.72306906 Eh          -75123.09389 eV
Two Electron Energy:         1169.55858639 Eh           31825.30710 eV
Max COSX asymmetry :            0.00000259 Eh               0.00007 eV

Virial components:
Potential Energy   :        -1238.85648003 Eh          -33710.99866 eV
Kinetic Energy     :          616.93525451 Eh           16787.66174 eV
Virial Ratio       :            2.00808184


DFT components:
N(Alpha)           :       59.000075573990 electrons
N(Beta)            :       58.000065648056 electrons
N(Total)           :      117.000141222046 electrons
E(X)               :      -71.558196621572 Eh       
E(C)               :       -4.509112770493 Eh       
E(XC)              :      -76.067309392065 Eh       
DFET-embed. en.    :        0.000000000000 Eh       

---------------
SCF CONVERGENCE
---------------

  Last Energy change         ...   -1.7495e-07  Tolerance :   1.0000e-06
  Last MAX-Density change    ...    0.0000e+00  Tolerance :   1.0000e-05
  Last RMS-Density change    ...    0.0000e+00  Tolerance :   1.0000e-06
  Last DIIS Error            ...    6.1249e-05  Tolerance :   1.0000e-06

             **** THE GBW FILE WAS UPDATED (EPRII.gbw) ****
             **** DENSITY EPRII.scfp WAS UPDATED ****
             **** ENERGY FILE WAS UPDATED (EPRII.en.tmp) ****
----------------------
UHF SPIN CONTAMINATION
----------------------

Warning: in a DFT calculation there is little theoretical justification to 
         calculate <S**2> as in Hartree-Fock theory. We will do it anyways
         but you should keep in mind that the values have only limited relevance

Expectation value of <S**2>     :     0.781337
Ideal value S*(S+1) for S=0.5   :     0.750000
Deviation                       :     0.031337

             **** THE GBW FILE WAS UPDATED (EPRII.gbw) ****
             **** DENSITY EPRII.scfp WAS UPDATED ****
----------------
ORBITAL ENERGIES
----------------
                 SPIN UP ORBITALS
  NO   OCC          E(Eh)            E(eV) 
   0   1.0000     -10.217678      -278.0371 
   1   1.0000     -10.208399      -277.7847 
   2   1.0000     -10.202581      -277.6263 
   3   1.0000     -10.202255      -277.6175 
   4   1.0000     -10.197818      -277.4967 
   5   1.0000     -10.196962      -277.4734 
   6   1.0000     -10.196803      -277.4691 
   7   1.0000     -10.193304      -277.3739 
   8   1.0000     -10.191570      -277.3267 
   9   1.0000     -10.188601      -277.2459 
  10   1.0000     -10.185244      -277.1546 
  11   1.0000     -10.184994      -277.1478 
  12   1.0000     -10.181332      -277.0481 
  13   1.0000     -10.181100      -277.0418 
  14   1.0000     -10.174840      -276.8715 
  15   1.0000     -10.172620      -276.8111 
  16   1.0000      -0.865255       -23.5448 
  17   1.0000      -0.813125       -22.1263 
  18   1.0000      -0.792910       -21.5762 
  19   1.0000      -0.779962       -21.2239 
  20   1.0000      -0.762674       -20.7534 
  21   1.0000      -0.729105       -19.8400 
  22   1.0000      -0.724734       -19.7210 
  23   1.0000      -0.694892       -18.9090 
  24   1.0000      -0.652475       -17.7547 
  25   1.0000      -0.622838       -16.9483 
  26   1.0000      -0.611913       -16.6510 
  27   1.0000      -0.587885       -15.9972 
  28   1.0000      -0.577962       -15.7271 
  29   1.0000      -0.558954       -15.2099 
  30   1.0000      -0.527161       -14.3448 
  31   1.0000      -0.495197       -13.4750 
  32   1.0000      -0.472297       -12.8519 
  33   1.0000      -0.468692       -12.7538 
  34   1.0000      -0.462413       -12.5829 
  35   1.0000      -0.461588       -12.5605 
  36   1.0000      -0.427858       -11.6426 
  37   1.0000      -0.426007       -11.5922 
  38   1.0000      -0.422108       -11.4861 
  39   1.0000      -0.419204       -11.4071 
  40   1.0000      -0.409708       -11.1487 
  41   1.0000      -0.395269       -10.7558 
  42   1.0000      -0.386965       -10.5299 
  43   1.0000      -0.375157       -10.2086 
  44   1.0000      -0.374232       -10.1834 
  45   1.0000      -0.362103        -9.8533 
  46   1.0000      -0.347857        -9.4657 
  47   1.0000      -0.347421        -9.4538 
  48   1.0000      -0.337341        -9.1795 
  49   1.0000      -0.330664        -8.9978 
  50   1.0000      -0.330291        -8.9877 
  51   1.0000      -0.324204        -8.8220 
  52   1.0000      -0.321747        -8.7552 
  53   1.0000      -0.320307        -8.7160 
  54   1.0000      -0.308689        -8.3998 
  55   1.0000      -0.273768        -7.4496 
  56   1.0000      -0.267826        -7.2879 
  57   1.0000      -0.237441        -6.4611 
  58   1.0000      -0.171298        -4.6613 
  59   0.0000      -0.034377        -0.9354 
  60   0.0000       0.012930         0.3518 
  61   0.0000       0.020733         0.5642 
  62   0.0000       0.022709         0.6179 
  63   0.0000       0.026961         0.7336 
  64   0.0000       0.031232         0.8499 
  65   0.0000       0.037125         1.0102 
  66   0.0000       0.042566         1.1583 
  67   0.0000       0.047663         1.2970 
  68   0.0000       0.050449         1.3728 
  69   0.0000       0.060815         1.6549 
  70   0.0000       0.075949         2.0667 
  71   0.0000       0.086076         2.3422 
  72   0.0000       0.086544         2.3550 
  73   0.0000       0.095783         2.6064 
  74   0.0000       0.103856         2.8261 
  75   0.0000       0.120905         3.2900 
  76   0.0000       0.134879         3.6702 
  77   0.0000       0.153011         4.1636 
  78   0.0000       0.153377         4.1736 
  79   0.0000       0.161651         4.3988 
  80   0.0000       0.170580         4.6417 
  81   0.0000       0.177552         4.8314 
  82   0.0000       0.180623         4.9150 
  83   0.0000       0.186590         5.0774 
  84   0.0000       0.191844         5.2203 
  85   0.0000       0.199265         5.4223 
  86   0.0000       0.199371         5.4252 
  87   0.0000       0.199815         5.4373 
  88   0.0000       0.201526         5.4838 
  89   0.0000       0.204309         5.5595 
  90   0.0000       0.208782         5.6813 
  91   0.0000       0.216904         5.9022 
  92   0.0000       0.223481         6.0812 
  93   0.0000       0.234049         6.3688 
  94   0.0000       0.241735         6.5779 
  95   0.0000       0.244458         6.6520 
  96   0.0000       0.248408         6.7595 
  97   0.0000       0.254549         6.9266 
  98   0.0000       0.257908         7.0180 
  99   0.0000       0.264405         7.1948 
 100   0.0000       0.266975         7.2648 
 101   0.0000       0.274460         7.4684 
 102   0.0000       0.282219         7.6796 
 103   0.0000       0.282581         7.6894 
 104   0.0000       0.287577         7.8254 
 105   0.0000       0.288322         7.8457 
 106   0.0000       0.298461         8.1215 
 107   0.0000       0.301433         8.2024 
 108   0.0000       0.302265         8.2251 
 109   0.0000       0.307851         8.3770 
 110   0.0000       0.309656         8.4262 
 111   0.0000       0.317008         8.6262 
 112   0.0000       0.317801         8.6478 
 113   0.0000       0.330179         8.9846 
 114   0.0000       0.333688         9.0801 
 115   0.0000       0.337405         9.1813 
 116   0.0000       0.343320         9.3422 
 117   0.0000       0.343814         9.3556 
 118   0.0000       0.355355         9.6697 
 119   0.0000       0.358245         9.7483 
 120   0.0000       0.360881         9.8201 
 121   0.0000       0.365873         9.9559 
 122   0.0000       0.371508        10.1093 
 123   0.0000       0.375750        10.2247 
 124   0.0000       0.392866        10.6904 
 125   0.0000       0.394202        10.7268 
 126   0.0000       0.398316        10.8387 
 127   0.0000       0.408548        11.1172 
 128   0.0000       0.414975        11.2921 
 129   0.0000       0.417044        11.3484 
 130   0.0000       0.426476        11.6050 
 131   0.0000       0.433678        11.8010 
 132   0.0000       0.438322        11.9274 
 133   0.0000       0.453893        12.3511 
 134   0.0000       0.454993        12.3810 
 135   0.0000       0.465273        12.6607 
 136   0.0000       0.473720        12.8906 
 137   0.0000       0.481257        13.0957 
 138   0.0000       0.486943        13.2504 
 139   0.0000       0.496810        13.5189 
 140   0.0000       0.504345        13.7239 
 141   0.0000       0.504635        13.7318 
 142   0.0000       0.512992        13.9592 
 143   0.0000       0.523701        14.2506 
 144   0.0000       0.534980        14.5575 
 145   0.0000       0.540976        14.7207 
 146   0.0000       0.548376        14.9221 
 147   0.0000       0.556101        15.1323 
 148   0.0000       0.559936        15.2366 
 149   0.0000       0.570966        15.5368 
 150   0.0000       0.577827        15.7235 
 151   0.0000       0.578989        15.7551 
 152   0.0000       0.602531        16.3957 
 153   0.0000       0.615749        16.7554 
 154   0.0000       0.617498        16.8030 
 155   0.0000       0.638931        17.3862 
 156   0.0000       0.659755        17.9528 
 157   0.0000       0.681706        18.5502 
 158   0.0000       0.706847        19.2343 
 159   0.0000       0.730147        19.8683 
 160   0.0000       0.743102        20.2208 
 161   0.0000       0.760369        20.6907 
 162   0.0000       0.769810        20.9476 
 163   0.0000       0.783398        21.3173 
 164   0.0000       0.790681        21.5155 
 165   0.0000       0.812379        22.1060 
 166   0.0000       0.820959        22.3394 
 167   0.0000       0.839131        22.8339 
 168   0.0000       0.842317        22.9206 
 169   0.0000       0.852494        23.1975 
 170   0.0000       0.858003        23.3474 
 171   0.0000       0.865383        23.5483 
 172   0.0000       0.871404        23.7121 
 173   0.0000       0.875810        23.8320 
 174   0.0000       0.886921        24.1344 
 175   0.0000       0.894633        24.3442 
 176   0.0000       0.904567        24.6145 
 177   0.0000       0.909259        24.7422 
 178   0.0000       0.915916        24.9233 
 179   0.0000       0.924247        25.1500 
 180   0.0000       0.929342        25.2887 
 181   0.0000       0.933410        25.3994 
 182   0.0000       0.934884        25.4395 
 183   0.0000       0.939469        25.5642 
 184   0.0000       0.954683        25.9783 
 185   0.0000       0.962557        26.1925 
 186   0.0000       0.963745        26.2248 
 187   0.0000       0.969108        26.3708 
 188   0.0000       0.977602        26.6019 
 189   0.0000       0.989174        26.9168 
 190   0.0000       0.990225        26.9454 
 191   0.0000       0.993462        27.0335 
 192   0.0000       1.005056        27.3490 
 193   0.0000       1.024132        27.8681 
 194   0.0000       1.024425        27.8760 
 195   0.0000       1.031639        28.0723 
 196   0.0000       1.045243        28.4425 
 197   0.0000       1.051626        28.6162 
 198   0.0000       1.055193        28.7133 
 199   0.0000       1.059920        28.8419 
 200   0.0000       1.079051        29.3625 
 201   0.0000       1.084813        29.5193 
 202   0.0000       1.100055        29.9340 
 203   0.0000       1.109293        30.1854 
 204   0.0000       1.120643        30.4943 
 205   0.0000       1.135916        30.9099 
 206   0.0000       1.136686        30.9308 
 207   0.0000       1.168907        31.8076 
 208   0.0000       1.173416        31.9303 
 209   0.0000       1.178048        32.0563 
 210   0.0000       1.187250        32.3067 
 211   0.0000       1.188245        32.3338 
 212   0.0000       1.203249        32.7421 
 213   0.0000       1.205276        32.7972 
 214   0.0000       1.220815        33.2201 
 215   0.0000       1.237671        33.6788 
 216   0.0000       1.249552        34.0020 
 217   0.0000       1.257320        34.2134 
 218   0.0000       1.261429        34.3252 
 219   0.0000       1.277089        34.7514 
 220   0.0000       1.280258        34.8376 
 221   0.0000       1.300354        35.3844 
 222   0.0000       1.308202        35.5980 
 223   0.0000       1.322297        35.9815 
 224   0.0000       1.335511        36.3411 
 225   0.0000       1.349420        36.7196 
 226   0.0000       1.353964        36.8432 
 227   0.0000       1.371097        37.3095 
 228   0.0000       1.375515        37.4297 
 229   0.0000       1.405334        38.2411 
 230   0.0000       1.418504        38.5994 
 231   0.0000       1.426998        38.8306 
 232   0.0000       1.428581        38.8737 
 233   0.0000       1.434967        39.0474 
 234   0.0000       1.437068        39.1046 
 235   0.0000       1.444655        39.3111 
 236   0.0000       1.459934        39.7268 
 237   0.0000       1.462177        39.7878 
 238   0.0000       1.481114        40.3032 
 239   0.0000       1.506319        40.9890 
 240   0.0000       1.514298        41.2062 
 241   0.0000       1.519210        41.3398 
 242   0.0000       1.523222        41.4490 
 243   0.0000       1.541336        41.9419 
 244   0.0000       1.551264        42.2120 
 245   0.0000       1.560035        42.4507 
 246   0.0000       1.561837        42.4997 
 247   0.0000       1.563470        42.5442 
 248   0.0000       1.579884        42.9908 
 249   0.0000       1.585461        43.1426 
 250   0.0000       1.592896        43.3449 
 251   0.0000       1.599198        43.5164 
 252   0.0000       1.600486        43.5514 
 253   0.0000       1.605210        43.6800 
 254   0.0000       1.624820        44.2136 
 255   0.0000       1.632574        44.4246 
 256   0.0000       1.644935        44.7609 
 257   0.0000       1.653721        45.0000 
 258   0.0000       1.654793        45.0292 
 259   0.0000       1.668004        45.3887 
 260   0.0000       1.682195        45.7749 
 261   0.0000       1.690361        45.9971 
 262   0.0000       1.694266        46.1033 
 263   0.0000       1.702258        46.3208 
 264   0.0000       1.704101        46.3710 
 265   0.0000       1.712624        46.6029 
 266   0.0000       1.723852        46.9084 
 267   0.0000       1.742552        47.4173 
 268   0.0000       1.744371        47.4667 
 269   0.0000       1.749707        47.6119 
 270   0.0000       1.770439        48.1761 
 271   0.0000       1.773392        48.2564 
 272   0.0000       1.778236        48.3883 
 273   0.0000       1.790859        48.7318 
 274   0.0000       1.791177        48.7404 
 275   0.0000       1.802250        49.0417 
 276   0.0000       1.805818        49.1388 
 277   0.0000       1.814214        49.3673 
 278   0.0000       1.825282        49.6684 
 279   0.0000       1.835334        49.9420 
 280   0.0000       1.859864        50.6095 
 281   0.0000       1.912533        52.0427 
 282   0.0000       1.914756        52.1032 
 283   0.0000       1.929140        52.4946 
 284   0.0000       1.932386        52.5829 
 285   0.0000       1.938640        52.7531 
 286   0.0000       1.951612        53.1061 
 287   0.0000       1.952387        53.1272 
 288   0.0000       1.987065        54.0708 
 289   0.0000       2.015573        54.8465 
 290   0.0000       2.035537        55.3898 
 291   0.0000       2.046408        55.6856 
 292   0.0000       2.048494        55.7424 
 293   0.0000       2.074886        56.4605 
 294   0.0000       2.102769        57.2192 
 295   0.0000       2.105885        57.3041 
 296   0.0000       2.126040        57.8525 
 297   0.0000       2.126740        57.8716 
 298   0.0000       2.162687        58.8497 
 299   0.0000       2.177465        59.2518 
 300   0.0000       2.186786        59.5055 
 301   0.0000       2.188736        59.5585 
 302   0.0000       2.190687        59.6116 
 303   0.0000       2.234638        60.8076 
 304   0.0000       2.240321        60.9622 
 305   0.0000       2.241493        60.9941 
 306   0.0000       2.254414        61.3457 
 307   0.0000       2.258925        61.4685 
 308   0.0000       2.268337        61.7246 
 309   0.0000       2.304396        62.7058 
 310   0.0000       2.306364        62.7594 
 311   0.0000       2.316625        63.0386 
 312   0.0000       2.323691        63.2309 
 313   0.0000       2.325069        63.2683 
 314   0.0000       2.354679        64.0741 
 315   0.0000       2.366566        64.3975 
 316   0.0000       2.385530        64.9136 
 317   0.0000       2.412688        65.6526 
 318   0.0000       2.413816        65.6833 
 319   0.0000       2.430738        66.1437 
 320   0.0000       2.449835        66.6634 
 321   0.0000       2.453371        66.7596 
 322   0.0000       2.460281        66.9476 
 323   0.0000       2.474751        67.3414 
 324   0.0000       2.481026        67.5122 
 325   0.0000       2.488353        67.7115 
 326   0.0000       2.509861        68.2968 
 327   0.0000       2.519940        68.5711 
 328   0.0000       2.536058        69.0097 
 329   0.0000       2.543524        69.2128 
 330   0.0000       2.558425        69.6183 
 331   0.0000       2.564148        69.7740 
 332   0.0000       2.574302        70.0503 
 333   0.0000       2.581121        70.2359 
 334   0.0000       2.606022        70.9135 
 335   0.0000       2.616396        71.1957 
 336   0.0000       2.624925        71.4278 
 337   0.0000       2.662402        72.4476 
 338   0.0000       2.693630        73.2974 
 339   0.0000       2.741969        74.6128 
 340   0.0000       2.824564        76.8603 
 341   0.0000       2.900992        78.9400 
 342   0.0000       2.942318        80.0645 
 343   0.0000       2.967783        80.7575 
 344   0.0000       3.313531        90.1658 
 345   0.0000       4.978040       135.4594 
 346   0.0000       4.985637       135.6661 
 347   0.0000       5.006551       136.2352 
 348   0.0000       5.009627       136.3189 
 349   0.0000       5.012589       136.3995 
 350   0.0000       5.022184       136.6606 
 351   0.0000       5.024460       136.7225 
 352   0.0000       5.024688       136.7287 
 353   0.0000       5.035244       137.0160 
 354   0.0000       5.048261       137.3702 
 355   0.0000       5.147046       140.0582 
 356   0.0000       5.179802       140.9496 
 357   0.0000       5.235297       142.4597 
 358   0.0000       5.239837       142.5832 
 359   0.0000       5.263180       143.2184 
 360   0.0000       5.279693       143.6678 
 361   0.0000       5.288138       143.8976 
 362   0.0000       5.306222       144.3896 
 363   0.0000       5.313019       144.5746 
 364   0.0000       5.322824       144.8414 
 365   0.0000       5.360375       145.8632 
 366   0.0000       5.374351       146.2435 
 367   0.0000       5.401025       146.9694 
 368   0.0000       5.409639       147.2038 
 369   0.0000       5.459051       148.5483 
 370   0.0000       5.509749       149.9279 
 371   0.0000       5.560052       151.2967 
 372   0.0000       5.598068       152.3312 
 373   0.0000       5.614506       152.7785 
 374   0.0000       5.664786       154.1467 
 375   0.0000       5.732607       155.9922 
 376   0.0000       5.742170       156.2524 
 377   0.0000       5.798433       157.7834 
 378   0.0000       5.846026       159.0784 
 379   0.0000       5.881867       160.0537 
 380   0.0000       6.067630       165.1086 
 381   0.0000       6.323823       172.0800 
 382   0.0000      29.631616       806.3173 
 383   0.0000      29.809690       811.1629 
 384   0.0000      29.849085       812.2349 
 385   0.0000      29.870127       812.8075 
 386   0.0000      29.960659       815.2710 
 387   0.0000      29.982451       815.8640 
 388   0.0000      30.000377       816.3518 
 389   0.0000      30.074157       818.3594 
 390   0.0000      30.104877       819.1954 
 391   0.0000      30.119146       819.5836 
 392   0.0000      30.150611       820.4398 
 393   0.0000      30.212895       822.1347 
 394   0.0000      30.250052       823.1458 
 395   0.0000      30.282187       824.0202 
 396   0.0000      30.361876       826.1886 
 397   0.0000      30.548436       831.2652 
 398   0.0000      36.604160       996.0498 
 399   0.0000      36.613709       996.3097 
 400   0.0000      36.630738       996.7730 
 401   0.0000      36.634585       996.8778 
 402   0.0000      36.638098       996.9733 
 403   0.0000      36.645645       997.1787 
 404   0.0000      36.651131       997.3280 
 405   0.0000      36.661752       997.6170 
 406   0.0000      36.673359       997.9328 
 407   0.0000      36.761990      1000.3446 
 408   0.0000      36.810051      1001.6524 
 409   0.0000      36.823318      1002.0134 
 410   0.0000      36.860911      1003.0364 
 411   0.0000      36.867688      1003.2208 
 412   0.0000      36.874563      1003.4079 
 413   0.0000      36.883499      1003.6510 
 414   0.0000      36.922393      1004.7094 
 415   0.0000      36.934282      1005.0329 
 416   0.0000      36.951581      1005.5036 
 417   0.0000      36.974903      1006.1383 
 418   0.0000      37.009475      1007.0790 

                 SPIN DOWN ORBITALS
  NO   OCC          E(Eh)            E(eV) 
   0   1.0000     -10.219176      -278.0779 
   1   1.0000     -10.204885      -277.6890 
   2   1.0000     -10.204620      -277.6818 
   3   1.0000     -10.202215      -277.6164 
   4   1.0000     -10.194694      -277.4117 
   5   1.0000     -10.193867      -277.3892 
   6   1.0000     -10.193749      -277.3860 
   7   1.0000     -10.192975      -277.3650 
   8   1.0000     -10.189306      -277.2651 
   9   1.0000     -10.186570      -277.1907 
  10   1.0000     -10.185447      -277.1601 
  11   1.0000     -10.184954      -277.1467 
  12   1.0000     -10.181332      -277.0481 
  13   1.0000     -10.181099      -277.0418 
  14   1.0000     -10.174849      -276.8717 
  15   1.0000     -10.172621      -276.8111 
  16   1.0000      -0.861780       -23.4502 
  17   1.0000      -0.807171       -21.9642 
  18   1.0000      -0.791399       -21.5351 
  19   1.0000      -0.779294       -21.2057 
  20   1.0000      -0.760495       -20.6941 
  21   1.0000      -0.725568       -19.7437 
  22   1.0000      -0.722088       -19.6490 
  23   1.0000      -0.692586       -18.8462 
  24   1.0000      -0.649279       -17.6678 
  25   1.0000      -0.620204       -16.8766 
  26   1.0000      -0.606313       -16.4986 
  27   1.0000      -0.586771       -15.9668 
  28   1.0000      -0.575762       -15.6673 
  29   1.0000      -0.556379       -15.1399 
  30   1.0000      -0.525544       -14.3008 
  31   1.0000      -0.492687       -13.4067 
  32   1.0000      -0.470094       -12.7919 
  33   1.0000      -0.467858       -12.7311 
  34   1.0000      -0.460615       -12.5340 
  35   1.0000      -0.458113       -12.4659 
  36   1.0000      -0.426089       -11.5945 
  37   1.0000      -0.424291       -11.5455 
  38   1.0000      -0.421038       -11.4570 
  39   1.0000      -0.416716       -11.3394 
  40   1.0000      -0.409240       -11.1360 
  41   1.0000      -0.387526       -10.5451 
  42   1.0000      -0.385654       -10.4942 
  43   1.0000      -0.372081       -10.1248 
  44   1.0000      -0.370606       -10.0847 
  45   1.0000      -0.361079        -9.8255 
  46   1.0000      -0.346387        -9.4257 
  47   1.0000      -0.344803        -9.3826 
  48   1.0000      -0.335157        -9.1201 
  49   1.0000      -0.330012        -8.9801 
  50   1.0000      -0.328296        -8.9334 
  51   1.0000      -0.323711        -8.8086 
  52   1.0000      -0.321138        -8.7386 
  53   1.0000      -0.319432        -8.6922 
  54   1.0000      -0.306337        -8.3358 
  55   1.0000      -0.273662        -7.4467 
  56   1.0000      -0.252655        -6.8751 
  57   1.0000      -0.229186        -6.2365 
  58   0.0000      -0.075369        -2.0509 
  59   0.0000      -0.025631        -0.6975 
  60   0.0000       0.021042         0.5726 
  61   0.0000       0.022918         0.6236 
  62   0.0000       0.027285         0.7425 
  63   0.0000       0.030526         0.8307 
  64   0.0000       0.031797         0.8653 
  65   0.0000       0.037467         1.0195 
  66   0.0000       0.042958         1.1689 
  67   0.0000       0.047771         1.2999 
  68   0.0000       0.050859         1.3839 
  69   0.0000       0.061272         1.6673 
  70   0.0000       0.076134         2.0717 
  71   0.0000       0.087342         2.3767 
  72   0.0000       0.089005         2.4219 
  73   0.0000       0.096366         2.6223 
  74   0.0000       0.104154         2.8342 
  75   0.0000       0.121963         3.3188 
  76   0.0000       0.135250         3.6803 
  77   0.0000       0.154070         4.1925 
  78   0.0000       0.156358         4.2547 
  79   0.0000       0.162300         4.4164 
  80   0.0000       0.170796         4.6476 
  81   0.0000       0.178106         4.8465 
  82   0.0000       0.181443         4.9373 
  83   0.0000       0.188229         5.1220 
  84   0.0000       0.192908         5.2493 
  85   0.0000       0.199660         5.4330 
  86   0.0000       0.200229         5.4485 
  87   0.0000       0.201565         5.4849 
  88   0.0000       0.202566         5.5121 
  89   0.0000       0.204715         5.5706 
  90   0.0000       0.210810         5.7364 
  91   0.0000       0.217353         5.9145 
  92   0.0000       0.223952         6.0941 
  93   0.0000       0.234187         6.3726 
  94   0.0000       0.243163         6.6168 
  95   0.0000       0.247494         6.7346 
  96   0.0000       0.250797         6.8245 
  97   0.0000       0.255322         6.9477 
  98   0.0000       0.258447         7.0327 
  99   0.0000       0.265368         7.2210 
 100   0.0000       0.268597         7.3089 
 101   0.0000       0.274967         7.4822 
 102   0.0000       0.283027         7.7016 
 103   0.0000       0.283229         7.7071 
 104   0.0000       0.288812         7.8590 
 105   0.0000       0.292325         7.9546 
 106   0.0000       0.299573         8.1518 
 107   0.0000       0.303556         8.2602 
 108   0.0000       0.304167         8.2768 
 109   0.0000       0.311387         8.4733 
 110   0.0000       0.313372         8.5273 
 111   0.0000       0.319364         8.6903 
 112   0.0000       0.322078         8.7642 
 113   0.0000       0.332443         9.0462 
 114   0.0000       0.337623         9.1872 
 115   0.0000       0.338927         9.2227 
 116   0.0000       0.344196         9.3661 
 117   0.0000       0.352231         9.5847 
 118   0.0000       0.356107         9.6902 
 119   0.0000       0.361067         9.8251 
 120   0.0000       0.361969         9.8497 
 121   0.0000       0.366500         9.9730 
 122   0.0000       0.373411        10.1610 
 123   0.0000       0.376611        10.2481 
 124   0.0000       0.395408        10.7596 
 125   0.0000       0.399636        10.8747 
 126   0.0000       0.402402        10.9499 
 127   0.0000       0.409558        11.1446 
 128   0.0000       0.417617        11.3639 
 129   0.0000       0.418216        11.3802 
 130   0.0000       0.434658        11.8276 
 131   0.0000       0.435216        11.8428 
 132   0.0000       0.439566        11.9612 
 133   0.0000       0.455676        12.3996 
 134   0.0000       0.456611        12.4250 
 135   0.0000       0.466688        12.6992 
 136   0.0000       0.475231        12.9317 
 137   0.0000       0.482451        13.1282 
 138   0.0000       0.489411        13.3175 
 139   0.0000       0.498741        13.5714 
 140   0.0000       0.506805        13.7909 
 141   0.0000       0.507335        13.8053 
 142   0.0000       0.514029        13.9874 
 143   0.0000       0.530855        14.4453 
 144   0.0000       0.535983        14.5848 
 145   0.0000       0.541378        14.7316 
 146   0.0000       0.549646        14.9566 
 147   0.0000       0.557534        15.1713 
 148   0.0000       0.559881        15.2351 
 149   0.0000       0.571586        15.5537 
 150   0.0000       0.578704        15.7473 
 151   0.0000       0.579992        15.7824 
 152   0.0000       0.603778        16.4296 
 153   0.0000       0.618130        16.8202 
 154   0.0000       0.619136        16.8475 
 155   0.0000       0.640600        17.4316 
 156   0.0000       0.661642        18.0042 
 157   0.0000       0.684021        18.6131 
 158   0.0000       0.709041        19.2940 
 159   0.0000       0.731665        19.9096 
 160   0.0000       0.745163        20.2769 
 161   0.0000       0.762406        20.7461 
 162   0.0000       0.770347        20.9622 
 163   0.0000       0.786869        21.4118 
 164   0.0000       0.792128        21.5549 
 165   0.0000       0.812681        22.1142 
 166   0.0000       0.822245        22.3744 
 167   0.0000       0.840331        22.8666 
 168   0.0000       0.842740        22.9321 
 169   0.0000       0.852812        23.2062 
 170   0.0000       0.860336        23.4109 
 171   0.0000       0.866295        23.5731 
 172   0.0000       0.875396        23.8207 
 173   0.0000       0.876125        23.8406 
 174   0.0000       0.890438        24.2301 
 175   0.0000       0.895134        24.3578 
 176   0.0000       0.905028        24.6271 
 177   0.0000       0.912382        24.8272 
 178   0.0000       0.916514        24.9396 
 179   0.0000       0.925430        25.1822 
 180   0.0000       0.931229        25.3400 
 181   0.0000       0.936681        25.4884 
 182   0.0000       0.936974        25.4964 
 183   0.0000       0.940625        25.5957 
 184   0.0000       0.955492        26.0002 
 185   0.0000       0.964835        26.2545 
 186   0.0000       0.970124        26.3984 
 187   0.0000       0.970724        26.4148 
 188   0.0000       0.978210        26.6185 
 189   0.0000       0.990690        26.9580 
 190   0.0000       0.992468        27.0064 
 191   0.0000       0.996068        27.1044 
 192   0.0000       1.006438        27.3866 
 193   0.0000       1.024805        27.8863 
 194   0.0000       1.027061        27.9477 
 195   0.0000       1.032184        28.0871 
 196   0.0000       1.046503        28.4768 
 197   0.0000       1.056050        28.7366 
 198   0.0000       1.056288        28.7430 
 199   0.0000       1.060060        28.8457 
 200   0.0000       1.081462        29.4281 
 201   0.0000       1.087098        29.5814 
 202   0.0000       1.100474        29.9454 
 203   0.0000       1.110495        30.2181 
 204   0.0000       1.121303        30.5122 
 205   0.0000       1.136808        30.9341 
 206   0.0000       1.141037        31.0492 
 207   0.0000       1.170640        31.8547 
 208   0.0000       1.176470        32.0134 
 209   0.0000       1.178662        32.0730 
 210   0.0000       1.188934        32.3525 
 211   0.0000       1.189506        32.3681 
 212   0.0000       1.204022        32.7631 
 213   0.0000       1.205485        32.8029 
 214   0.0000       1.224814        33.3289 
 215   0.0000       1.241168        33.7739 
 216   0.0000       1.251754        34.0620 
 217   0.0000       1.260945        34.3121 
 218   0.0000       1.263860        34.3914 
 219   0.0000       1.278631        34.7933 
 220   0.0000       1.283672        34.9305 
 221   0.0000       1.301466        35.4147 
 222   0.0000       1.321632        35.9634 
 223   0.0000       1.324365        36.0378 
 224   0.0000       1.337373        36.3918 
 225   0.0000       1.349997        36.7353 
 226   0.0000       1.356839        36.9215 
 227   0.0000       1.376273        37.4503 
 228   0.0000       1.380860        37.5751 
 229   0.0000       1.406209        38.2649 
 230   0.0000       1.421204        38.6729 
 231   0.0000       1.427203        38.8362 
 232   0.0000       1.429658        38.9030 
 233   0.0000       1.436245        39.0822 
 234   0.0000       1.438699        39.1490 
 235   0.0000       1.446629        39.3648 
 236   0.0000       1.460748        39.7490 
 237   0.0000       1.463305        39.8186 
 238   0.0000       1.482446        40.3394 
 239   0.0000       1.507191        41.0128 
 240   0.0000       1.516235        41.2589 
 241   0.0000       1.519915        41.3590 
 242   0.0000       1.523782        41.4642 
 243   0.0000       1.542664        41.9780 
 244   0.0000       1.551785        42.2262 
 245   0.0000       1.561226        42.4831 
 246   0.0000       1.563154        42.5356 
 247   0.0000       1.564138        42.5624 
 248   0.0000       1.583087        43.0780 
 249   0.0000       1.586066        43.1591 
 250   0.0000       1.594272        43.3823 
 251   0.0000       1.600752        43.5587 
 252   0.0000       1.604878        43.6709 
 253   0.0000       1.605873        43.6980 
 254   0.0000       1.627185        44.2780 
 255   0.0000       1.633121        44.4395 
 256   0.0000       1.646542        44.8047 
 257   0.0000       1.655763        45.0556 
 258   0.0000       1.659861        45.1671 
 259   0.0000       1.669011        45.4161 
 260   0.0000       1.683207        45.8024 
 261   0.0000       1.692905        46.0663 
 262   0.0000       1.696255        46.1574 
 263   0.0000       1.702961        46.3399 
 264   0.0000       1.705534        46.4099 
 265   0.0000       1.713906        46.6378 
 266   0.0000       1.725011        46.9399 
 267   0.0000       1.743505        47.4432 
 268   0.0000       1.745740        47.5040 
 269   0.0000       1.751840        47.6700 
 270   0.0000       1.773067        48.2476 
 271   0.0000       1.774404        48.2840 
 272   0.0000       1.783000        48.5179 
 273   0.0000       1.791588        48.7516 
 274   0.0000       1.793950        48.8159 
 275   0.0000       1.804495        49.1028 
 276   0.0000       1.807489        49.1843 
 277   0.0000       1.817832        49.4657 
 278   0.0000       1.827991        49.7422 
 279   0.0000       1.840052        50.0704 
 280   0.0000       1.860841        50.6361 
 281   0.0000       1.915066        52.1116 
 282   0.0000       1.917517        52.1783 
 283   0.0000       1.929486        52.5040 
 284   0.0000       1.939898        52.7873 
 285   0.0000       1.940959        52.8162 
 286   0.0000       1.953832        53.1665 
 287   0.0000       1.954506        53.1848 
 288   0.0000       1.991963        54.2041 
 289   0.0000       2.020725        54.9867 
 290   0.0000       2.036715        55.4218 
 291   0.0000       2.048399        55.7398 
 292   0.0000       2.049309        55.7645 
 293   0.0000       2.075164        56.4681 
 294   0.0000       2.105088        57.2823 
 295   0.0000       2.107683        57.3530 
 296   0.0000       2.127966        57.9049 
 297   0.0000       2.130560        57.9755 
 298   0.0000       2.164067        58.8873 
 299   0.0000       2.180003        59.3209 
 300   0.0000       2.190333        59.6020 
 301   0.0000       2.191470        59.6329 
 302   0.0000       2.195757        59.7496 
 303   0.0000       2.235810        60.8395 
 304   0.0000       2.242067        61.0097 
 305   0.0000       2.244081        61.0645 
 306   0.0000       2.254992        61.3614 
 307   0.0000       2.259595        61.4867 
 308   0.0000       2.269005        61.7428 
 309   0.0000       2.307118        62.7799 
 310   0.0000       2.307376        62.7869 
 311   0.0000       2.318997        63.1031 
 312   0.0000       2.324074        63.2413 
 313   0.0000       2.325389        63.2771 
 314   0.0000       2.355027        64.0835 
 315   0.0000       2.369974        64.4903 
 316   0.0000       2.387331        64.9626 
 317   0.0000       2.412842        65.6568 
 318   0.0000       2.414569        65.7038 
 319   0.0000       2.431692        66.1697 
 320   0.0000       2.450230        66.6742 
 321   0.0000       2.454100        66.7795 
 322   0.0000       2.460690        66.9588 
 323   0.0000       2.474872        67.3447 
 324   0.0000       2.481234        67.5178 
 325   0.0000       2.488654        67.7197 
 326   0.0000       2.510579        68.3163 
 327   0.0000       2.520329        68.5816 
 328   0.0000       2.536703        69.0272 
 329   0.0000       2.546524        69.2944 
 330   0.0000       2.559862        69.6574 
 331   0.0000       2.564864        69.7935 
 332   0.0000       2.575584        70.0852 
 333   0.0000       2.583041        70.2881 
 334   0.0000       2.607411        70.9513 
 335   0.0000       2.616684        71.2036 
 336   0.0000       2.625586        71.4458 
 337   0.0000       2.663572        72.4795 
 338   0.0000       2.694578        73.3232 
 339   0.0000       2.743208        74.6465 
[...]
 A(ORB)         -0.0000              -0.0001              -0.0008    A(PC) =  -0.0003
 A(DIA)         -0.0001               0.0002               0.0001    A(PC) =   0.0001
             ----------           ----------           ----------
 A(Tot)          2.4329               3.1854               4.6127    A(iso)=    3.4103
 Orientation: 
  X           0.9977472           -0.0255973           -0.0620100
  Y          -0.0618824            0.0057489           -0.9980669
  Z           0.0259043            0.9996558            0.0041519

Notes:  (1) The A matrix conforms to the "SAI" spin Hamiltonian convention.
        (2) Tensor is right-handed.

 -----------------------------------------------------------
 Nucleus  34H : A:ISTP=    1 I=  0.5 P=533.5514 MHz/au**3
                Q:ISTP=    2 I=  1.0 Q=  0.0029 barn     
 -----------------------------------------------------------
 Solving for nuclear perturbation:
Forming RHS of the CP-SCF equations         ... 
Calc. nucleus orbit integrals (SHARK)       ... done

------------------------------------------------------------------------------
                           ORCA CP-SCF CALCULATION
------------------------------------------------------------------------------

Input orbitals are from        ... EPRII.gbw
Input Perturbation             ... EPRII.pin.tmp
Wavefunction output            ... EPRII.pout.tmp
Perturbation mode              ... Imaginary perturbation
Solver                         ... POPLE
Max. number of iterations      ... 64
Convergence tolerance          ... 1.000e-03
Integral handling              ... Direct
DFT GridXC                     ... 1
COSX GridX                     ... 1
COSX IntAccX                   ... 3.067
COSX Algorithm                 ... Auto
Number of perturbations        ... 3
Number of operators            ... 2
Orbital ranges used for CP-SCF:
 Operator 0:  Orbitals   0... 58  to  59...418
 Operator 1:  Orbitals   0... 57  to  58...418
Variables per perturbation     ... 42178
DFT calculation                         ... on
XC functional terms                     ... off
Hybrid DFT                              ... on
   Exchange mixing (SCF)                ...  0.200
   Exchange mixing (CP-SCF)             ...  0.200
   GGA exch. scaling(SCF)               ...  0.720
   GGA exch. scaling (CP-SCF)           ...  0.720
   GGA corr. scaling (SCF)              ...  0.810
   GGA corr. scaling (CP-SCF)           ...  0.810

CP-SCF GRID
-----------

General Integration Accuracy     IntAcc      ... 3.467
Radial Grid Type                 RadialGrid  ... OptM3 with GC (2021)
Angular Grid (max. ang.)         AngularGrid ... 1 (Lebedev-50)
Angular grid pruning method      GridPruning ... 4 (adaptive)
Weight generation scheme         WeightScheme... Becke
Basis function cutoff            BFCut       ... 1.0000e-10
Integration weight cutoff        WCut        ... 1.0000e-14
Angular grids for H and He will be reduced by one unit
Partially contracted basis set               ... off
Rotationally invariant grid construction     ... off

Total number of grid points                  ...    22945
Total number of batches                      ...      374
Average number of points per batch           ...       61
Average number of grid points per atom       ...      620

CP-SCF GRIDX
------------

General Integration Accuracy     IntAcc      ... 3.067
Radial Grid Type                 RadialGrid  ... OptM3 with GC (2021)
Angular Grid (max. ang.)         AngularGrid ... 1 (Lebedev-50)
Angular grid pruning method      GridPruning ... 4 (adaptive)
Weight generation scheme         WeightScheme... Becke
Basis function cutoff            BFCut       ... 1.0000e-10
Integration weight cutoff        WCut        ... 1.0000e-14
Angular grids for H and He will be reduced by one unit
Partially contracted basis set               ... on
Rotationally invariant grid construction     ... off

Total number of grid points                  ...    10826
Total number of batches                      ...      191
Average number of points per batch           ...       56
Average number of grid points per atom       ...      293

Memory available               ... 905.2 MB
Memory needed per perturbation ...  10.3 MB
Perturbations treated per batch... 3
Number of batches              ... 1
     CP-SCF ITERATION   0:   3.6887e-02 (   1.1 sec   0/  3 done)
     CP-SCF ITERATION   1:   5.6301e-04 (   1.0 sec   3/  3 done)
                    *** THE CP-SCF HAS CONVERGED ***

Forming final perturbed densities           ... done
Transforming perturbed density to AO basis  ... done

 Raw HFC matrix (all values in MHz): 
 -----------------------------------
                -0.8409               0.2812              -0.0001
                 0.2811               0.7005               0.0001
                -0.0001               0.0002              -0.8672

 A(FC)          -0.3360              -0.3360              -0.3360
 A(SD)           1.0857              -0.5311              -0.5546
 A(ORB+DIA)      0.0005              -0.0001              -0.0001    A(PC) =   0.0001
 A(ORB)          0.0004               0.0000              -0.0000    A(PC) =   0.0001
 A(DIA)          0.0001              -0.0001              -0.0000    A(PC) =  -0.0000
             ----------           ----------           ----------
 A(Tot)          0.7502              -0.8672              -0.8906    A(iso)=   -0.3359
 Orientation: 
  X           0.1740495            0.0051303           -0.9847235
  Y           0.9847369           -0.0008253            0.1740476
  Z           0.0000802           -0.9999865           -0.0051957

Notes:  (1) The A matrix conforms to the "SAI" spin Hamiltonian convention.
        (2) Tensor is right-handed.

 -----------------------------------------------------------
 Nucleus  35H : A:ISTP=    1 I=  0.5 P=533.5514 MHz/au**3
                Q:ISTP=    2 I=  1.0 Q=  0.0029 barn     
 -----------------------------------------------------------
 Solving for nuclear perturbation:
Forming RHS of the CP-SCF equations         ... 
Calc. nucleus orbit integrals (SHARK)       ... done

------------------------------------------------------------------------------
                           ORCA CP-SCF CALCULATION
------------------------------------------------------------------------------

Input orbitals are from        ... EPRII.gbw
Input Perturbation             ... EPRII.pin.tmp
Wavefunction output            ... EPRII.pout.tmp
Perturbation mode              ... Imaginary perturbation
Solver                         ... POPLE
Max. number of iterations      ... 64
Convergence tolerance          ... 1.000e-03
Integral handling              ... Direct
DFT GridXC                     ... 1
COSX GridX                     ... 1
COSX IntAccX                   ... 3.067
COSX Algorithm                 ... Auto
Number of perturbations        ... 3
Number of operators            ... 2
Orbital ranges used for CP-SCF:
 Operator 0:  Orbitals   0... 58  to  59...418
 Operator 1:  Orbitals   0... 57  to  58...418
Variables per perturbation     ... 42178
DFT calculation                         ... on
XC functional terms                     ... off
Hybrid DFT                              ... on
   Exchange mixing (SCF)                ...  0.200
   Exchange mixing (CP-SCF)             ...  0.200
   GGA exch. scaling(SCF)               ...  0.720
   GGA exch. scaling (CP-SCF)           ...  0.720
   GGA corr. scaling (SCF)              ...  0.810
   GGA corr. scaling (CP-SCF)           ...  0.810

CP-SCF GRID
-----------

General Integration Accuracy     IntAcc      ... 3.467
Radial Grid Type                 RadialGrid  ... OptM3 with GC (2021)
Angular Grid (max. ang.)         AngularGrid ... 1 (Lebedev-50)
Angular grid pruning method      GridPruning ... 4 (adaptive)
Weight generation scheme         WeightScheme... Becke
Basis function cutoff            BFCut       ... 1.0000e-10
Integration weight cutoff        WCut        ... 1.0000e-14
Angular grids for H and He will be reduced by one unit
Partially contracted basis set               ... off
Rotationally invariant grid construction     ... off

Total number of grid points                  ...    22945
Total number of batches                      ...      374
Average number of points per batch           ...       61
Average number of grid points per atom       ...      620

CP-SCF GRIDX
------------

General Integration Accuracy     IntAcc      ... 3.067
Radial Grid Type                 RadialGrid  ... OptM3 with GC (2021)
Angular Grid (max. ang.)         AngularGrid ... 1 (Lebedev-50)
Angular grid pruning method      GridPruning ... 4 (adaptive)
Weight generation scheme         WeightScheme... Becke
Basis function cutoff            BFCut       ... 1.0000e-10
Integration weight cutoff        WCut        ... 1.0000e-14
Angular grids for H and He will be reduced by one unit
Partially contracted basis set               ... on
Rotationally invariant grid construction     ... off

Total number of grid points                  ...    10826
Total number of batches                      ...      191
Average number of points per batch           ...       56
Average number of grid points per atom       ...      293

Memory available               ... 904.7 MB
Memory needed per perturbation ...  10.3 MB
Perturbations treated per batch... 3
Number of batches              ... 1
     CP-SCF ITERATION   0:   3.7018e-02 (   1.0 sec   0/  3 done)
     CP-SCF ITERATION   1:   5.9142e-04 (   1.1 sec   3/  3 done)
                    *** THE CP-SCF HAS CONVERGED ***

Forming final perturbed densities           ... done
Transforming perturbed density to AO basis  ... done

 Raw HFC matrix (all values in MHz): 
 -----------------------------------
                -0.1313               0.0559               0.0000
                 0.0559               0.2396               0.0008
                 0.0000               0.0008              -0.1363

 A(FC)          -0.0094              -0.0094              -0.0094
 A(SD)          -0.1269              -0.1302               0.2571
 A(ORB+DIA)      0.0000               0.0000               0.0001    A(PC) =   0.0000
 A(ORB)          0.0000              -0.0000               0.0001    A(PC) =   0.0000
 A(DIA)          0.0000               0.0000               0.0000    A(PC) =   0.0000
             ----------           ----------           ----------
 A(Tot)         -0.1363              -0.1396               0.2478    A(iso)=   -0.0094
 Orientation: 
  X          -0.0295655            0.9888736            0.1457905
  Y           0.0023372           -0.1457854            0.9893135
  Z           0.9995601            0.0295903            0.0019990

Notes:  (1) The A matrix conforms to the "SAI" spin Hamiltonian convention.
        (2) Tensor is right-handed.

 -----------------------------------------------------------
 Nucleus  36H : A:ISTP=    1 I=  0.5 P=533.5514 MHz/au**3
                Q:ISTP=    2 I=  1.0 Q=  0.0029 barn     
 -----------------------------------------------------------
 Solving for nuclear perturbation:
Forming RHS of the CP-SCF equations         ... 
Calc. nucleus orbit integrals (SHARK)       ... done

------------------------------------------------------------------------------
                           ORCA CP-SCF CALCULATION
------------------------------------------------------------------------------

Input orbitals are from        ... EPRII.gbw
Input Perturbation             ... EPRII.pin.tmp
Wavefunction output            ... EPRII.pout.tmp
Perturbation mode              ... Imaginary perturbation
Solver                         ... POPLE
Max. number of iterations      ... 64
Convergence tolerance          ... 1.000e-03
Integral handling              ... Direct
DFT GridXC                     ... 1
COSX GridX                     ... 1
COSX IntAccX                   ... 3.067
COSX Algorithm                 ... Auto
Number of perturbations        ... 3
Number of operators            ... 2
Orbital ranges used for CP-SCF:
 Operator 0:  Orbitals   0... 58  to  59...418
 Operator 1:  Orbitals   0... 57  to  58...418
Variables per perturbation     ... 42178
DFT calculation                         ... on
XC functional terms                     ... off
Hybrid DFT                              ... on
   Exchange mixing (SCF)                ...  0.200
   Exchange mixing (CP-SCF)             ...  0.200
   GGA exch. scaling(SCF)               ...  0.720
   GGA exch. scaling (CP-SCF)           ...  0.720
   GGA corr. scaling (SCF)              ...  0.810
   GGA corr. scaling (CP-SCF)           ...  0.810

CP-SCF GRID
-----------

General Integration Accuracy     IntAcc      ... 3.467
Radial Grid Type                 RadialGrid  ... OptM3 with GC (2021)
Angular Grid (max. ang.)         AngularGrid ... 1 (Lebedev-50)
Angular grid pruning method      GridPruning ... 4 (adaptive)
Weight generation scheme         WeightScheme... Becke
Basis function cutoff            BFCut       ... 1.0000e-10
Integration weight cutoff        WCut        ... 1.0000e-14
Angular grids for H and He will be reduced by one unit
Partially contracted basis set               ... off
Rotationally invariant grid construction     ... off

Total number of grid points                  ...    22945
Total number of batches                      ...      374
Average number of points per batch           ...       61
Average number of grid points per atom       ...      620

CP-SCF GRIDX
------------

General Integration Accuracy     IntAcc      ... 3.067
Radial Grid Type                 RadialGrid  ... OptM3 with GC (2021)
Angular Grid (max. ang.)         AngularGrid ... 1 (Lebedev-50)
Angular grid pruning method      GridPruning ... 4 (adaptive)
Weight generation scheme         WeightScheme... Becke
Basis function cutoff            BFCut       ... 1.0000e-10
Integration weight cutoff        WCut        ... 1.0000e-14
Angular grids for H and He will be reduced by one unit
Partially contracted basis set               ... on
Rotationally invariant grid construction     ... off

Total number of grid points                  ...    10826
Total number of batches                      ...      191
Average number of points per batch           ...       56
Average number of grid points per atom       ...      293

Memory available               ... 904.3 MB
Memory needed per perturbation ...  10.3 MB
Perturbations treated per batch... 3
Number of batches              ... 1
     CP-SCF ITERATION   0:   4.5506e-02 (   1.2 sec   0/  3 done)
     CP-SCF ITERATION   1:   2.0389e-03 (   1.1 sec   0/  3 done)
     CP-SCF ITERATION   2:   1.1309e-04 (   1.2 sec   3/  3 done)
                    *** THE CP-SCF HAS CONVERGED ***

Forming final perturbed densities           ... done
Transforming perturbed density to AO basis  ... done

 Raw HFC matrix (all values in MHz): 
 -----------------------------------
                -7.7602              -1.6797               0.1943
                -1.6769             -20.2777              -0.0189
                 0.1943              -0.0190             -17.6872

 A(FC)         -15.2440             -15.2440             -15.2440
 A(SD)           7.7076              -2.4462              -5.2614
 A(ORB+DIA)      0.0010              -0.0007               0.0065    A(PC) =   0.0023
 A(ORB)         -0.0004               0.0002               0.0065    A(PC) =   0.0021
 A(DIA)          0.0014              -0.0009              -0.0000    A(PC) =   0.0002
             ----------           ----------           ----------
 A(Tot)         -7.5354             -17.6909             -20.4989    A(iso)=  -15.2417
 Orientation: 
  X          -0.9912368           -0.0187426            0.1307608
  Y           0.1306923            0.0048422            0.9914112
  Z          -0.0192148            0.9998126           -0.0023503

Notes:  (1) The A matrix conforms to the "SAI" spin Hamiltonian convention.
        (2) Tensor is right-handed.


--------------------------------------------------------------------------------
----------------------------------------------------------------------------
                           ORCA EULER ANGLE PROGRAM
----------------------------------------------------------------------------

Only g-tensor available        -->  using g-tensor as reference tensor

Reference tensor               ...  g

g-tensor ordering              ...  |g_min> --> |gx>
                                    |g_mid> --> |gy>
                                    |g_max> --> |gz>

A- and EFG-tensor ordering     ...  the axes |Ax>, |Qx>, |Ay>, etc. are assigned
                                    such that the Euler rotation is minimal. You
                                    can find the respective eigenvalues as Ax,
                                    EFGx, Ay, etc. in the tables below.
                                    The relation of |Ax>, |Ay>,  etc. to Amin, Amid, etc.
                                    (as printed in the ORCA EPR/NMR CALCULATION Output)
                                    is obtained in the detailed printout.

Euler rotation around          ...  z - y - z
   First rotation              -->  by alpha around z
   Second rotation             -->  by beta around y'
   Third rotation              -->  by gamma around z''
   Positive / Negative angle   -->  clockwise / counterclockwise rotation

Plot EFG-tensors                    (-)
Plot HFC-tensors                    (-)
Detailed Printout                   (-)

-------------------------------------------------------------------------
          Euler rotation of hyperfine tensor to g-tensor
-------------------------------------------------------------------------

-------------------------------------------------------------------
 Atom  |   Alpha    Beta    Gamma   |   Ax       Ay       Az 
       |          [degrees]         |           [MHz]         
-------------------------------------------------------------------
  7H      -91.8      2.8     91.9     -17.56    -7.94   -21.19
  8H      -90.2      2.9     90.2       4.29     5.23     9.69
 10H       89.9     44.9    -89.9     -51.05   -20.74   -77.26
 12H      -20.8     13.2      2.6      72.75    82.89    74.30
 13H     -159.1     12.8    177.2      72.44    82.58    74.00
 15H       14.9     27.0    -57.0      -3.55    -3.38     3.13
 16H      165.3     26.8   -122.6      -3.55    -3.38     3.12
 18H     -129.5     49.5    154.3      -0.00     2.46     0.12
 19H      -50.3     49.9     25.5      -0.01     2.46     0.11
 21H     -147.9     17.6   -172.6      25.47    26.12    29.41
 22H      -32.2     17.2     -6.0      24.91    25.53    28.83
 24H      -85.9     29.6     99.8      -1.02     1.05    -0.92
 25H      -97.3     29.8     84.6      -1.01     1.05    -0.91
 27H       75.4     30.8   -106.7      -0.13    -0.17     0.84
 28H      104.1     30.7    -72.4      -0.12    -0.16     0.84
 30H      -93.4     41.2     85.1      -0.12     0.40    -0.11
 31H      -88.2     41.2     97.8      -0.12     0.40    -0.11
 33H       89.6     43.4    -90.0       3.19     2.43     4.61
 34H       90.7     36.9    -89.8      -0.87    -0.89     0.75
 35H       89.1     38.6    -89.6      -0.14    -0.14     0.25
 36H       90.0     39.5    -90.0     -17.69    -7.54   -20.50
-------------------------------------------------------------------


Maximum memory used throughout the entire EPRNMR-calculation: 161.7 MB

Timings for individual modules:

Sum of individual times         ...     1710.612 sec (=  28.510 min)
GTO integral calculation        ...        4.247 sec (=   0.071 min)   0.2 %
Spin-Orbit-Coupling Matrices    ...        7.967 sec (=   0.133 min)   0.5 %
SCF iterations                  ...       69.292 sec (=   1.155 min)   4.1 %
EPR/NMR calculation             ...     1629.107 sec (=  27.152 min)  95.2 %
                             ****ORCA TERMINATED NORMALLY****
TOTAL RUN TIME: 0 days 0 hours 28 minutes 34 seconds 503 msec
