
                                 *****************
                                 * O   R   C   A *
                                 *****************

                                            #,                                       
                                            ###                                      
                                            ####                                     
                                            #####                                    
                                            ######                                   
                                           ########,                                 
                                     ,,################,,,,,                         
                               ,,#################################,,                 
                          ,,##########################################,,             
                       ,#########################################, ''#####,          
                    ,#############################################,,   '####,        
                  ,##################################################,,,,####,       
                ,###########''''           ''''###############################       
              ,#####''   ,,,,##########,,,,          '''####'''          '####       
            ,##' ,,,,###########################,,,                        '##       
           ' ,,###''''                  '''############,,,                           
         ,,##''                                '''############,,,,        ,,,,,,###''
      ,#''                                            '''#######################'''  
     '                                                          ''''####''''         
             ,#######,   #######,   ,#######,      ##                                
            ,#'     '#,  ##    ##  ,#'     '#,    #''#        ######   ,####,        
            ##       ##  ##   ,#'  ##            #'  '#       #        #'  '#        
            ##       ##  #######   ##           ,######,      #####,   #    #        
            '#,     ,#'  ##    ##  '#,     ,#' ,#      #,         ##   #,  ,#        
             '#######'   ##     ##  '#######'  #'      '#     #####' # '####'        



                  #######################################################
                  #                        -***-                        #
                  #          Department of theory and spectroscopy      #
                  #    Directorship and core code : Frank Neese         #
                  #        Max Planck Institute fuer Kohlenforschung    #
                  #                Kaiser Wilhelm Platz 1               #
                  #                 D-45470 Muelheim/Ruhr               #
                  #                      Germany                        #
                  #                                                     #
                  #                  All rights reserved                #
                  #                        -***-                        #
                  #######################################################


                         Program Version 5.0.4 -  RELEASE  -


 With contributions from (in alphabetic order):
   Daniel Aravena         : Magnetic Suceptibility
   Michael Atanasov       : Ab Initio Ligand Field Theory (pilot matlab implementation)
   Alexander A. Auer      : GIAO ZORA, VPT2 properties, NMR spectrum
   Ute Becker             : Parallelization
   Giovanni Bistoni       : ED, misc. LED, open-shell LED, HFLD
   Martin Brehm           : Molecular dynamics
   Dmytro Bykov           : SCF Hessian
   Vijay G. Chilkuri      : MRCI spin determinant printing, contributions to CSF-ICE
   Dipayan Datta          : RHF DLPNO-CCSD density
   Achintya Kumar Dutta   : EOM-CC, STEOM-CC
   Dmitry Ganyushin       : Spin-Orbit,Spin-Spin,Magnetic field MRCI
   Miquel Garcia          : C-PCM and meta-GGA Hessian, CC/C-PCM, Gaussian charge scheme
   Yang Guo               : DLPNO-NEVPT2, F12-NEVPT2, CIM, IAO-localization
   Andreas Hansen         : Spin unrestricted coupled pair/coupled cluster methods
   Benjamin Helmich-Paris : MC-RPA, TRAH-SCF, COSX integrals
   Lee Huntington         : MR-EOM, pCC
   Robert Izsak           : Overlap fitted RIJCOSX, COSX-SCS-MP3, EOM
   Marcus Kettner         : VPT2
   Christian Kollmar      : KDIIS, OOCD, Brueckner-CCSD(T), CCSD density, CASPT2, CASPT2-K
   Simone Kossmann        : Meta GGA functionals, TD-DFT gradient, OOMP2, MP2 Hessian
   Martin Krupicka        : Initial AUTO-CI
   Lucas Lang             : DCDCAS
   Marvin Lechner         : AUTO-CI (C++ implementation), FIC-MRCC
   Dagmar Lenk            : GEPOL surface, SMD
   Dimitrios Liakos       : Extrapolation schemes; Compound Job, initial MDCI parallelization
   Dimitrios Manganas     : Further ROCIS development; embedding schemes
   Dimitrios Pantazis     : SARC Basis sets
   Anastasios Papadopoulos: AUTO-CI, single reference methods and gradients
   Taras Petrenko         : DFT Hessian,TD-DFT gradient, ASA, ECA, R-Raman, ABS, FL, XAS/XES, NRVS
   Peter Pinski           : DLPNO-MP2, DLPNO-MP2 Gradient
   Christoph Reimann      : Effective Core Potentials
   Marius Retegan         : Local ZFS, SOC
   Christoph Riplinger    : Optimizer, TS searches, QM/MM, DLPNO-CCSD(T), (RO)-DLPNO pert. Triples
   Tobias Risthaus        : Range-separated hybrids, TD-DFT gradient, RPA, STAB
   Michael Roemelt        : Original ROCIS implementation
   Masaaki Saitow         : Open-shell DLPNO-CCSD energy and density
   Barbara Sandhoefer     : DKH picture change effects
   Avijit Sen             : IP-ROCIS
   Kantharuban Sivalingam : CASSCF convergence, NEVPT2, FIC-MRCI
   Bernardo de Souza      : ESD, SOC TD-DFT
   Georgi Stoychev        : AutoAux, RI-MP2 NMR, DLPNO-MP2 response
   Willem Van den Heuvel  : Paramagnetic NMR
   Boris Wezisla          : Elementary symmetry handling
   Frank Wennmohs         : Technical directorship


 We gratefully acknowledge several colleagues who have allowed us to
 interface, adapt or use parts of their codes:
   Stefan Grimme, W. Hujo, H. Kruse, P. Pracht,  : VdW corrections, initial TS optimization,
                  C. Bannwarth, S. Ehlert          DFT functionals, gCP, sTDA/sTD-DF
   Ed Valeev, F. Pavosevic, A. Kumar             : LibInt (2-el integral package), F12 methods
   Garnet Chan, S. Sharma, J. Yang, R. Olivares  : DMRG
   Ulf Ekstrom                                   : XCFun DFT Library
   Mihaly Kallay                                 : mrcc  (arbitrary order and MRCC methods)
   Jiri Pittner, Ondrej Demel                    : Mk-CCSD
   Frank Weinhold                                : gennbo (NPA and NBO analysis)
   Christopher J. Cramer and Donald G. Truhlar   : smd solvation model
   Lars Goerigk                                  : TD-DFT with DH, B97 family of functionals
   V. Asgeirsson, H. Jonsson                     : NEB implementation
   FAccTs GmbH                                   : IRC, NEB, NEB-TS, DLPNO-Multilevel, CI-OPT
                                                   MM, QMMM, 2- and 3-layer-ONIOM, Crystal-QMMM,
                                                   LR-CPCM, SF, NACMEs, symmetry and pop. for TD-DFT,
                                                   nearIR, NL-DFT gradient (VV10), updates on ESD,
                                                   ML-optimized integration grids
   S Lehtola, MJT Oliveira, MAL Marques          : LibXC Library
   Liviu Ungur et al                             : ANISO software


 Your calculation uses the libint2 library for the computation of 2-el integrals
 For citations please refer to: http://libint.valeyev.net

 Your ORCA version has been built with support for libXC version: 5.1.0
 For citations please refer to: https://tddft.org/programs/libxc/

 This ORCA versions uses:
   CBLAS   interface :  Fast vector & matrix operations
   LAPACKE interface :  Fast linear algebra routines
   SCALAPACK package :  Parallel linear algebra routines
   Shared memory     :  Shared parallel matrices
   BLAS/LAPACK       :  OpenBLAS 0.3.15  USE64BITINT DYNAMIC_ARCH NO_AFFINITY SkylakeX SINGLE_THREADED
        Core in use  :  SkylakeX
   Copyright (c) 2011-2014, The OpenBLAS Project




***************************************
The coordinates will be read from file: opt.xyz
***************************************


================================================================================

----- Orbital basis set information -----
Your calculation utilizes the basis: EPR-II
   V. Barone, in Recent Advances in Density Functional Methods, Part 1 (ed. D. P. Chong), World Scientific, Singapore, 1995, p. 287.

----- AuxJ basis set information -----
Your calculation utilizes the AutoAux generation procedure.
  G. L. Stoychev, A. A. Auer, F. Neese, J. Chem. Theory Comput. 13, 554 (2017)

----- AuxC basis set information -----
Your calculation utilizes the AutoAux generation procedure.
  G. L. Stoychev, A. A. Auer, F. Neese, J. Chem. Theory Comput. 13, 554 (2017)

----- AuxJK basis set information -----
Your calculation utilizes the AutoAux generation procedure.
  G. L. Stoychev, A. A. Auer, F. Neese, J. Chem. Theory Comput. 13, 554 (2017)

================================================================================
                                        WARNINGS
                       Please study these warnings very carefully!
================================================================================

WARNING: Old DensityContainer found on disk!
         Will remove this file - 
         If you want to keep old densities, please start your calculation with a different basename. 


WARNING: your system is open-shell and RHF/RKS was chosen
  ===> : WILL SWITCH to UHF/UKS


INFO   : the flag for use of the SHARK integral package has been found!

================================================================================
                                       INPUT FILE
================================================================================
NAME = EPRII.inp
|  1> ! B3LYP EPR-II AUTOAUX
|  2> %pal nprocs 16 end
|  3> *XYZFile 0 2 opt.xyz
|  4> %EPRNMR
|  5>         GTENSOR   TRUE
|  6>         NUCLEI    = ALL H {SHIFT, AISO, ADIP, AORB}
|  7> END
|  8> 
|  9>                          ****END OF INPUT****
================================================================================

                       ****************************
                       * Single Point Calculation *
                       ****************************

---------------------------------
CARTESIAN COORDINATES (ANGSTROEM)
---------------------------------
  C     -2.934073   -0.018766   -0.033821
  C      1.296326    0.061617    0.042355
  C      0.590316    1.299012    0.023646
  C     -0.830012    1.218758   -0.002083
  C     -1.498941   -0.010710   -0.008376
  C     -0.774370   -1.238300    0.010896
  C      0.629305   -1.156514    0.035978
  H     -1.426643    2.131592   -0.017243
  H      1.218068   -2.074806    0.050925
  C      1.286599    2.534948    0.031266
  H      2.380846    2.491530    0.052874
  C      0.640774    3.887237    0.012787
  H     -0.012358    3.982869   -0.879700
  H     -0.049610    3.989014    0.876092
  C      1.643397    5.048244    0.030137
  H      2.282865    4.958144    0.927400
  H      2.320748    4.952086   -0.838264
  C      0.972655    6.422996    0.011073
  H      0.314265    6.559972    0.886339
  H      0.351320    6.553366   -0.891860
  C     -1.525236   -2.553953    0.005144
  H     -2.211934   -2.565966    0.872443
  H     -2.196235   -2.567265   -0.874138
  C     -0.682959   -3.832515    0.013733
  H     -0.008492   -3.844031   -0.862466
  H     -0.029866   -3.846912    0.905937
  C     -1.540346   -5.103812    0.002012
  H     -2.217942   -5.093520    0.875899
  H     -2.195918   -5.092106   -0.888500
  C     -0.711165   -6.390340    0.011269
  H     -0.071581   -6.448752    0.909014
  H     -0.048195   -6.446330   -0.869486
  C     -4.149637   -0.020449   -0.056778
  H     -5.221734   -0.017269   -0.080213
  H      1.717399    7.235047    0.023638
  H     -1.353742   -7.285750    0.001613
  H      2.389514    0.078501    0.062394

----------------------------
CARTESIAN COORDINATES (A.U.)
----------------------------
  NO LB      ZA    FRAG     MASS         X           Y           Z
   0 C     6.0000    0    12.011   -5.544595   -0.035462   -0.063912
   1 C     6.0000    0    12.011    2.449702    0.116440    0.080040
   2 C     6.0000    0    12.011    1.115535    2.454777    0.044685
   3 C     6.0000    0    12.011   -1.568496    2.303118   -0.003936
   4 C     6.0000    0    12.011   -2.832588   -0.020239   -0.015828
   5 C     6.0000    0    12.011   -1.463347   -2.340047    0.020591
   6 C     6.0000    0    12.011    1.189213   -2.185496    0.067989
   7 H     1.0000    0     1.008   -2.695965    4.028126   -0.032585
   8 H     1.0000    0     1.008    2.301815   -3.920815    0.096233
   9 C     6.0000    0    12.011    2.431319    4.790357    0.059083
  10 H     1.0000    0     1.008    4.499146    4.708310    0.099917
  11 C     6.0000    0    12.011    1.210887    7.345813    0.024163
  12 H     1.0000    0     1.008   -0.023354    7.526532   -1.662393
  13 H     1.0000    0     1.008   -0.093748    7.538145    1.655575
  14 C     6.0000    0    12.011    3.105570    9.539799    0.056950
  15 H     1.0000    0     1.008    4.313990    9.369534    1.752532
  16 H     1.0000    0     1.008    4.385578    9.358086   -1.584090
  17 C     6.0000    0    12.011    1.838051   12.137704    0.020924
  18 H     1.0000    0     1.008    0.593874   12.396551    1.674939
  19 H     1.0000    0     1.008    0.663899   12.384067   -1.685372
  20 C     6.0000    0    12.011   -2.882279   -4.826272    0.009722
  21 H     1.0000    0     1.008   -4.179950   -4.848972    1.648678
  22 H     1.0000    0     1.008   -4.150282   -4.851428   -1.651882
  23 C     6.0000    0    12.011   -1.290606   -7.242403    0.025952
  24 H     1.0000    0     1.008   -0.016048   -7.264166   -1.629825
  25 H     1.0000    0     1.008   -0.056439   -7.269610    1.711973
  26 C     6.0000    0    12.011   -2.910832   -9.644806    0.003802
  27 H     1.0000    0     1.008   -4.191303   -9.625357    1.655210
  28 H     1.0000    0     1.008   -4.149684   -9.622686   -1.679022
  29 C     6.0000    0    12.011   -1.343908  -12.075992    0.021295
  30 H     1.0000    0     1.008   -0.135268  -12.186376    1.717787
  31 H     1.0000    0     1.008   -0.091074  -12.181798   -1.643091
  32 C     6.0000    0    12.011   -7.841677   -0.038643   -0.107294
  33 H     1.0000    0     1.008   -9.867647   -0.032633   -0.151580
  34 H     1.0000    0     1.008    3.245413   13.672258    0.044669
  35 H     1.0000    0     1.008   -2.558202  -13.768072    0.003049
  36 H     1.0000    0     1.008    4.515527    0.148345    0.117908

--------------------------------
INTERNAL COORDINATES (ANGSTROEM)
--------------------------------
 C      0   0   0     0.000000000000     0.00000000     0.00000000
 C      1   0   0     4.231848939847     0.00000000     0.00000000
 C      2   1   0     1.424762060632    61.37344351     0.00000000
 C      3   2   1     1.422825886963   116.48151840     0.00000000
 C      4   3   2     1.399677359441   121.78305841     0.00000000
 C      5   4   3     1.425605629839   120.89196210     0.00000000
 C      2   1   3     1.388813772745    60.20751446   180.00689524
 H      4   3   2     1.090626055393   119.94276010   179.99792087
 H      7   2   1     1.090928671512   118.62250577   180.00005822
 C      3   2   1     1.418592591911   120.88899395   179.95563514
 H     10   3   2     1.095321098643   117.12389638   359.94844694
 C     10   3   2     1.498705157018   125.06816424   179.98164747
 H     12  10   3     1.110072117945   109.94925009   302.56206846
 H     12  10   3     1.110083212556   109.94621140    57.16239201
 C     12  10   3     1.534109735725   113.64635141   179.85516404
 H     15  12  10     1.105494941857   108.99853322   302.34391275
 H     15  12  10     1.105518470360   109.00932731    57.64727482
 C     15  12  10     1.529771797325   113.16672195   180.00099529
 H     18  15  12     1.103780613789   111.29528058    59.88161723
 H     18  15  12     1.103784895252   111.29386069   300.17982201
 C      6   5   4     1.514852331370   119.72846641   179.92922622
 H     21   6   5     1.106302396969   108.30789276   303.18976293
 H     21   6   5     1.106143653315   108.30943594    55.70878025
 C     21   6   5     1.531085820367   116.90814177   179.45460909
 H     24  21   6     1.105786818929   109.86424906   301.96965616
 H     24  21   6     1.105787266606   109.89547614    58.46843302
 C     24  21   6     1.533442247174   112.62413367   180.20133835
 H     27  24  21     1.105857717831   109.19832109   302.38643287
 H     27  24  21     1.105858913116   109.19832160    57.68661707
 C     27  24  21     1.530614619735   113.19729136   180.03394763
 H     30  27  24     1.103823611824   111.30244500    59.90416299
 H     30  27  24     1.103809094676   111.29589034   300.19584285
 C      1   2   3     1.215781472594   178.98969451     2.58275710
 H     33   1   5     1.072357782986   179.69813644    19.04955831
 H     18  15  12     1.101920293683   111.45587995   180.02775680
 H     30  27  24     1.102160184204   111.52875570   180.05131216
 H      2   1   3     1.093501760516   179.79545470   175.07056308

---------------------------
INTERNAL COORDINATES (A.U.)
---------------------------
 C      0   0   0     0.000000000000     0.00000000     0.00000000
 C      1   0   0     7.997035536435     0.00000000     0.00000000
 C      2   1   0     2.692410100595    61.37344351     0.00000000
 C      3   2   1     2.688751262613   116.48151840     0.00000000
 C      4   3   2     2.645006885193   121.78305841     0.00000000
 C      5   4   3     2.694004215372   120.89196210     0.00000000
 C      2   1   3     2.624477681505    60.20751446   180.00689524
 H      4   3   2     2.060984559211   119.94276010   179.99792087
 H      7   2   1     2.061556420801   118.62250577   180.00005822
 C      3   2   1     2.680751494321   120.88899395   179.95563514
 H     10   3   2     2.069856905141   117.12389638   359.94844694
 C     10   3   2     2.832142302260   125.06816424   179.98164747
 H     12  10   3     2.097732291818   109.94925009   302.56206846
 H     12  10   3     2.097753257595   109.94621140    57.16239201
 C     12  10   3     2.899047259903   113.64635141   179.85516404
 H     15  12  10     2.089082682545   108.99853322   302.34391275
 H     15  12  10     2.089127144972   109.00932731    57.64727482
 C     15  12  10     2.890849744340   113.16672195   180.00099529
 H     18  15  12     2.085843071993   111.29528058    59.88161723
 H     18  15  12     2.085851162785   111.29386069   300.17982201
 C      6   5   4     2.862656039621   119.72846641   179.92922622
 H     21   6   5     2.090608551572   108.30789276   303.18976293
 H     21   6   5     2.090308569541   108.30943594    55.70878025
 C     21   6   5     2.893332888024   116.90814177   179.45460909
 H     24  21   6     2.089634250275   109.86424906   301.96965616
 H     24  21   6     2.089635096263   109.89547614    58.46843302
 C     24  21   6     2.897785889343   112.62413367   180.20133835
 H     27  24  21     2.089768229784   109.19832109   302.38643287
 H     27  24  21     2.089770488544   109.19832160    57.68661707
 C     27  24  21     2.892442447875   113.19729136   180.03394763
 H     30  27  24     2.085924326504   111.30244500    59.90416299
 H     30  27  24     2.085896893069   111.29589034   300.19584285
 C      1   2   3     2.297494021899   178.98969451     2.58275710
 H     33   1   5     2.026462527422   179.69813644    19.04955831
 H     18  15  12     2.082327576472   111.45587995   180.02775680
 H     30  27  24     2.082780903857   111.52875570   180.05131216
 H      2   1   3     2.066418854336   179.79545470   175.07056308

---------------------
BASIS SET INFORMATION
---------------------
There are 2 groups of distinct atoms

 Group   1 Type C   : 10s5p1d contracted to 6s2p1d pattern {511111/41/1}
 Group   2 Type H   : 6s1p contracted to 4s1p pattern {3111/1}

Atom   0C    basis set group =>   1
Atom   1C    basis set group =>   1
Atom   2C    basis set group =>   1
Atom   3C    basis set group =>   1
Atom   4C    basis set group =>   1
Atom   5C    basis set group =>   1
Atom   6C    basis set group =>   1
Atom   7H    basis set group =>   2
Atom   8H    basis set group =>   2
Atom   9C    basis set group =>   1
Atom  10H    basis set group =>   2
Atom  11C    basis set group =>   1
Atom  12H    basis set group =>   2
Atom  13H    basis set group =>   2
Atom  14C    basis set group =>   1
Atom  15H    basis set group =>   2
Atom  16H    basis set group =>   2
Atom  17C    basis set group =>   1
Atom  18H    basis set group =>   2
Atom  19H    basis set group =>   2
Atom  20C    basis set group =>   1
Atom  21H    basis set group =>   2
Atom  22H    basis set group =>   2
Atom  23C    basis set group =>   1
Atom  24H    basis set group =>   2
Atom  25H    basis set group =>   2
Atom  26C    basis set group =>   1
Atom  27H    basis set group =>   2
Atom  28H    basis set group =>   2
Atom  29C    basis set group =>   1
Atom  30H    basis set group =>   2
Atom  31H    basis set group =>   2
Atom  32C    basis set group =>   1
Atom  33H    basis set group =>   2
Atom  34H    basis set group =>   2
Atom  35H    basis set group =>   2
Atom  36H    basis set group =>   2
---------------------------------
AUXILIARY/J BASIS SET INFORMATION
---------------------------------
There are 2 groups of distinct atoms

 Group   1 Type C   : 17s13p12d2f contracted to 17s13p12d2f pattern {11111111111111111/1111111111111/111111111111/11}
 Group   2 Type H   : 15s6p1d contracted to 15s6p1d pattern {111111111111111/111111/1}

Atom   0C    basis set group =>   1
Atom   1C    basis set group =>   1
Atom   2C    basis set group =>   1
Atom   3C    basis set group =>   1
Atom   4C    basis set group =>   1
Atom   5C    basis set group =>   1
Atom   6C    basis set group =>   1
Atom   7H    basis set group =>   2
Atom   8H    basis set group =>   2
Atom   9C    basis set group =>   1
Atom  10H    basis set group =>   2
Atom  11C    basis set group =>   1
Atom  12H    basis set group =>   2
Atom  13H    basis set group =>   2
Atom  14C    basis set group =>   1
Atom  15H    basis set group =>   2
Atom  16H    basis set group =>   2
Atom  17C    basis set group =>   1
Atom  18H    basis set group =>   2
Atom  19H    basis set group =>   2
Atom  20C    basis set group =>   1
Atom  21H    basis set group =>   2
Atom  22H    basis set group =>   2
Atom  23C    basis set group =>   1
Atom  24H    basis set group =>   2
Atom  25H    basis set group =>   2
Atom  26C    basis set group =>   1
Atom  27H    basis set group =>   2
Atom  28H    basis set group =>   2
Atom  29C    basis set group =>   1
Atom  30H    basis set group =>   2
Atom  31H    basis set group =>   2
Atom  32C    basis set group =>   1
Atom  33H    basis set group =>   2
Atom  34H    basis set group =>   2
Atom  35H    basis set group =>   2
Atom  36H    basis set group =>   2
---------------------------------
AUXILIARY/C BASIS SET INFORMATION
---------------------------------
There are 2 groups of distinct atoms

 Group   1 Type C   : 17s13p12d2f contracted to 17s13p12d2f pattern {11111111111111111/1111111111111/111111111111/11}
 Group   2 Type H   : 15s6p1d contracted to 15s6p1d pattern {111111111111111/111111/1}

Atom   0C    basis set group =>   1
Atom   1C    basis set group =>   1
Atom   2C    basis set group =>   1
Atom   3C    basis set group =>   1
Atom   4C    basis set group =>   1
Atom   5C    basis set group =>   1
Atom   6C    basis set group =>   1
Atom   7H    basis set group =>   2
Atom   8H    basis set group =>   2
Atom   9C    basis set group =>   1
Atom  10H    basis set group =>   2
Atom  11C    basis set group =>   1
Atom  12H    basis set group =>   2
Atom  13H    basis set group =>   2
Atom  14C    basis set group =>   1
Atom  15H    basis set group =>   2
Atom  16H    basis set group =>   2
Atom  17C    basis set group =>   1
Atom  18H    basis set group =>   2
Atom  19H    basis set group =>   2
Atom  20C    basis set group =>   1
Atom  21H    basis set group =>   2
Atom  22H    basis set group =>   2
Atom  23C    basis set group =>   1
Atom  24H    basis set group =>   2
Atom  25H    basis set group =>   2
Atom  26C    basis set group =>   1
Atom  27H    basis set group =>   2
Atom  28H    basis set group =>   2
Atom  29C    basis set group =>   1
Atom  30H    basis set group =>   2
Atom  31H    basis set group =>   2
Atom  32C    basis set group =>   1
Atom  33H    basis set group =>   2
Atom  34H    basis set group =>   2
Atom  35H    basis set group =>   2
Atom  36H    basis set group =>   2
----------------------------------
AUXILIARY/JK BASIS SET INFORMATION
----------------------------------
There are 2 groups of distinct atoms

 Group   1 Type C   : 17s13p12d2f contracted to 17s13p12d2f pattern {11111111111111111/1111111111111/111111111111/11}
 Group   2 Type H   : 15s6p1d contracted to 15s6p1d pattern {111111111111111/111111/1}

Atom   0C    basis set group =>   1
Atom   1C    basis set group =>   1
Atom   2C    basis set group =>   1
Atom   3C    basis set group =>   1
Atom   4C    basis set group =>   1
Atom   5C    basis set group =>   1
Atom   6C    basis set group =>   1
Atom   7H    basis set group =>   2
Atom   8H    basis set group =>   2
Atom   9C    basis set group =>   1
Atom  10H    basis set group =>   2
Atom  11C    basis set group =>   1
Atom  12H    basis set group =>   2
Atom  13H    basis set group =>   2
Atom  14C    basis set group =>   1
Atom  15H    basis set group =>   2
Atom  16H    basis set group =>   2
Atom  17C    basis set group =>   1
Atom  18H    basis set group =>   2
Atom  19H    basis set group =>   2
Atom  20C    basis set group =>   1
Atom  21H    basis set group =>   2
Atom  22H    basis set group =>   2
Atom  23C    basis set group =>   1
Atom  24H    basis set group =>   2
Atom  25H    basis set group =>   2
Atom  26C    basis set group =>   1
Atom  27H    basis set group =>   2
Atom  28H    basis set group =>   2
Atom  29C    basis set group =>   1
Atom  30H    basis set group =>   2
Atom  31H    basis set group =>   2
Atom  32C    basis set group =>   1
Atom  33H    basis set group =>   2
Atom  34H    basis set group =>   2
Atom  35H    basis set group =>   2
Atom  36H    basis set group =>   2

Checking for AutoStart:
The File: EPRII.gbw exists
Trying to determine its content:
     ... Fine, the file contains calculation information
     ... Fine, the calculation information was read
     ... Fine, the file contains a basis set
     ... Fine, the basis set was read
     ... Fine, the file contains a geometry
     ... Fine, the geometry was read
     ... Fine, the file contains a set of orbitals
     ... Fine, the orbitals can be read
     => possible old guess file was deleted
     => GBW file was renamed to GES file
     => GES file is set as startup file
     => Guess is set to MORead
     ... now leaving AutoStart



           ************************************************************
           *        Program running with 16 parallel MPI-processes    *
           *              working on a common directory               *
           ************************************************************
------------------------------------------------------------------------------
                           ORCA GTO INTEGRAL CALCULATION
                           -- RI-GTO INTEGRALS CHOSEN --
------------------------------------------------------------------------------
------------------------------------------------------------------------------
                   ___                                                        
                  /   \      - P O W E R E D   B Y -                         
                 /     \                                                     
                 |  |  |   _    _      __       _____    __    __             
                 |  |  |  | |  | |    /  \     |  _  \  |  |  /  |          
                  \  \/   | |  | |   /    \    | | | |  |  | /  /          
                 / \  \   | |__| |  /  /\  \   | |_| |  |  |/  /          
                |  |  |   |  __  | /  /__\  \  |    /   |      \           
                |  |  |   | |  | | |   __   |  |    \   |  |\   \          
                \     /   | |  | | |  |  |  |  | |\  \  |  | \   \       
                 \___/    |_|  |_| |__|  |__|  |_| \__\ |__|  \__/        
                                                                              
                      - O R C A' S   B I G   F R I E N D -                    
                                      &                                       
                       - I N T E G R A L  F E E D E R -                       
                                                                              
 v1 FN, 2020, v2 2021                                                         
------------------------------------------------------------------------------


Reading SHARK input file EPRII.SHARKINP.tmp ... ok
----------------------
SHARK INTEGRAL PACKAGE
----------------------

Number of atoms                             ...     37
Number of basis functions                   ...    419
Number of shells                            ...    249
Maximum angular momentum                    ...      2
Integral batch strategy                     ... SHARK/LIBINT Hybrid
RI-J (if used) integral strategy            ... SPLIT-RIJ (Revised 2003 algorithm where possible)
Printlevel                                  ...      1
Contraction scheme used                     ... SEGMENTED contraction
Coulomb Range Separation                    ... NOT USED
Exchange Range Separation                   ... NOT USED
Finite Nucleus Model                        ... NOT USED
Auxiliary Coulomb fitting basis             ... AVAILABLE
   # of basis functions in Aux-J            ...   2878
   # of shells in Aux-J                     ...   1166
   Maximum angular momentum in Aux-J        ...      3
Auxiliary J/K fitting basis                 ... AVAILABLE
   # of basis functions in Aux-JK           ...   2878
   # of shells in Aux-JK                    ...   1166
   Maximum angular momentum in Aux-JK       ...      3
Auxiliary Correlation fitting basis         ... AVAILABLE
   # of basis functions in Aux-C            ...   2878
   # of shells in Aux-C                     ...   1166
   Maximum angular momentum in Aux-C        ...      3
Auxiliary 'external' fitting basis          ... NOT available
Integral threshold                          ...     1.000000e-10
Primitive cut-off                           ...     1.000000e-11
Primitive pair pre-selection threshold      ...     1.000000e-11

Calculating pre-screening integrals         ... done (  0.0 sec) Dimension = 249
Organizing shell pair data                  ... done (  0.1 sec)
Shell pair information
Total number of shell pairs                 ...     31125
Shell pairs after pre-screening             ...     17922
Total number of primitive shell pairs       ...     81725
Primitive shell pairs kept                  ...     34240
          la=0 lb=0:   8321 shell pairs
          la=1 lb=0:   6172 shell pairs
          la=1 lb=1:   1063 shell pairs
          la=2 lb=0:   1669 shell pairs
          la=2 lb=1:    600 shell pairs
          la=2 lb=2:     97 shell pairs

Calculating one electron integrals          ... done (  0.0 sec)
Calculating RI/J V-Matrix + Cholesky decomp.... done (  0.6 sec)
Calculating RI/JK V-Matrix + Cholesky decomp... done (  0.5 sec)
Calculating RI/C V-Matrix + Cholesky decomp.... done (  0.5 sec)
Calculating Nuclear repulsion               ... done (  0.0 sec) ENN=    969.243257158093 Eh

SHARK setup successfully completed in   2.4 seconds

Maximum memory used throughout the entire GTOINT-calculation: 34.5 MB


           ************************************************************
           *        Program running with 16 parallel MPI-processes    *
           *              working on a common directory               *
           ************************************************************
-------------------------------------------------------------------------------
                                 ORCA SCF
-------------------------------------------------------------------------------

------------
SCF SETTINGS
------------
Hamiltonian:
 Density Functional     Method          .... DFT(GTOs)
 Exchange Functional    Exchange        .... B88
   X-Alpha parameter    XAlpha          ....  0.666667
   Becke's b parameter  XBeta           ....  0.004200
 Correlation Functional Correlation     .... LYP
 LDA part of GGA corr.  LDAOpt          .... VWN-5
 Gradients option       PostSCFGGA      .... off
 Hybrid DFT is turned on
   Fraction HF Exchange ScalHFX         ....  0.200000
   Scaling of DF-GGA-X  ScalDFX         ....  0.720000
   Scaling of DF-GGA-C  ScalDFC         ....  0.810000
   Scaling of DF-LDA-C  ScalLDAC        ....  1.000000
   Perturbative correction              ....  0.000000
   Density functional embedding theory  .... OFF
   NL short-range parameter             ....  4.800000
 RI-approximation to the Coulomb term is turned on
   Number of AuxJ basis functions       .... 2878
   RIJ-COSX (HFX calculated with COS-X)).... on


General Settings:
 Integral files         IntName         .... EPRII
 Hartree-Fock type      HFTyp           .... UHF
 Total Charge           Charge          ....    0
 Multiplicity           Mult            ....    2
 Number of Electrons    NEL             ....  117
 Basis Dimension        Dim             ....  419
 Nuclear Repulsion      ENuc            ....    969.2432571581 Eh

Convergence Acceleration:
 DIIS                   CNVDIIS         .... on
   Start iteration      DIISMaxIt       ....    12
   Startup error        DIISStart       ....  0.200000
   # of expansion vecs  DIISMaxEq       ....     5
   Bias factor          DIISBfac        ....   1.050
   Max. coefficient     DIISMaxC        ....  10.000
 Trust-Rad. Augm. Hess. CNVTRAH         .... auto
   Auto Start mean grad. ratio tolernc. ....  1.125000
   Auto Start start iteration           ....     1
   Auto Start num. interpolation iter.  ....    10
   Max. Number of Micro iterations      ....    16
   Max. Number of Macro iterations      .... Maxiter - #DIIS iter
   Number of Davidson start vectors     ....     2
   Converg. threshold I  (grad. norm)   ....   5.000e-05
   Converg. threshold II (energy diff.) ....   1.000e-06
   Grad. Scal. Fac. for Micro threshold ....   0.100
   Minimum threshold for Micro iter.    ....   0.010
   NR start threshold (gradient norm)   ....   0.001
   Initial trust radius                 ....   0.400
   Minimum AH scaling param. (alpha)    ....   1.000
   Maximum AH scaling param. (alpha)    .... 1000.000
   Orbital update algorithm             .... Taylor
   White noise on init. David. guess    .... on
   Maximum white noise                  ....   0.010
   Quad. conv. algorithm                .... NR
 SOSCF                  CNVSOSCF        .... off
 Level Shifting         CNVShift        .... on
   Level shift para.    LevelShift      ....    0.2500
   Turn off err/grad.   ShiftErr        ....    0.0010
 Zerner damping         CNVZerner       .... off
 Static damping         CNVDamp         .... on
   Fraction old density DampFac         ....    0.7000
   Max. Damping (<1)    DampMax         ....    0.9800
   Min. Damping (>=0)   DampMin         ....    0.0000
   Turn off err/grad.   DampErr         ....    0.1000
 Fernandez-Rico         CNVRico         .... off

SCF Procedure:
 Maximum # iterations   MaxIter         ....   125
 SCF integral mode      SCFMode         .... Direct
   Integral package                     .... SHARK and LIBINT hybrid scheme
 Reset frequency        DirectResetFreq ....    20
 Integral Threshold     Thresh          ....  1.000e-10 Eh
 Primitive CutOff       TCut            ....  1.000e-11 Eh

Convergence Tolerance:
 Convergence Check Mode ConvCheckMode   .... Total+1el-Energy
 Convergence forced     ConvForced      .... 0
 Energy Change          TolE            ....  1.000e-06 Eh
 1-El. energy change                    ....  1.000e-03 Eh
 DIIS Error             TolErr          ....  1.000e-06


Diagonalization of the overlap matrix:
Smallest eigenvalue                        ... 1.622e-04
Time for diagonalization                   ...    0.032 sec
Threshold for overlap eigenvalues          ... 1.000e-08
Number of eigenvalues below threshold      ... 0
Time for construction of square roots      ...    0.040 sec
Total time needed                          ...    0.073 sec

---------------------
INITIAL GUESS: MOREAD
---------------------
Guess MOs are being read from file: EPRII.ges
Input Geometry matches current geometry (good)
Input basis set matches current basis set (good)
MOs were renormalized
MOs were reorthogonalized (Cholesky)
                      ------------------
                      INITIAL GUESS DONE (   0.1 sec)
                      ------------------
-------------------
DFT GRID GENERATION
-------------------

General Integration Accuracy     IntAcc      ... 4.388
Radial Grid Type                 RadialGrid  ... OptM3 with GC (2021)
Angular Grid (max. ang.)         AngularGrid ... 4 (Lebedev-302)
Angular grid pruning method      GridPruning ... 4 (adaptive)
Weight generation scheme         WeightScheme... Becke
Basis function cutoff            BFCut       ... 1.0000e-10
Integration weight cutoff        WCut        ... 1.0000e-14
Angular grids for H and He will be reduced by one unit
Partially contracted basis set               ... off
Rotationally invariant grid construction     ... off

Total number of grid points                  ...   162768
Total number of batches                      ...     2562
Average number of points per batch           ...       63
Average number of grid points per atom       ...     4399
Time for grid setup =    0.844 sec

--------------------
COSX GRID GENERATION
--------------------

GRIDX 1
-------
General Integration Accuracy     IntAcc      ... 3.816
Radial Grid Type                 RadialGrid  ... OptM3 with GC (2021)
Angular Grid (max. ang.)         AngularGrid ... 1 (Lebedev-50)
Angular grid pruning method      GridPruning ... 4 (adaptive)
Weight generation scheme         WeightScheme... Becke
Basis function cutoff            BFCut       ... 1.0000e-10
Integration weight cutoff        WCut        ... 1.0000e-14
Angular grids for H and He will be reduced by one unit
Partially contracted basis set               ... on
Rotationally invariant grid construction     ... off

Total number of grid points                  ...    20778
Total number of batches                      ...      346
Average number of points per batch           ...       60
Average number of grid points per atom       ...      562
UseSFitting                                  ... on

GRIDX 2
-------
General Integration Accuracy     IntAcc      ... 4.020
Radial Grid Type                 RadialGrid  ... OptM3 with GC (2021)
Angular Grid (max. ang.)         AngularGrid ... 2 (Lebedev-110)
Angular grid pruning method      GridPruning ... 4 (adaptive)
Weight generation scheme         WeightScheme... Becke
Basis function cutoff            BFCut       ... 1.0000e-10
Integration weight cutoff        WCut        ... 1.0000e-14
Angular grids for H and He will be reduced by one unit
Partially contracted basis set               ... on
Rotationally invariant grid construction     ... off

Total number of grid points                  ...    43896
Total number of batches                      ...      706
Average number of points per batch           ...       62
Average number of grid points per atom       ...     1186
UseSFitting                                  ... on

GRIDX 3
-------
General Integration Accuracy     IntAcc      ... 4.338
Radial Grid Type                 RadialGrid  ... OptM3 with GC (2021)
Angular Grid (max. ang.)         AngularGrid ... 3 (Lebedev-194)
Angular grid pruning method      GridPruning ... 4 (adaptive)
Weight generation scheme         WeightScheme... Becke
Basis function cutoff            BFCut       ... 1.0000e-10
Integration weight cutoff        WCut        ... 1.0000e-14
Angular grids for H and He will be reduced by one unit
Partially contracted basis set               ... on
Rotationally invariant grid construction     ... off

Total number of grid points                  ...    95920
Total number of batches                      ...     1518
Average number of points per batch           ...       63
Average number of grid points per atom       ...     2592
UseSFitting                                  ... on

Time for X-Grid setup             =    1.546 sec

--------------
SCF ITERATIONS
--------------
ITER       Energy         Delta-E        Max-DP      RMS-DP      [F,P]     Damp
               ***  Starting incremental Fock matrix formation  ***
  0   -621.9212560015   0.000000000000 0.00003149  0.00000030  0.0000612 0.7000
                 **** Energy Check signals convergence ****

               *****************************************************
               *                     SUCCESS                       *
               *           SCF CONVERGED AFTER   1 CYCLES          *
               *****************************************************

Old exchange energy                            =    -18.048043094 Eh
New exchange energy                            =    -18.048012046 Eh
Exchange energy change after final integration =      0.000031048 Eh
Total energy after final integration           =   -621.921224820 Eh
Final COS-X integration done in                =     4.603 sec

----------------
TOTAL SCF ENERGY
----------------

Total Energy       :         -621.92122482 Eh          -16923.33689 eV

Components:
Nuclear Repulsion  :          969.24325716 Eh           26374.44988 eV
Electronic Energy  :        -1591.16448198 Eh          -43297.78677 eV
One Electron Energy:        -2760.72247862 Eh          -75123.07783 eV
Two Electron Energy:         1169.55799665 Eh           31825.29106 eV
Max COSX asymmetry :            0.00000259 Eh               0.00007 eV

Virial components:
Potential Energy   :        -1238.85638710 Eh          -33710.99613 eV
Kinetic Energy     :          616.93516228 Eh           16787.65923 eV
Virial Ratio       :            2.00808199


DFT components:
N(Alpha)           :       59.000075584099 electrons
N(Beta)            :       58.000065653141 electrons
N(Total)           :      117.000141237240 electrons
E(X)               :      -71.558192458571 Eh       
E(C)               :       -4.509112304592 Eh       
E(XC)              :      -76.067304763163 Eh       
DFET-embed. en.    :        0.000000000000 Eh       

---------------
SCF CONVERGENCE
---------------

  Last Energy change         ...    1.3338e-07  Tolerance :   1.0000e-06
  Last MAX-Density change    ...    1.2235e-05  Tolerance :   1.0000e-05
  Last RMS-Density change    ...    1.0402e-07  Tolerance :   1.0000e-06
  Last DIIS Error            ...    3.8046e-05  Tolerance :   1.0000e-06

             **** THE GBW FILE WAS UPDATED (EPRII.gbw) ****
             **** DENSITY EPRII.scfp WAS UPDATED ****
             **** ENERGY FILE WAS UPDATED (EPRII.en.tmp) ****
----------------------
UHF SPIN CONTAMINATION
----------------------

Warning: in a DFT calculation there is little theoretical justification to 
         calculate <S**2> as in Hartree-Fock theory. We will do it anyways
         but you should keep in mind that the values have only limited relevance

Expectation value of <S**2>     :     0.781372
Ideal value S*(S+1) for S=0.5   :     0.750000
Deviation                       :     0.031372

             **** THE GBW FILE WAS UPDATED (EPRII.gbw) ****
             **** DENSITY EPRII.scfp WAS UPDATED ****
----------------
ORBITAL ENERGIES
----------------
                 SPIN UP ORBITALS
  NO   OCC          E(Eh)            E(eV) 
   0   1.0000     -10.217650      -278.0364 
   1   1.0000     -10.208457      -277.7862 
   2   1.0000     -10.202518      -277.6246 
   3   1.0000     -10.202251      -277.6174 
   4   1.0000     -10.197906      -277.4991 
   5   1.0000     -10.197020      -277.4750 
   6   1.0000     -10.196573      -277.4629 
   7   1.0000     -10.193393      -277.3763 
   8   1.0000     -10.191459      -277.3237 
   9   1.0000     -10.188632      -277.2468 
  10   1.0000     -10.185250      -277.1547 
  11   1.0000     -10.184997      -277.1478 
  12   1.0000     -10.181341      -277.0484 
  13   1.0000     -10.181113      -277.0422 
  14   1.0000     -10.174815      -276.8708 
  15   1.0000     -10.172596      -276.8104 
  16   1.0000      -0.865237       -23.5443 
  17   1.0000      -0.813131       -22.1264 
  18   1.0000      -0.792914       -21.5763 
  19   1.0000      -0.779935       -21.2231 
  20   1.0000      -0.762666       -20.7532 
  21   1.0000      -0.729092       -19.8396 
  22   1.0000      -0.724737       -19.7211 
  23   1.0000      -0.694891       -18.9089 
  24   1.0000      -0.652470       -17.7546 
  25   1.0000      -0.622825       -16.9479 
  26   1.0000      -0.611902       -16.6507 
  27   1.0000      -0.587875       -15.9969 
  28   1.0000      -0.577962       -15.7272 
  29   1.0000      -0.558943       -15.2096 
  30   1.0000      -0.527190       -14.3456 
  31   1.0000      -0.495204       -13.4752 
  32   1.0000      -0.472271       -12.8511 
  33   1.0000      -0.468694       -12.7538 
  34   1.0000      -0.462389       -12.5822 
  35   1.0000      -0.461594       -12.5606 
  36   1.0000      -0.427850       -11.6424 
  37   1.0000      -0.425999       -11.5920 
  38   1.0000      -0.422103       -11.4860 
  39   1.0000      -0.419202       -11.4071 
  40   1.0000      -0.409699       -11.1485 
  41   1.0000      -0.395271       -10.7559 
  42   1.0000      -0.386949       -10.5294 
  43   1.0000      -0.375155       -10.2085 
  44   1.0000      -0.374224       -10.1832 
  45   1.0000      -0.362096        -9.8531 
  46   1.0000      -0.347851        -9.4655 
  47   1.0000      -0.347403        -9.4533 
  48   1.0000      -0.337338        -9.1794 
  49   1.0000      -0.330668        -8.9979 
  50   1.0000      -0.330292        -8.9877 
  51   1.0000      -0.324199        -8.8219 
  52   1.0000      -0.321744        -8.7551 
  53   1.0000      -0.320303        -8.7159 
  54   1.0000      -0.308672        -8.3994 
  55   1.0000      -0.273783        -7.4500 
  56   1.0000      -0.267815        -7.2876 
  57   1.0000      -0.237436        -6.4609 
  58   1.0000      -0.171299        -4.6613 
  59   0.0000      -0.034363        -0.9351 
  60   0.0000       0.012946         0.3523 
  61   0.0000       0.020735         0.5642 
  62   0.0000       0.022711         0.6180 
  63   0.0000       0.026963         0.7337 
  64   0.0000       0.031235         0.8500 
  65   0.0000       0.037124         1.0102 
  66   0.0000       0.042554         1.1580 
  67   0.0000       0.047652         1.2967 
  68   0.0000       0.050448         1.3727 
  69   0.0000       0.060826         1.6551 
  70   0.0000       0.075951         2.0667 
  71   0.0000       0.086086         2.3425 
  72   0.0000       0.086547         2.3551 
  73   0.0000       0.095806         2.6070 
  74   0.0000       0.103854         2.8260 
  75   0.0000       0.120925         3.2905 
  76   0.0000       0.134874         3.6701 
  77   0.0000       0.153016         4.1638 
  78   0.0000       0.153380         4.1737 
  79   0.0000       0.161652         4.3988 
  80   0.0000       0.170587         4.6419 
  81   0.0000       0.177564         4.8318 
  82   0.0000       0.180621         4.9150 
  83   0.0000       0.186592         5.0774 
  84   0.0000       0.191855         5.2206 
  85   0.0000       0.199270         5.4224 
  86   0.0000       0.199375         5.4253 
  87   0.0000       0.199818         5.4373 
  88   0.0000       0.201525         5.4838 
  89   0.0000       0.204321         5.5599 
  90   0.0000       0.208788         5.6814 
  91   0.0000       0.216904         5.9023 
  92   0.0000       0.223487         6.0814 
  93   0.0000       0.234049         6.3688 
  94   0.0000       0.241746         6.5782 
  95   0.0000       0.244452         6.6519 
  96   0.0000       0.248413         6.7597 
  97   0.0000       0.254550         6.9267 
  98   0.0000       0.257912         7.0181 
  99   0.0000       0.264404         7.1948 
 100   0.0000       0.266987         7.2651 
 101   0.0000       0.274451         7.4682 
 102   0.0000       0.282228         7.6798 
 103   0.0000       0.282590         7.6897 
 104   0.0000       0.287580         7.8255 
 105   0.0000       0.288328         7.8458 
 106   0.0000       0.298465         8.1216 
 107   0.0000       0.301438         8.2026 
 108   0.0000       0.302279         8.2254 
 109   0.0000       0.307851         8.3770 
 110   0.0000       0.309661         8.4263 
 111   0.0000       0.317014         8.6264 
 112   0.0000       0.317815         8.6482 
 113   0.0000       0.330181         8.9847 
 114   0.0000       0.333697         9.0803 
 115   0.0000       0.337413         9.1815 
 116   0.0000       0.343332         9.3425 
 117   0.0000       0.343811         9.3556 
 118   0.0000       0.355354         9.6697 
 119   0.0000       0.358249         9.7484 
 120   0.0000       0.360888         9.8203 
 121   0.0000       0.365872         9.9559 
 122   0.0000       0.371492        10.1088 
 123   0.0000       0.375752        10.2247 
 124   0.0000       0.392863        10.6904 
 125   0.0000       0.394215        10.7271 
 126   0.0000       0.398315        10.8387 
 127   0.0000       0.408556        11.1174 
 128   0.0000       0.414982        11.2922 
 129   0.0000       0.417044        11.3483 
 130   0.0000       0.426472        11.6049 
 131   0.0000       0.433691        11.8013 
 132   0.0000       0.438334        11.9277 
 133   0.0000       0.453901        12.3513 
 134   0.0000       0.455003        12.3813 
 135   0.0000       0.465274        12.6607 
 136   0.0000       0.473739        12.8911 
 137   0.0000       0.481271        13.0961 
 138   0.0000       0.486953        13.2507 
 139   0.0000       0.496816        13.5191 
 140   0.0000       0.504356        13.7242 
 141   0.0000       0.504634        13.7318 
 142   0.0000       0.513008        13.9596 
 143   0.0000       0.523721        14.2512 
 144   0.0000       0.534994        14.5579 
 145   0.0000       0.540980        14.7208 
 146   0.0000       0.548381        14.9222 
 147   0.0000       0.556106        15.1324 
 148   0.0000       0.559939        15.2367 
 149   0.0000       0.570965        15.5368 
 150   0.0000       0.577850        15.7241 
 151   0.0000       0.578986        15.7550 
 152   0.0000       0.602532        16.3957 
 153   0.0000       0.615751        16.7554 
 154   0.0000       0.617510        16.8033 
 155   0.0000       0.638941        17.3865 
 156   0.0000       0.659775        17.9534 
 157   0.0000       0.681724        18.5507 
 158   0.0000       0.706847        19.2343 
 159   0.0000       0.730156        19.8686 
 160   0.0000       0.743118        20.2213 
 161   0.0000       0.760378        20.6909 
 162   0.0000       0.769812        20.9477 
 163   0.0000       0.783407        21.3176 
 164   0.0000       0.790679        21.5155 
 165   0.0000       0.812378        22.1059 
 166   0.0000       0.820974        22.3398 
 167   0.0000       0.839135        22.8340 
 168   0.0000       0.842319        22.9207 
 169   0.0000       0.852503        23.1978 
 170   0.0000       0.858002        23.3474 
 171   0.0000       0.865391        23.5485 
 172   0.0000       0.871407        23.7122 
 173   0.0000       0.875813        23.8321 
 174   0.0000       0.886921        24.1344 
 175   0.0000       0.894635        24.3443 
 176   0.0000       0.904581        24.6149 
 177   0.0000       0.909262        24.7423 
 178   0.0000       0.915916        24.9234 
 179   0.0000       0.924251        25.1501 
 180   0.0000       0.929350        25.2889 
 181   0.0000       0.933414        25.3995 
 182   0.0000       0.934881        25.4394 
 183   0.0000       0.939471        25.5643 
 184   0.0000       0.954686        25.9783 
 185   0.0000       0.962559        26.1926 
 186   0.0000       0.963751        26.2250 
 187   0.0000       0.969109        26.3708 
 188   0.0000       0.977610        26.6021 
 189   0.0000       0.989198        26.9174 
 190   0.0000       0.990225        26.9454 
 191   0.0000       0.993476        27.0339 
 192   0.0000       1.005061        27.3491 
 193   0.0000       1.024158        27.8688 
 194   0.0000       1.024432        27.8762 
 195   0.0000       1.031635        28.0722 
 196   0.0000       1.045244        28.4425 
 197   0.0000       1.051635        28.6165 
 198   0.0000       1.055193        28.7133 
 199   0.0000       1.059924        28.8420 
 200   0.0000       1.079066        29.3629 
 201   0.0000       1.084815        29.5193 
 202   0.0000       1.100052        29.9339 
 203   0.0000       1.109295        30.1855 
 204   0.0000       1.120637        30.4941 
 205   0.0000       1.135916        30.9099 
 206   0.0000       1.136684        30.9307 
 207   0.0000       1.168906        31.8076 
 208   0.0000       1.173422        31.9304 
 209   0.0000       1.178050        32.0564 
 210   0.0000       1.187248        32.3067 
 211   0.0000       1.188241        32.3337 
 212   0.0000       1.203249        32.7421 
 213   0.0000       1.205276        32.7972 
 214   0.0000       1.220801        33.2197 
 215   0.0000       1.237663        33.6785 
 216   0.0000       1.249570        34.0025 
 217   0.0000       1.257306        34.2130 
 218   0.0000       1.261406        34.3246 
 219   0.0000       1.277095        34.7515 
 220   0.0000       1.280274        34.8380 
 221   0.0000       1.300358        35.3846 
 222   0.0000       1.308210        35.5982 
 223   0.0000       1.322301        35.9816 
 224   0.0000       1.335507        36.3410 
 225   0.0000       1.349408        36.7193 
 226   0.0000       1.353977        36.8436 
 227   0.0000       1.371094        37.3094 
 228   0.0000       1.375514        37.4296 
 229   0.0000       1.405351        38.2416 
 230   0.0000       1.418504        38.5995 
 231   0.0000       1.427002        38.8307 
 232   0.0000       1.428582        38.8737 
 233   0.0000       1.434976        39.0477 
 234   0.0000       1.437075        39.1048 
 235   0.0000       1.444660        39.3112 
 236   0.0000       1.459936        39.7269 
 237   0.0000       1.462182        39.7880 
 238   0.0000       1.481110        40.3030 
 239   0.0000       1.506323        40.9891 
 240   0.0000       1.514303        41.2063 
 241   0.0000       1.519219        41.3401 
 242   0.0000       1.523233        41.4493 
 243   0.0000       1.541347        41.9422 
 244   0.0000       1.551264        42.2120 
 245   0.0000       1.560040        42.4509 
 246   0.0000       1.561837        42.4998 
 247   0.0000       1.563475        42.5443 
 248   0.0000       1.579886        42.9909 
 249   0.0000       1.585465        43.1427 
 250   0.0000       1.592899        43.3450 
 251   0.0000       1.599193        43.5163 
 252   0.0000       1.600502        43.5519 
 253   0.0000       1.605213        43.6801 
 254   0.0000       1.624821        44.2136 
 255   0.0000       1.632576        44.4247 
 256   0.0000       1.644956        44.7615 
 257   0.0000       1.653722        45.0001 
 258   0.0000       1.654793        45.0292 
 259   0.0000       1.668025        45.3893 
 260   0.0000       1.682199        45.7749 
 261   0.0000       1.690371        45.9973 
 262   0.0000       1.694272        46.1035 
 263   0.0000       1.702258        46.3208 
 264   0.0000       1.704100        46.3709 
 265   0.0000       1.712646        46.6035 
 266   0.0000       1.723854        46.9084 
 267   0.0000       1.742559        47.4174 
 268   0.0000       1.744377        47.4669 
 269   0.0000       1.749704        47.6119 
 270   0.0000       1.770462        48.1767 
 271   0.0000       1.773392        48.2564 
 272   0.0000       1.778236        48.3883 
 273   0.0000       1.790869        48.7320 
 274   0.0000       1.791200        48.7410 
 275   0.0000       1.802260        49.0420 
 276   0.0000       1.805821        49.1389 
 277   0.0000       1.814214        49.3673 
 278   0.0000       1.825297        49.6689 
 279   0.0000       1.835333        49.9420 
 280   0.0000       1.859870        50.6096 
 281   0.0000       1.912529        52.0426 
 282   0.0000       1.914753        52.1031 
 283   0.0000       1.929142        52.4946 
 284   0.0000       1.932390        52.5830 
 285   0.0000       1.938646        52.7532 
 286   0.0000       1.951622        53.1063 
 287   0.0000       1.952387        53.1271 
 288   0.0000       1.987063        54.0707 
 289   0.0000       2.015580        54.8467 
 290   0.0000       2.035537        55.3898 
 291   0.0000       2.046432        55.6862 
 292   0.0000       2.048499        55.7425 
 293   0.0000       2.074898        56.4609 
 294   0.0000       2.102773        57.2194 
 295   0.0000       2.105889        57.3041 
 296   0.0000       2.126041        57.8525 
 297   0.0000       2.126738        57.8715 
 298   0.0000       2.162684        58.8496 
 299   0.0000       2.177460        59.2517 
 300   0.0000       2.186789        59.5056 
 301   0.0000       2.188740        59.5587 
 302   0.0000       2.190702        59.6120 
 303   0.0000       2.234633        60.8075 
 304   0.0000       2.240324        60.9623 
 305   0.0000       2.241501        60.9944 
 306   0.0000       2.254417        61.3458 
 307   0.0000       2.258927        61.4685 
 308   0.0000       2.268336        61.7246 
 309   0.0000       2.304396        62.7058 
 310   0.0000       2.306370        62.7595 
 311   0.0000       2.316627        63.0386 
 312   0.0000       2.323693        63.2309 
 313   0.0000       2.325072        63.2684 
 314   0.0000       2.354681        64.0741 
 315   0.0000       2.366559        64.3973 
 316   0.0000       2.385525        64.9134 
 317   0.0000       2.412688        65.6526 
 318   0.0000       2.413819        65.6833 
 319   0.0000       2.430766        66.1445 
 320   0.0000       2.449862        66.6641 
 321   0.0000       2.453371        66.7596 
 322   0.0000       2.460286        66.9478 
 323   0.0000       2.474756        67.3415 
 324   0.0000       2.481031        67.5123 
 325   0.0000       2.488349        67.7114 
 326   0.0000       2.509870        68.2970 
 327   0.0000       2.519948        68.5713 
 328   0.0000       2.536067        69.0099 
 329   0.0000       2.543524        69.2128 
 330   0.0000       2.558421        69.6182 
 331   0.0000       2.564152        69.7741 
 332   0.0000       2.574314        70.0506 
 333   0.0000       2.581117        70.2358 
 334   0.0000       2.606018        70.9134 
 335   0.0000       2.616395        71.1957 
 336   0.0000       2.624924        71.4278 
 337   0.0000       2.662408        72.4478 
 338   0.0000       2.693664        73.2983 
 339   0.0000       2.741981        74.6131 
 340   0.0000       2.824563        76.8603 
 341   0.0000       2.901004        78.9403 
 342   0.0000       2.942325        80.0647 
 343   0.0000       2.967756        80.7567 
 344   0.0000       3.313556        90.1664 
 345   0.0000       4.978036       135.4593 
 346   0.0000       4.985640       135.6662 
 347   0.0000       5.006553       136.2352 
 348   0.0000       5.009633       136.3190 
 349   0.0000       5.012591       136.3995 
 350   0.0000       5.022187       136.6607 
 351   0.0000       5.024460       136.7225 
 352   0.0000       5.024681       136.7285 
 353   0.0000       5.035244       137.0160 
 354   0.0000       5.048263       137.3702 
 355   0.0000       5.147110       140.0600 
 356   0.0000       5.179798       140.9495 
 357   0.0000       5.235293       142.4596 
 358   0.0000       5.239835       142.5832 
 359   0.0000       5.263180       143.2184 
 360   0.0000       5.279696       143.6678 
 361   0.0000       5.288136       143.8975 
 362   0.0000       5.306221       144.3896 
 363   0.0000       5.313025       144.5748 
 364   0.0000       5.322833       144.8417 
 365   0.0000       5.360362       145.8629 
 366   0.0000       5.374351       146.2435 
 367   0.0000       5.401032       146.9696 
 368   0.0000       5.409640       147.2038 
 369   0.0000       5.459060       148.5486 
 370   0.0000       5.509807       149.9295 
 371   0.0000       5.560052       151.2967 
 372   0.0000       5.598068       152.3312 
 373   0.0000       5.614510       152.7786 
 374   0.0000       5.664775       154.1464 
 375   0.0000       5.732623       155.9926 
 376   0.0000       5.742164       156.2522 
 377   0.0000       5.798461       157.7842 
 378   0.0000       5.846024       159.0784 
 379   0.0000       5.881856       160.0534 
 380   0.0000       6.067634       165.1087 
 381   0.0000       6.323818       172.0798 
 382   0.0000      29.631623       806.3175 
 383   0.0000      29.809682       811.1627 
 384   0.0000      29.849088       812.2350 
 385   0.0000      29.870137       812.8078 
 386   0.0000      29.960764       815.2738 
 387   0.0000      29.982461       815.8643 
 388   0.0000      30.000397       816.3523 
 389   0.0000      30.074160       818.3595 
 390   0.0000      30.104850       819.1946 
 391   0.0000      30.119165       819.5841 
 392   0.0000      30.150596       820.4394 
 393   0.0000      30.212918       822.1353 
 394   0.0000      30.250054       823.1458 
 395   0.0000      30.282171       824.0198 
 396   0.0000      30.361862       826.1883 
 397   0.0000      30.548443       831.2654 
 398   0.0000      36.604155       996.0497 
 399   0.0000      36.613712       996.3097 
 400   0.0000      36.630739       996.7731 
 401   0.0000      36.634590       996.8779 
 402   0.0000      36.638104       996.9735 
 403   0.0000      36.645643       997.1786 
 404   0.0000      36.651126       997.3279 
 405   0.0000      36.661754       997.6170 
 406   0.0000      36.673361       997.9329 
 407   0.0000      36.762036      1000.3458 
 408   0.0000      36.810062      1001.6527 
 409   0.0000      36.823304      1002.0131 
 410   0.0000      36.860915      1003.0365 
 411   0.0000      36.867685      1003.2207 
 412   0.0000      36.874520      1003.4067 
 413   0.0000      36.883494      1003.6509 
 414   0.0000      36.922393      1004.7094 
 415   0.0000      36.934285      1005.0330 
 416   0.0000      36.951583      1005.5037 
 417   0.0000      36.974936      1006.1392 
 418   0.0000      37.009475      1007.0790 

                 SPIN DOWN ORBITALS
  NO   OCC          E(Eh)            E(eV) 
   0   1.0000     -10.219154      -278.0773 
   1   1.0000     -10.204935      -277.6904 
   2   1.0000     -10.204618      -277.6818 
   3   1.0000     -10.202144      -277.6145 
   4   1.0000     -10.194776      -277.4140 
   5   1.0000     -10.193965      -277.3919 
   6   1.0000     -10.193539      -277.3803 
   7   1.0000     -10.192842      -277.3613 
   8   1.0000     -10.189336      -277.2659 
   9   1.0000     -10.186631      -277.1923 
  10   1.0000     -10.185454      -277.1603 
  11   1.0000     -10.184956      -277.1467 
  12   1.0000     -10.181341      -277.0484 
  13   1.0000     -10.181112      -277.0421 
  14   1.0000     -10.174824      -276.8710 
  15   1.0000     -10.172598      -276.8105 
  16   1.0000      -0.861758       -23.4496 
  17   1.0000      -0.807174       -21.9643 
  18   1.0000      -0.791404       -21.5352 
  19   1.0000      -0.779266       -21.2049 
  20   1.0000      -0.760486       -20.6939 
  21   1.0000      -0.725551       -19.7432 
  22   1.0000      -0.722099       -19.6493 
  23   1.0000      -0.692585       -18.8462 
  24   1.0000      -0.649273       -17.6676 
  25   1.0000      -0.620187       -16.8762 
  26   1.0000      -0.606305       -16.4984 
  27   1.0000      -0.586760       -15.9665 
  28   1.0000      -0.575761       -15.6673 
  29   1.0000      -0.556371       -15.1396 
  30   1.0000      -0.525577       -14.3017 
  31   1.0000      -0.492694       -13.4069 
  32   1.0000      -0.470065       -12.7911 
  33   1.0000      -0.467858       -12.7311 
  34   1.0000      -0.460587       -12.5332 
  35   1.0000      -0.458120       -12.4661 
  36   1.0000      -0.426070       -11.5939 
  37   1.0000      -0.424293       -11.5456 
  38   1.0000      -0.421034       -11.4569 
  39   1.0000      -0.416711       -11.3393 
  40   1.0000      -0.409230       -11.1357 
  41   1.0000      -0.387530       -10.5452 
  42   1.0000      -0.385637       -10.4937 
  43   1.0000      -0.372079       -10.1248 
  44   1.0000      -0.370595       -10.0844 
  45   1.0000      -0.361073        -9.8253 
  46   1.0000      -0.346368        -9.4251 
  47   1.0000      -0.344796        -9.3824 
  48   1.0000      -0.335157        -9.1201 
  49   1.0000      -0.330016        -8.9802 
  50   1.0000      -0.328298        -8.9335 
  51   1.0000      -0.323706        -8.8085 
  52   1.0000      -0.321136        -8.7385 
  53   1.0000      -0.319428        -8.6921 
  54   1.0000      -0.306318        -8.3353 
  55   1.0000      -0.273679        -7.4472 
  56   1.0000      -0.252640        -6.8747 
  57   1.0000      -0.229184        -6.2364 
  58   0.0000      -0.075369        -2.0509 
  59   0.0000      -0.025615        -0.6970 
  60   0.0000       0.021045         0.5727 
  61   0.0000       0.022920         0.6237 
  62   0.0000       0.027285         0.7425 
  63   0.0000       0.030538         0.8310 
  64   0.0000       0.031805         0.8655 
  65   0.0000       0.037468         1.0196 
  66   0.0000       0.042949         1.1687 
  67   0.0000       0.047763         1.2997 
  68   0.0000       0.050855         1.3838 
  69   0.0000       0.061284         1.6676 
  70   0.0000       0.076135         2.0717 
  71   0.0000       0.087343         2.3767 
  72   0.0000       0.089014         2.4222 
  73   0.0000       0.096386         2.6228 
  74   0.0000       0.104162         2.8344 
  75   0.0000       0.121960         3.3187 
  76   0.0000       0.135236         3.6800 
  77   0.0000       0.154075         4.1926 
  78   0.0000       0.156366         4.2549 
  79   0.0000       0.162301         4.4164 
  80   0.0000       0.170796         4.6476 
  81   0.0000       0.178104         4.8465 
  82   0.0000       0.181442         4.9373 
  83   0.0000       0.188230         5.1220 
  84   0.0000       0.192911         5.2494 
  85   0.0000       0.199664         5.4331 
  86   0.0000       0.200231         5.4486 
  87   0.0000       0.201566         5.4849 
  88   0.0000       0.202563         5.5120 
  89   0.0000       0.204726         5.5709 
  90   0.0000       0.210815         5.7366 
  91   0.0000       0.217354         5.9145 
  92   0.0000       0.223961         6.0943 
  93   0.0000       0.234189         6.3726 
  94   0.0000       0.243175         6.6171 
  95   0.0000       0.247487         6.7345 
  96   0.0000       0.250805         6.8248 
  97   0.0000       0.255324         6.9477 
  98   0.0000       0.258450         7.0328 
  99   0.0000       0.265366         7.2210 
 100   0.0000       0.268601         7.3090 
 101   0.0000       0.274953         7.4819 
 102   0.0000       0.283034         7.7018 
 103   0.0000       0.283235         7.7072 
 104   0.0000       0.288809         7.8589 
 105   0.0000       0.292328         7.9546 
 106   0.0000       0.299578         8.1519 
 107   0.0000       0.303572         8.2606 
 108   0.0000       0.304170         8.2769 
 109   0.0000       0.311392         8.4734 
 110   0.0000       0.313372         8.5273 
 111   0.0000       0.319383         8.6908 
 112   0.0000       0.322075         8.7641 
 113   0.0000       0.332449         9.0464 
 114   0.0000       0.337641         9.1877 
 115   0.0000       0.338929         9.2227 
 116   0.0000       0.344210         9.3664 
 117   0.0000       0.352223         9.5845 
 118   0.0000       0.356104         9.6901 
 119   0.0000       0.361079         9.8254 
 120   0.0000       0.361973         9.8498 
 121   0.0000       0.366504         9.9731 
 122   0.0000       0.373381        10.1602 
 123   0.0000       0.376618        10.2483 
 124   0.0000       0.395423        10.7600 
 125   0.0000       0.399634        10.8746 
 126   0.0000       0.402389        10.9496 
 127   0.0000       0.409561        11.1447 
 128   0.0000       0.417623        11.3641 
 129   0.0000       0.418212        11.3801 
 130   0.0000       0.434657        11.8276 
 131   0.0000       0.435227        11.8431 
 132   0.0000       0.439566        11.9612 
 133   0.0000       0.455686        12.3999 
 134   0.0000       0.456613        12.4251 
 135   0.0000       0.466682        12.6991 
 136   0.0000       0.475241        12.9320 
 137   0.0000       0.482462        13.1285 
 138   0.0000       0.489412        13.3176 
 139   0.0000       0.498736        13.5713 
 140   0.0000       0.506793        13.7905 
 141   0.0000       0.507346        13.8056 
 142   0.0000       0.514026        13.9874 
 143   0.0000       0.530876        14.4459 
 144   0.0000       0.535996        14.5852 
 145   0.0000       0.541381        14.7317 
 146   0.0000       0.549645        14.9566 
 147   0.0000       0.557547        15.1716 
 148   0.0000       0.559888        15.2353 
 149   0.0000       0.571585        15.5536 
 150   0.0000       0.578697        15.7471 
 151   0.0000       0.579989        15.7823 
 152   0.0000       0.603778        16.4296 
 153   0.0000       0.618134        16.8203 
 154   0.0000       0.619145        16.8478 
 155   0.0000       0.640609        17.4319 
 156   0.0000       0.661665        18.0048 
 157   0.0000       0.684039        18.6136 
 158   0.0000       0.709041        19.2940 
 159   0.0000       0.731677        19.9099 
 160   0.0000       0.745172        20.2772 
 161   0.0000       0.762415        20.7464 
 162   0.0000       0.770349        20.9623 
 163   0.0000       0.786875        21.4120 
 164   0.0000       0.792126        21.5548 
 165   0.0000       0.812678        22.1141 
 166   0.0000       0.822259        22.3748 
 167   0.0000       0.840337        22.8667 
 168   0.0000       0.842741        22.9321 
 169   0.0000       0.852821        23.2064 
 170   0.0000       0.860334        23.4109 
 171   0.0000       0.866304        23.5733 
 172   0.0000       0.875399        23.8208 
 173   0.0000       0.876129        23.8407 
 174   0.0000       0.890437        24.2300 
 175   0.0000       0.895137        24.3579 
 176   0.0000       0.905047        24.6276 
 177   0.0000       0.912384        24.8272 
 178   0.0000       0.916509        24.9395 
 179   0.0000       0.925435        25.1824 
 180   0.0000       0.931232        25.3401 
 181   0.0000       0.936681        25.4884 
 182   0.0000       0.936980        25.4965 
 183   0.0000       0.940619        25.5956 
 184   0.0000       0.955490        26.0002 
 185   0.0000       0.964838        26.2546 
 186   0.0000       0.970127        26.3985 
 187   0.0000       0.970718        26.4146 
 188   0.0000       0.978217        26.6186 
 189   0.0000       0.990710        26.9586 
 190   0.0000       0.992473        27.0066 
 191   0.0000       0.996086        27.1049 
 192   0.0000       1.006444        27.3867 
 193   0.0000       1.024809        27.8865 
 194   0.0000       1.027081        27.9483 
 195   0.0000       1.032177        28.0870 
 196   0.0000       1.046504        28.4768 
 197   0.0000       1.056060        28.7369 
 198   0.0000       1.056291        28.7432 
 199   0.0000       1.060064        28.8458 
 200   0.0000       1.081475        29.4284 
 201   0.0000       1.087097        29.5814 
 202   0.0000       1.100471        29.9453 
 203   0.0000       1.110497        30.2182 
 204   0.0000       1.121293        30.5119 
 205   0.0000       1.136805        30.9340 
 206   0.0000       1.141034        31.0491 
 207   0.0000       1.170634        31.8546 
 208   0.0000       1.176477        32.0136 
 209   0.0000       1.178665        32.0731 
 210   0.0000       1.188932        32.3525 
 211   0.0000       1.189493        32.3677 
 212   0.0000       1.204016        32.7629 
 213   0.0000       1.205486        32.8029 
 214   0.0000       1.224798        33.3285 
 215   0.0000       1.241153        33.7735 
 216   0.0000       1.251758        34.0621 
 217   0.0000       1.260928        34.3116 
 218   0.0000       1.263836        34.3907 
 219   0.0000       1.278637        34.7935 
 220   0.0000       1.283690        34.9310 
 221   0.0000       1.301471        35.4148 
 222   0.0000       1.321638        35.9636 
 223   0.0000       1.324352        36.0374 
 224   0.0000       1.337370        36.3917 
 225   0.0000       1.349991        36.7351 
 226   0.0000       1.356847        36.9217 
 227   0.0000       1.376266        37.4501 
 228   0.0000       1.380852        37.5749 
 229   0.0000       1.406226        38.2654 
 230   0.0000       1.421206        38.6730 
 231   0.0000       1.427208        38.8363 
 232   0.0000       1.429659        38.9030 
 233   0.0000       1.436255        39.0825 
 234   0.0000       1.438706        39.1492 
 235   0.0000       1.446631        39.3648 
 236   0.0000       1.460751        39.7491 
 237   0.0000       1.463310        39.8187 
 238   0.0000       1.482436        40.3391 
 239   0.0000       1.507194        41.0128 
 240   0.0000       1.516243        41.2591 
 241   0.0000       1.519925        41.3593 
 242   0.0000       1.523793        41.4645 
 243   0.0000       1.542674        41.9783 
 244   0.0000       1.551786        42.2262 
 245   0.0000       1.561233        42.4833 
 246   0.0000       1.563153        42.5356 
 247   0.0000       1.564143        42.5625 
 248   0.0000       1.583086        43.0780 
 249   0.0000       1.586069        43.1591 
 250   0.0000       1.594275        43.3824 
 251   0.0000       1.600745        43.5585 
 252   0.0000       1.604895        43.6714 
 253   0.0000       1.605876        43.6981 
 254   0.0000       1.627188        44.2780 
 255   0.0000       1.633126        44.4396 
 256   0.0000       1.646564        44.8053 
 257   0.0000       1.655763        45.0556 
 258   0.0000       1.659861        45.1671 
 259   0.0000       1.669031        45.4167 
 260   0.0000       1.683210        45.8025 
 261   0.0000       1.692913        46.0665 
 262   0.0000       1.696261        46.1576 
 263   0.0000       1.702961        46.3399 
 264   0.0000       1.705532        46.4099 
 265   0.0000       1.713929        46.6384 
 266   0.0000       1.725014        46.9400 
 267   0.0000       1.743513        47.4434 
 268   0.0000       1.745747        47.5042 
 269   0.0000       1.751837        47.6699 
 270   0.0000       1.773090        48.2482 
 271   0.0000       1.774405        48.2840 
 272   0.0000       1.783008        48.5181 
 273   0.0000       1.791596        48.7518 
 274   0.0000       1.793974        48.8165 
 275   0.0000       1.804501        49.1030 
 276   0.0000       1.807492        49.1844 
 277   0.0000       1.817835        49.4658 
 278   0.0000       1.828009        49.7426 
 279   0.0000       1.840052        50.0704 
 280   0.0000       1.860846        50.6362 
 281   0.0000       1.915062        52.1115 
 282   0.0000       1.917516        52.1783 
 283   0.0000       1.929488        52.5040 
 284   0.0000       1.939904        52.7875 
 285   0.0000       1.940961        52.8162 
 286   0.0000       1.953832        53.1665 
 287   0.0000       1.954518        53.1851 
 288   0.0000       1.991958        54.2039 
 289   0.0000       2.020732        54.9869 
 290   0.0000       2.036716        55.4219 
 291   0.0000       2.048419        55.7403 
 292   0.0000       2.049317        55.7648 
 293   0.0000       2.075175        56.4684 
 294   0.0000       2.105092        57.2825 
 295   0.0000       2.107687        57.3531 
 296   0.0000       2.127959        57.9047 
 297   0.0000       2.130562        57.9756 
 298   0.0000       2.164064        58.8872 
 299   0.0000       2.179997        59.3207 
 300   0.0000       2.190336        59.6021 
 301   0.0000       2.191475        59.6331 
 302   0.0000       2.195772        59.7500 
 303   0.0000       2.235806        60.8394 
 304   0.0000       2.242068        61.0098 
 305   0.0000       2.244090        61.0648 
 306   0.0000       2.254995        61.3615 
 307   0.0000       2.259597        61.4868 
 308   0.0000       2.269005        61.7428 
 309   0.0000       2.307118        62.7799 
 310   0.0000       2.307381        62.7870 
 311   0.0000       2.318999        63.1032 
 312   0.0000       2.324077        63.2413 
 313   0.0000       2.325391        63.2771 
 314   0.0000       2.355028        64.0836 
 315   0.0000       2.369965        64.4900 
 316   0.0000       2.387325        64.9624 
 317   0.0000       2.412843        65.6568 
 318   0.0000       2.414572        65.7039 
 319   0.0000       2.431720        66.1705 
 320   0.0000       2.450256        66.6749 
 321   0.0000       2.454100        66.7795 
 322   0.0000       2.460696        66.9589 
 323   0.0000       2.474877        67.3448 
 324   0.0000       2.481239        67.5180 
 325   0.0000       2.488650        67.7196 
 326   0.0000       2.510587        68.3166 
 327   0.0000       2.520337        68.5819 
 328   0.0000       2.536713        69.0275 
 329   0.0000       2.546524        69.2944 
 330   0.0000       2.559858        69.6573 
 331   0.0000       2.564866        69.7936 
 332   0.0000       2.575596        70.0855 
 333   0.0000       2.583036        70.2880 
 334   0.0000       2.607407        70.9511 
 335   0.0000       2.616684        71.2036 
 336   0.0000       2.625586        71.4458 
 337   0.0000       2.663581        72.4797 
 338   0.0000       2.694614        73.3242 
 339   0.0000       2.743221        74.6468 
 340   0.0000       2.825890        76.8964 
 341   0.0000       2.901759        78.9609 
 342   0.0000       2.944417        80.1217 
 343   0.0000       2.967092        80.7387 
 344   0.0000       3.315246        90.2124 
 345   0.0000       4.980713       135.5321 
 346   0.0000       4.985951       135.6746 
 347   0.0000       5.007347       136.2568 
 348   0.0000       5.009768       136.3227 
 349   0.0000       5.014014       136.4383 
 350   0.0000       5.023647       136.7004 
 351   0.0000       5.024427       136.7216 
 352   0.0000       5.030175       136.8780 
 353   0.0000       5.035353       137.0189 
 354   0.0000       5.049376       137.4005 
 355   0.0000       5.147178       140.0618 
 356   0.0000       5.180476       140.9679 
 357   0.0000       5.236501       142.4924 
 358   0.0000       5.241176       142.6196 
 359   0.0000       5.263782       143.2348 
 360   0.0000       5.280078       143.6782 
 361   0.0000       5.289709       143.9403 
 362   0.0000       5.306362       144.3934 
 363   0.0000       5.314161       144.6057 
 364   0.0000       5.323749       144.8666 
 365   0.0000       5.363561       145.9499 
 366   0.0000       5.374466       146.2467 
 367   0.0000       5.401808       146.9907 
[...]
 A(ORB)         -0.0000              -0.0001              -0.0008    A(PC) =  -0.0003
 A(DIA)         -0.0001               0.0002               0.0001    A(PC) =   0.0001
             ----------           ----------           ----------
 A(Tot)          2.4631               3.2269               4.6553    A(iso)=    3.4484
 Orientation: 
  X           0.9977696           -0.0255513           -0.0616689
  Y          -0.0615415            0.0057437           -0.9980880
  Z           0.0258566            0.9996570            0.0041584

Notes:  (1) The A matrix conforms to the "SAI" spin Hamiltonian convention.
        (2) Tensor is right-handed.

 -----------------------------------------------------------
 Nucleus  34H : A:ISTP=    1 I=  0.5 P=533.5514 MHz/au**3
                Q:ISTP=    2 I=  1.0 Q=  0.0029 barn     
 -----------------------------------------------------------
 Solving for nuclear perturbation:
Forming RHS of the CP-SCF equations         ... 
Calc. nucleus orbit integrals (SHARK)       ... done

------------------------------------------------------------------------------
                           ORCA CP-SCF CALCULATION
------------------------------------------------------------------------------

Input orbitals are from        ... EPRII.gbw
Input Perturbation             ... EPRII.pin.tmp
Wavefunction output            ... EPRII.pout.tmp
Perturbation mode              ... Imaginary perturbation
Solver                         ... POPLE
Max. number of iterations      ... 64
Convergence tolerance          ... 1.000e-03
Integral handling              ... Direct
DFT GridXC                     ... 1
COSX GridX                     ... 1
COSX IntAccX                   ... 3.067
COSX Algorithm                 ... Auto
Number of perturbations        ... 3
Number of operators            ... 2
Orbital ranges used for CP-SCF:
 Operator 0:  Orbitals   0... 58  to  59...418
 Operator 1:  Orbitals   0... 57  to  58...418
Variables per perturbation     ... 42178
DFT calculation                         ... on
XC functional terms                     ... off
Hybrid DFT                              ... on
   Exchange mixing (SCF)                ...  0.200
   Exchange mixing (CP-SCF)             ...  0.200
   GGA exch. scaling(SCF)               ...  0.720
   GGA exch. scaling (CP-SCF)           ...  0.720
   GGA corr. scaling (SCF)              ...  0.810
   GGA corr. scaling (CP-SCF)           ...  0.810

CP-SCF GRID
-----------

General Integration Accuracy     IntAcc      ... 3.467
Radial Grid Type                 RadialGrid  ... OptM3 with GC (2021)
Angular Grid (max. ang.)         AngularGrid ... 1 (Lebedev-50)
Angular grid pruning method      GridPruning ... 4 (adaptive)
Weight generation scheme         WeightScheme... Becke
Basis function cutoff            BFCut       ... 1.0000e-10
Integration weight cutoff        WCut        ... 1.0000e-14
Angular grids for H and He will be reduced by one unit
Partially contracted basis set               ... off
Rotationally invariant grid construction     ... off

Total number of grid points                  ...    22945
Total number of batches                      ...      374
Average number of points per batch           ...       61
Average number of grid points per atom       ...      620

CP-SCF GRIDX
------------

General Integration Accuracy     IntAcc      ... 3.067
Radial Grid Type                 RadialGrid  ... OptM3 with GC (2021)
Angular Grid (max. ang.)         AngularGrid ... 1 (Lebedev-50)
Angular grid pruning method      GridPruning ... 4 (adaptive)
Weight generation scheme         WeightScheme... Becke
Basis function cutoff            BFCut       ... 1.0000e-10
Integration weight cutoff        WCut        ... 1.0000e-14
Angular grids for H and He will be reduced by one unit
Partially contracted basis set               ... on
Rotationally invariant grid construction     ... off

Total number of grid points                  ...    10826
Total number of batches                      ...      191
Average number of points per batch           ...       56
Average number of grid points per atom       ...      293

Memory available               ... 905.2 MB
Memory needed per perturbation ...  10.3 MB
Perturbations treated per batch... 3
Number of batches              ... 1
     CP-SCF ITERATION   0:   3.6887e-02 (   1.1 sec   0/  3 done)
     CP-SCF ITERATION   1:   5.6299e-04 (   1.1 sec   3/  3 done)
                    *** THE CP-SCF HAS CONVERGED ***

Forming final perturbed densities           ... done
Transforming perturbed density to AO basis  ... done

 Raw HFC matrix (all values in MHz): 
 -----------------------------------
                -0.8408               0.2812              -0.0001
                 0.2811               0.7006               0.0001
                -0.0001               0.0002              -0.8671

 A(FC)          -0.3359              -0.3359              -0.3359
 A(SD)           1.0857              -0.5311              -0.5545
 A(ORB+DIA)      0.0005              -0.0001              -0.0001    A(PC) =   0.0001
 A(ORB)          0.0004               0.0000              -0.0000    A(PC) =   0.0001
 A(DIA)          0.0001              -0.0001              -0.0000    A(PC) =  -0.0000
             ----------           ----------           ----------
 A(Tot)          0.7503              -0.8671              -0.8905    A(iso)=   -0.3358
 Orientation: 
  X           0.1740491            0.0051335           -0.9847236
  Y           0.9847370           -0.0008258            0.1740472
  Z           0.0000803           -0.9999865           -0.0051988

Notes:  (1) The A matrix conforms to the "SAI" spin Hamiltonian convention.
        (2) Tensor is right-handed.

 -----------------------------------------------------------
 Nucleus  35H : A:ISTP=    1 I=  0.5 P=533.5514 MHz/au**3
                Q:ISTP=    2 I=  1.0 Q=  0.0029 barn     
 -----------------------------------------------------------
 Solving for nuclear perturbation:
Forming RHS of the CP-SCF equations         ... 
Calc. nucleus orbit integrals (SHARK)       ... done

------------------------------------------------------------------------------
                           ORCA CP-SCF CALCULATION
------------------------------------------------------------------------------

Input orbitals are from        ... EPRII.gbw
Input Perturbation             ... EPRII.pin.tmp
Wavefunction output            ... EPRII.pout.tmp
Perturbation mode              ... Imaginary perturbation
Solver                         ... POPLE
Max. number of iterations      ... 64
Convergence tolerance          ... 1.000e-03
Integral handling              ... Direct
DFT GridXC                     ... 1
COSX GridX                     ... 1
COSX IntAccX                   ... 3.067
COSX Algorithm                 ... Auto
Number of perturbations        ... 3
Number of operators            ... 2
Orbital ranges used for CP-SCF:
 Operator 0:  Orbitals   0... 58  to  59...418
 Operator 1:  Orbitals   0... 57  to  58...418
Variables per perturbation     ... 42178
DFT calculation                         ... on
XC functional terms                     ... off
Hybrid DFT                              ... on
   Exchange mixing (SCF)                ...  0.200
   Exchange mixing (CP-SCF)             ...  0.200
   GGA exch. scaling(SCF)               ...  0.720
   GGA exch. scaling (CP-SCF)           ...  0.720
   GGA corr. scaling (SCF)              ...  0.810
   GGA corr. scaling (CP-SCF)           ...  0.810

CP-SCF GRID
-----------

General Integration Accuracy     IntAcc      ... 3.467
Radial Grid Type                 RadialGrid  ... OptM3 with GC (2021)
Angular Grid (max. ang.)         AngularGrid ... 1 (Lebedev-50)
Angular grid pruning method      GridPruning ... 4 (adaptive)
Weight generation scheme         WeightScheme... Becke
Basis function cutoff            BFCut       ... 1.0000e-10
Integration weight cutoff        WCut        ... 1.0000e-14
Angular grids for H and He will be reduced by one unit
Partially contracted basis set               ... off
Rotationally invariant grid construction     ... off

Total number of grid points                  ...    22945
Total number of batches                      ...      374
Average number of points per batch           ...       61
Average number of grid points per atom       ...      620

CP-SCF GRIDX
------------

General Integration Accuracy     IntAcc      ... 3.067
Radial Grid Type                 RadialGrid  ... OptM3 with GC (2021)
Angular Grid (max. ang.)         AngularGrid ... 1 (Lebedev-50)
Angular grid pruning method      GridPruning ... 4 (adaptive)
Weight generation scheme         WeightScheme... Becke
Basis function cutoff            BFCut       ... 1.0000e-10
Integration weight cutoff        WCut        ... 1.0000e-14
Angular grids for H and He will be reduced by one unit
Partially contracted basis set               ... on
Rotationally invariant grid construction     ... off

Total number of grid points                  ...    10826
Total number of batches                      ...      191
Average number of points per batch           ...       56
Average number of grid points per atom       ...      293

Memory available               ... 904.7 MB
Memory needed per perturbation ...  10.3 MB
Perturbations treated per batch... 3
Number of batches              ... 1
     CP-SCF ITERATION   0:   3.7017e-02 (   1.1 sec   0/  3 done)
     CP-SCF ITERATION   1:   5.9139e-04 (   1.1 sec   3/  3 done)
                    *** THE CP-SCF HAS CONVERGED ***

Forming final perturbed densities           ... done
Transforming perturbed density to AO basis  ... done

 Raw HFC matrix (all values in MHz): 
 -----------------------------------
                -0.1314               0.0559               0.0000
                 0.0559               0.2396               0.0008
                 0.0000               0.0008              -0.1363

 A(FC)          -0.0094              -0.0094              -0.0094
 A(SD)          -0.1269              -0.1302               0.2572
 A(ORB+DIA)      0.0000               0.0000               0.0001    A(PC) =   0.0000
 A(ORB)          0.0000              -0.0000               0.0001    A(PC) =   0.0000
 A(DIA)          0.0000               0.0000               0.0000    A(PC) =   0.0000
             ----------           ----------           ----------
 A(Tot)         -0.1363              -0.1396               0.2478    A(iso)=   -0.0094
 Orientation: 
  X          -0.0295430            0.9888748            0.1457873
  Y           0.0023336           -0.1457823            0.9893139
  Z           0.9995608            0.0295675            0.0019992

Notes:  (1) The A matrix conforms to the "SAI" spin Hamiltonian convention.
        (2) Tensor is right-handed.

 -----------------------------------------------------------
 Nucleus  36H : A:ISTP=    1 I=  0.5 P=533.5514 MHz/au**3
                Q:ISTP=    2 I=  1.0 Q=  0.0029 barn     
 -----------------------------------------------------------
 Solving for nuclear perturbation:
Forming RHS of the CP-SCF equations         ... 
Calc. nucleus orbit integrals (SHARK)       ... done

------------------------------------------------------------------------------
                           ORCA CP-SCF CALCULATION
------------------------------------------------------------------------------

Input orbitals are from        ... EPRII.gbw
Input Perturbation             ... EPRII.pin.tmp
Wavefunction output            ... EPRII.pout.tmp
Perturbation mode              ... Imaginary perturbation
Solver                         ... POPLE
Max. number of iterations      ... 64
Convergence tolerance          ... 1.000e-03
Integral handling              ... Direct
DFT GridXC                     ... 1
COSX GridX                     ... 1
COSX IntAccX                   ... 3.067
COSX Algorithm                 ... Auto
Number of perturbations        ... 3
Number of operators            ... 2
Orbital ranges used for CP-SCF:
 Operator 0:  Orbitals   0... 58  to  59...418
 Operator 1:  Orbitals   0... 57  to  58...418
Variables per perturbation     ... 42178
DFT calculation                         ... on
XC functional terms                     ... off
Hybrid DFT                              ... on
   Exchange mixing (SCF)                ...  0.200
   Exchange mixing (CP-SCF)             ...  0.200
   GGA exch. scaling(SCF)               ...  0.720
   GGA exch. scaling (CP-SCF)           ...  0.720
   GGA corr. scaling (SCF)              ...  0.810
   GGA corr. scaling (CP-SCF)           ...  0.810

CP-SCF GRID
-----------

General Integration Accuracy     IntAcc      ... 3.467
Radial Grid Type                 RadialGrid  ... OptM3 with GC (2021)
Angular Grid (max. ang.)         AngularGrid ... 1 (Lebedev-50)
Angular grid pruning method      GridPruning ... 4 (adaptive)
Weight generation scheme         WeightScheme... Becke
Basis function cutoff            BFCut       ... 1.0000e-10
Integration weight cutoff        WCut        ... 1.0000e-14
Angular grids for H and He will be reduced by one unit
Partially contracted basis set               ... off
Rotationally invariant grid construction     ... off

Total number of grid points                  ...    22945
Total number of batches                      ...      374
Average number of points per batch           ...       61
Average number of grid points per atom       ...      620

CP-SCF GRIDX
------------

General Integration Accuracy     IntAcc      ... 3.067
Radial Grid Type                 RadialGrid  ... OptM3 with GC (2021)
Angular Grid (max. ang.)         AngularGrid ... 1 (Lebedev-50)
Angular grid pruning method      GridPruning ... 4 (adaptive)
Weight generation scheme         WeightScheme... Becke
Basis function cutoff            BFCut       ... 1.0000e-10
Integration weight cutoff        WCut        ... 1.0000e-14
Angular grids for H and He will be reduced by one unit
Partially contracted basis set               ... on
Rotationally invariant grid construction     ... off

Total number of grid points                  ...    10826
Total number of batches                      ...      191
Average number of points per batch           ...       56
Average number of grid points per atom       ...      293

Memory available               ... 904.3 MB
Memory needed per perturbation ...  10.3 MB
Perturbations treated per batch... 3
Number of batches              ... 1
     CP-SCF ITERATION   0:   4.5504e-02 (   1.1 sec   0/  3 done)
     CP-SCF ITERATION   1:   2.0386e-03 (   1.1 sec   0/  3 done)
     CP-SCF ITERATION   2:   1.1303e-04 (   1.1 sec   3/  3 done)
                    *** THE CP-SCF HAS CONVERGED ***

Forming final perturbed densities           ... done
Transforming perturbed density to AO basis  ... done

 Raw HFC matrix (all values in MHz): 
 -----------------------------------
                -7.7762              -1.6796               0.1944
                -1.6768             -20.3013              -0.0189
                 0.1944              -0.0190             -17.7079

 A(FC)         -15.2641             -15.2641             -15.2641
 A(SD)           7.7116              -2.4469              -5.2647
 A(ORB+DIA)      0.0010              -0.0007               0.0065    A(PC) =   0.0023
 A(ORB)         -0.0004               0.0002               0.0065    A(PC) =   0.0021
 A(DIA)          0.0014              -0.0009              -0.0000    A(PC) =   0.0002
             ----------           ----------           ----------
 A(Tot)         -7.5515             -17.7116             -20.5222    A(iso)=  -15.2618
 Orientation: 
  X          -0.9912475           -0.0187421            0.1306793
  Y           0.1306107            0.0048418            0.9914219
  Z          -0.0192141            0.9998126           -0.0023515

Notes:  (1) The A matrix conforms to the "SAI" spin Hamiltonian convention.
        (2) Tensor is right-handed.


--------------------------------------------------------------------------------
----------------------------------------------------------------------------
                           ORCA EULER ANGLE PROGRAM
----------------------------------------------------------------------------

Only g-tensor available        -->  using g-tensor as reference tensor

Reference tensor               ...  g

g-tensor ordering              ...  |g_min> --> |gx>
                                    |g_mid> --> |gy>
                                    |g_max> --> |gz>

A- and EFG-tensor ordering     ...  the axes |Ax>, |Qx>, |Ay>, etc. are assigned
                                    such that the Euler rotation is minimal. You
                                    can find the respective eigenvalues as Ax,
                                    EFGx, Ay, etc. in the tables below.
                                    The relation of |Ax>, |Ay>,  etc. to Amin, Amid, etc.
                                    (as printed in the ORCA EPR/NMR CALCULATION Output)
                                    is obtained in the detailed printout.

Euler rotation around          ...  z - y - z
   First rotation              -->  by alpha around z
   Second rotation             -->  by beta around y'
   Third rotation              -->  by gamma around z''
   Positive / Negative angle   -->  clockwise / counterclockwise rotation

Plot EFG-tensors                    (-)
Plot HFC-tensors                    (-)
Detailed Printout                   (-)

-------------------------------------------------------------------------
          Euler rotation of hyperfine tensor to g-tensor
-------------------------------------------------------------------------

-------------------------------------------------------------------
 Atom  |   Alpha    Beta    Gamma   |   Ax       Ay       Az 
       |          [degrees]         |           [MHz]         
-------------------------------------------------------------------
  7H      -91.6      3.1     91.7     -17.58    -7.96   -21.21
  8H      -90.1      3.2     90.2       4.30     5.24     9.71
 10H       89.9     44.6    -89.9     -51.05   -20.73   -77.25
 12H      -22.2     13.2      4.0      72.74    82.88    74.29
 13H     -157.7     12.9    175.8      72.43    82.58    73.99
 15H       14.5     26.7    -56.6      -3.55    -3.38     3.13
 16H      165.6     26.5   -122.9      -3.55    -3.38     3.12
 18H     -129.1     49.7    154.1      -0.00     2.46     0.12
 19H      -50.7     50.1     25.7      -0.01     2.46     0.11
 21H     -146.9     17.6   -173.6      25.49    26.13    29.42
 22H      -33.2     17.2     -5.0      24.92    25.54    28.84
 24H      -85.8     30.0     99.7      -1.02     1.05    -0.92
 25H      -97.4     30.1     84.7      -1.01     1.05    -0.91
 27H       75.6     30.5   -106.8      -0.13    -0.17     0.84
 28H      103.9     30.4    -72.2      -0.12    -0.16     0.84
 30H      -93.4     41.5     85.1      -0.12     0.40    -0.11
 31H      -88.1     41.5     97.8      -0.12     0.40    -0.11
 33H       89.6     43.1    -90.0       3.23     2.46     4.66
 34H       90.7     36.6    -89.8      -0.87    -0.89     0.75
 35H       89.1     38.3    -89.6      -0.14    -0.14     0.25
 36H       90.0     39.1    -90.0     -17.71    -7.55   -20.52
-------------------------------------------------------------------


Maximum memory used throughout the entire EPRNMR-calculation: 161.7 MB

Timings for individual modules:

Sum of individual times         ...     1672.674 sec (=  27.878 min)
GTO integral calculation        ...        5.017 sec (=   0.084 min)   0.3 %
Spin-Orbit-Coupling Matrices    ...        7.942 sec (=   0.132 min)   0.5 %
SCF iterations                  ...       20.620 sec (=   0.344 min)   1.2 %
EPR/NMR calculation             ...     1639.094 sec (=  27.318 min)  98.0 %
                             ****ORCA TERMINATED NORMALLY****
TOTAL RUN TIME: 0 days 0 hours 27 minutes 57 seconds 441 msec
