
                                 *****************
                                 * O   R   C   A *
                                 *****************

                                            #,                                       
                                            ###                                      
                                            ####                                     
                                            #####                                    
                                            ######                                   
                                           ########,                                 
                                     ,,################,,,,,                         
                               ,,#################################,,                 
                          ,,##########################################,,             
                       ,#########################################, ''#####,          
                    ,#############################################,,   '####,        
                  ,##################################################,,,,####,       
                ,###########''''           ''''###############################       
              ,#####''   ,,,,##########,,,,          '''####'''          '####       
            ,##' ,,,,###########################,,,                        '##       
           ' ,,###''''                  '''############,,,                           
         ,,##''                                '''############,,,,        ,,,,,,###''
      ,#''                                            '''#######################'''  
     '                                                          ''''####''''         
             ,#######,   #######,   ,#######,      ##                                
            ,#'     '#,  ##    ##  ,#'     '#,    #''#        ######   ,####,        
            ##       ##  ##   ,#'  ##            #'  '#       #        #'  '#        
            ##       ##  #######   ##           ,######,      #####,   #    #        
            '#,     ,#'  ##    ##  '#,     ,#' ,#      #,         ##   #,  ,#        
             '#######'   ##     ##  '#######'  #'      '#     #####' # '####'        



                  #######################################################
                  #                        -***-                        #
                  #          Department of theory and spectroscopy      #
                  #    Directorship and core code : Frank Neese         #
                  #        Max Planck Institute fuer Kohlenforschung    #
                  #                Kaiser Wilhelm Platz 1               #
                  #                 D-45470 Muelheim/Ruhr               #
                  #                      Germany                        #
                  #                                                     #
                  #                  All rights reserved                #
                  #                        -***-                        #
                  #######################################################


                         Program Version 5.0.4 -  RELEASE  -


 With contributions from (in alphabetic order):
   Daniel Aravena         : Magnetic Suceptibility
   Michael Atanasov       : Ab Initio Ligand Field Theory (pilot matlab implementation)
   Alexander A. Auer      : GIAO ZORA, VPT2 properties, NMR spectrum
   Ute Becker             : Parallelization
   Giovanni Bistoni       : ED, misc. LED, open-shell LED, HFLD
   Martin Brehm           : Molecular dynamics
   Dmytro Bykov           : SCF Hessian
   Vijay G. Chilkuri      : MRCI spin determinant printing, contributions to CSF-ICE
   Dipayan Datta          : RHF DLPNO-CCSD density
   Achintya Kumar Dutta   : EOM-CC, STEOM-CC
   Dmitry Ganyushin       : Spin-Orbit,Spin-Spin,Magnetic field MRCI
   Miquel Garcia          : C-PCM and meta-GGA Hessian, CC/C-PCM, Gaussian charge scheme
   Yang Guo               : DLPNO-NEVPT2, F12-NEVPT2, CIM, IAO-localization
   Andreas Hansen         : Spin unrestricted coupled pair/coupled cluster methods
   Benjamin Helmich-Paris : MC-RPA, TRAH-SCF, COSX integrals
   Lee Huntington         : MR-EOM, pCC
   Robert Izsak           : Overlap fitted RIJCOSX, COSX-SCS-MP3, EOM
   Marcus Kettner         : VPT2
   Christian Kollmar      : KDIIS, OOCD, Brueckner-CCSD(T), CCSD density, CASPT2, CASPT2-K
   Simone Kossmann        : Meta GGA functionals, TD-DFT gradient, OOMP2, MP2 Hessian
   Martin Krupicka        : Initial AUTO-CI
   Lucas Lang             : DCDCAS
   Marvin Lechner         : AUTO-CI (C++ implementation), FIC-MRCC
   Dagmar Lenk            : GEPOL surface, SMD
   Dimitrios Liakos       : Extrapolation schemes; Compound Job, initial MDCI parallelization
   Dimitrios Manganas     : Further ROCIS development; embedding schemes
   Dimitrios Pantazis     : SARC Basis sets
   Anastasios Papadopoulos: AUTO-CI, single reference methods and gradients
   Taras Petrenko         : DFT Hessian,TD-DFT gradient, ASA, ECA, R-Raman, ABS, FL, XAS/XES, NRVS
   Peter Pinski           : DLPNO-MP2, DLPNO-MP2 Gradient
   Christoph Reimann      : Effective Core Potentials
   Marius Retegan         : Local ZFS, SOC
   Christoph Riplinger    : Optimizer, TS searches, QM/MM, DLPNO-CCSD(T), (RO)-DLPNO pert. Triples
   Tobias Risthaus        : Range-separated hybrids, TD-DFT gradient, RPA, STAB
   Michael Roemelt        : Original ROCIS implementation
   Masaaki Saitow         : Open-shell DLPNO-CCSD energy and density
   Barbara Sandhoefer     : DKH picture change effects
   Avijit Sen             : IP-ROCIS
   Kantharuban Sivalingam : CASSCF convergence, NEVPT2, FIC-MRCI
   Bernardo de Souza      : ESD, SOC TD-DFT
   Georgi Stoychev        : AutoAux, RI-MP2 NMR, DLPNO-MP2 response
   Willem Van den Heuvel  : Paramagnetic NMR
   Boris Wezisla          : Elementary symmetry handling
   Frank Wennmohs         : Technical directorship


 We gratefully acknowledge several colleagues who have allowed us to
 interface, adapt or use parts of their codes:
   Stefan Grimme, W. Hujo, H. Kruse, P. Pracht,  : VdW corrections, initial TS optimization,
                  C. Bannwarth, S. Ehlert          DFT functionals, gCP, sTDA/sTD-DF
   Ed Valeev, F. Pavosevic, A. Kumar             : LibInt (2-el integral package), F12 methods
   Garnet Chan, S. Sharma, J. Yang, R. Olivares  : DMRG
   Ulf Ekstrom                                   : XCFun DFT Library
   Mihaly Kallay                                 : mrcc  (arbitrary order and MRCC methods)
   Jiri Pittner, Ondrej Demel                    : Mk-CCSD
   Frank Weinhold                                : gennbo (NPA and NBO analysis)
   Christopher J. Cramer and Donald G. Truhlar   : smd solvation model
   Lars Goerigk                                  : TD-DFT with DH, B97 family of functionals
   V. Asgeirsson, H. Jonsson                     : NEB implementation
   FAccTs GmbH                                   : IRC, NEB, NEB-TS, DLPNO-Multilevel, CI-OPT
                                                   MM, QMMM, 2- and 3-layer-ONIOM, Crystal-QMMM,
                                                   LR-CPCM, SF, NACMEs, symmetry and pop. for TD-DFT,
                                                   nearIR, NL-DFT gradient (VV10), updates on ESD,
                                                   ML-optimized integration grids
   S Lehtola, MJT Oliveira, MAL Marques          : LibXC Library
   Liviu Ungur et al                             : ANISO software


 Your calculation uses the libint2 library for the computation of 2-el integrals
 For citations please refer to: http://libint.valeyev.net

 Your ORCA version has been built with support for libXC version: 5.1.0
 For citations please refer to: https://tddft.org/programs/libxc/

 This ORCA versions uses:
   CBLAS   interface :  Fast vector & matrix operations
   LAPACKE interface :  Fast linear algebra routines
   SCALAPACK package :  Parallel linear algebra routines
   Shared memory     :  Shared parallel matrices
   BLAS/LAPACK       :  OpenBLAS 0.3.15  USE64BITINT DYNAMIC_ARCH NO_AFFINITY SkylakeX SINGLE_THREADED
        Core in use  :  SkylakeX
   Copyright (c) 2011-2014, The OpenBLAS Project




***************************************
The coordinates will be read from file: model.xyz
***************************************


================================================================================

----- Orbital basis set information -----
Your calculation utilizes the basis: EPR-II
   V. Barone, in Recent Advances in Density Functional Methods, Part 1 (ed. D. P. Chong), World Scientific, Singapore, 1995, p. 287.

----- AuxJ basis set information -----
Your calculation utilizes the auxiliary basis: def2/J
   F. Weigend, Phys. Chem. Chem. Phys. 8, 1057 (2006).

================================================================================
                                        WARNINGS
                       Please study these warnings very carefully!
================================================================================


WARNING: your system is open-shell and RHF/RKS was chosen
  ===> : WILL SWITCH to UHF/UKS


WARNING: Geometry Optimization
  ===> : Switching off AutoStart
         For restart on a previous wavefunction, please use MOREAD

INFO   : the flag for use of the SHARK integral package has been found!

================================================================================
                                       INPUT FILE
================================================================================
NAME = opt_EPRII.inp
|  1> ! B3LYP EPR-II OPT
|  2> %pal nprocs 16 end
|  3> *XYZFile 0 2 model.xyz
|  4> 
|  5>                          ****END OF INPUT****
================================================================================

                       *****************************
                       * Geometry Optimization Run *
                       *****************************

Geometry optimization settings:
Update method            Update   .... BFGS
Choice of coordinates    CoordSys .... Z-matrix Internals
Initial Hessian          InHess   .... Almoef's Model

Convergence Tolerances:
Energy Change            TolE     ....  5.0000e-06 Eh
Max. Gradient            TolMAXG  ....  3.0000e-04 Eh/bohr
RMS Gradient             TolRMSG  ....  1.0000e-04 Eh/bohr
Max. Displacement        TolMAXD  ....  4.0000e-03 bohr
RMS Displacement         TolRMSD  ....  2.0000e-03 bohr
Strict Convergence                ....  False
------------------------------------------------------------------------------
                        ORCA OPTIMIZATION COORDINATE SETUP
------------------------------------------------------------------------------

The optimization will be done in new redundant internal coordinates
Making redundant internal coordinates   ...  (new redundants) done
Evaluating the initial hessian          ...  (Almloef) done
Evaluating the coordinates              ...  done
Calculating the B-matrix                .... done
Calculating the G-matrix                .... done
Diagonalizing the G-matrix              .... done
Small eigenvalue found = 2.435e-03
Small eigenvalue found = 5.871e-03
Small eigenvalue found = 1.009e-02
Small eigenvalue found = 1.679e-02
Small eigenvalue found = 2.840e-02
The first mode is                       ....   84
The number of degrees of freedom        ....  105

    -----------------------------------------------------------------
                    Redundant Internal Coordinates


    -----------------------------------------------------------------
         Definition                    Initial Value    Approx d2E/dq
    -----------------------------------------------------------------
      1. B(C   2,C   1)                  1.4248         0.549893   
      2. B(C   3,C   2)                  1.4228         0.553818   
      3. B(C   4,C   0)                  1.4354         0.528856   
      4. B(C   4,C   3)                  1.3997         0.602974   
      5. B(C   5,C   4)                  1.4256         0.548191   
      6. B(C   6,C   5)                  1.4063         0.588528   
      7. B(C   6,C   1)                  1.3888         0.627525   
      8. B(H   7,C   3)                  1.0906         0.359273   
      9. B(H   8,C   6)                  1.0909         0.358874   
     10. B(C   9,C   2)                  1.4186         0.562498   
     11. B(H  10,C   9)                  1.0953         0.353129   
     12. B(C  11,C   9)                  1.4987         0.419089   
     13. B(H  12,C  11)                  1.1101         0.334502   
     14. B(H  13,C  11)                  1.1101         0.334489   
     15. B(C  14,C  11)                  1.5341         0.367977   
     16. B(H  15,C  14)                  1.1055         0.340175   
     17. B(H  16,C  14)                  1.1055         0.340145   
     18. B(C  17,C  14)                  1.5298         0.373888   
     19. B(H  18,C  17)                  1.1038         0.342324   
     20. B(H  19,C  17)                  1.1038         0.342318   
     21. B(C  20,C   5)                  1.5149         0.394952   
     22. B(H  21,C  20)                  1.1063         0.339167   
     23. B(H  22,C  20)                  1.1061         0.339365   
     24. B(C  23,C  20)                  1.5311         0.372088   
     25. B(H  24,C  23)                  1.1058         0.339810   
     26. B(H  25,C  23)                  1.1058         0.339810   
     27. B(C  26,C  23)                  1.5334         0.368880   
     28. B(H  27,C  26)                  1.1059         0.339722   
     29. B(H  28,C  26)                  1.1059         0.339720   
     30. B(C  29,C  26)                  1.5306         0.372732   
     31. B(H  30,C  29)                  1.1038         0.342270   
     32. B(H  31,C  29)                  1.1038         0.342288   
     33. B(C  32,C   0)                  1.2158         1.184931   
     34. B(H  33,C  32)                  1.0724         0.384211   
     35. B(H  34,C  17)                  1.1019         0.344671   
     36. B(H  35,C  29)                  1.1022         0.344368   
     37. B(H  36,C   1)                  1.0935         0.355497   
     38. L(C   4,C   0,C  32,C   3, 1) 179.7574         0.474427   
     39. L(C   4,C   0,C  32,C   3, 2) 179.8712         0.474427   
     40. A(C   2,C   1,C   6)          121.5810         0.425738   
     41. A(C   2,C   1,H  36)          118.8303         0.345091   
     42. A(C   6,C   1,H  36)          119.5887         0.352861   
     43. A(C   3,C   2,C   9)          122.6295         0.418032   
     44. A(C   1,C   2,C   9)          120.8890         0.417503   
     45. A(C   1,C   2,C   3)          116.4815         0.416349   
     46. A(C   2,C   3,C   4)          121.7831         0.423248   
     47. A(C   4,C   3,H   7)          118.2742         0.351114   
     48. A(C   2,C   3,H   7)          119.9428         0.346118   
     49. A(C   0,C   4,C   3)          118.8713         0.419777   
     50. A(C   3,C   4,C   5)          120.8920         0.422476   
     51. A(C   0,C   4,C   5)          120.2368         0.412722   
     52. A(C   4,C   5,C  20)          119.7285         0.392022   
     53. A(C   6,C   5,C  20)          123.0472         0.396931   
     54. A(C   4,C   5,C   6)          117.2243         0.420651   
     55. A(C   5,C   6,H   8)          119.3393         0.349614   
     56. A(C   1,C   6,H   8)          118.6225         0.353426   
     57. A(C   1,C   6,C   5)          122.0382         0.430954   
     58. A(C   2,C   9,H  10)          117.1239         0.346019   
     59. A(H  10,C   9,C  11)          117.8079         0.329456   
     60. A(C   2,C   9,C  11)          125.0682         0.397914   
     61. A(H  13,C  11,C  14)          109.1642         0.319632   
     62. A(H  12,C  11,C  14)          109.1733         0.319635   
     63. A(C   9,C  11,C  14)          113.6464         0.369623   
     64. A(H  12,C  11,H  13)          104.5628         0.284212   
     65. A(C   9,C  11,H  13)          109.9462         0.326523   
     66. A(C   9,C  11,H  12)          109.9493         0.326525   
     67. A(H  16,C  14,C  17)          109.6954         0.321346   
     68. A(H  15,C  14,C  17)          109.6931         0.321351   
     69. A(C  11,C  14,C  17)          113.1667         0.362467   
     70. A(H  15,C  14,H  16)          106.0248         0.285701   
     71. A(C  11,C  14,H  16)          109.0093         0.320509   
     72. A(C  11,C  14,H  15)          108.9985         0.320514   
     73. A(H  19,C  17,H  34)          107.6221         0.286571   
     74. A(H  18,C  17,H  34)          107.6166         0.286572   
     75. A(C  14,C  17,H  34)          111.4559         0.322042   
     76. A(C  14,C  17,H  18)          111.2953         0.321682   
     77. A(C  14,C  17,H  19)          111.2939         0.321681   
     78. A(H  18,C  17,H  19)          107.3525         0.286266   
     79. A(H  22,C  20,C  23)          109.1545         0.320972   
     80. A(H  21,C  20,C  23)          109.1475         0.320941   
     81. A(C   5,C  20,C  23)          116.9081         0.366578   
     82. A(H  21,C  20,H  22)          104.2714         0.285467   
     83. A(C   5,C  20,H  22)          108.3094         0.324124   
     84. A(C   5,C  20,H  21)          108.3079         0.324093   
     85. A(H  25,C  23,C  26)          109.0019         0.320586   
     86. A(H  24,C  23,C  26)          109.0470         0.320586   
     87. A(C  20,C  23,C  26)          112.6241         0.362320   
     88. A(H  24,C  23,H  25)          106.1977         0.285609   
     89. A(C  20,C  23,H  25)          109.8955         0.321040   
     90. A(C  20,C  23,H  24)          109.8642         0.321041   
     91. A(H  28,C  26,C  29)          109.5673         0.321118   
     92. A(H  27,C  26,C  29)          109.5713         0.321118   
     93. A(C  23,C  26,C  29)          113.1973         0.362428   
     94. A(H  27,C  26,H  28)          105.8436         0.285586   
     95. A(C  23,C  26,H  28)          109.1983         0.320572   
     96. A(C  23,C  26,H  27)          109.1983         0.320573   
     97. A(C  26,C  29,H  35)          111.5288         0.321832   
     98. A(H  30,C  29,H  31)          107.3528         0.286255   
     99. A(C  26,C  29,H  31)          111.2959         0.321513   
    100. A(C  26,C  29,H  30)          111.3024         0.321511   
    101. A(H  31,C  29,H  35)          107.5761         0.286528   
    102. A(H  30,C  29,H  35)          107.5746         0.286525   
    103. L(C   0,C  32,H  33, 2)       180.2493         0.399094   
    104. L(C   0,C  32,H  33, 1)       180.1703         0.399094   
    105. D(C   3,C   2,C   1,C   6)     -0.0114         0.020685   
    106. D(C   3,C   2,C   1,H  36)   -179.9983         0.020685   
    107. D(C   9,C   2,C   1,H  36)     -0.0243         0.020685   
    108. D(C   9,C   2,C   1,C   6)    179.9627         0.020685   
    109. D(C   4,C   3,C   2,C   9)   -179.9590         0.020992   
    110. D(H   7,C   3,C   2,C   1)    179.9979         0.020992   
    111. D(H   7,C   3,C   2,C   9)      0.0244         0.020992   
    112. D(C   4,C   3,C   2,C   1)      0.0145         0.020992   
    113. D(C   5,C   4,C   3,C   2)     -0.0025         0.025078   
    114. D(C   0,C   4,C   3,C   2)    179.9586         0.025078   
    115. D(C   0,C   4,C   3,H   7)     -0.0251         0.025078   
    116. D(C   5,C   4,C   3,H   7)   -179.9862         0.025078   
    117. D(C  20,C   5,C   4,C   0)     -0.0313         0.020553   
    118. D(C   6,C   5,C   4,C   0)   -179.9734         0.020553   
    119. D(C  20,C   5,C   4,C   3)    179.9292         0.020553   
    120. D(C   6,C   5,C   4,C   3)     -0.0129         0.020553   
    121. D(H   8,C   6,C   5,C  20)      0.0792         0.023830   
    122. D(C   1,C   6,C   5,C  20)   -179.9238         0.023830   
    123. D(H   8,C   6,C   1,H  36)     -0.0202         0.027290   
    124. D(C   5,C   6,C   1,H  36)    179.9828         0.027290   
    125. D(C   1,C   6,C   5,C   4)      0.0162         0.023830   
    126. D(H   8,C   6,C   5,C   4)   -179.9808         0.023830   
    127. D(C   5,C   6,C   1,C   2)     -0.0040         0.027290   
    128. D(H   8,C   6,C   1,C   2)    179.9930         0.027290   
    129. D(C  11,C   9,C   2,C   3)     -0.0460         0.021681   
    130. D(C  11,C   9,C   2,C   1)    179.9816         0.021681   
    131. D(H  10,C   9,C   2,C   3)    179.9208         0.021681   
    132. D(H  10,C   9,C   2,C   1)     -0.0516         0.021681   
    133. D(H  13,C  11,C   9,C   2)     57.1624         0.012989   
    134. D(H  12,C  11,C   9,H  10)    122.5955         0.012989   
    135. D(H  12,C  11,C   9,C   2)    -57.4379         0.012989   
    136. D(C  14,C  11,C   9,H  10)     -0.1114         0.012989   
    137. D(C  14,C  11,C   9,C   2)    179.8552         0.012989   
    138. D(H  13,C  11,C   9,H  10)   -122.8042         0.012989   
    139. D(C  17,C  14,C  11,C   9)   -179.9990         0.010832   
    140. D(C  17,C  14,C  11,H  12)     56.8682         0.010832   
    141. D(H  16,C  14,C  11,H  13)   -179.2307         0.010832   
    142. D(H  16,C  14,C  11,H  12)    -65.4855         0.010832   
    143. D(H  16,C  14,C  11,C   9)     57.6473         0.010832   
    144. D(H  15,C  14,C  11,H  13)     65.4659         0.010832   
    145. D(H  15,C  14,C  11,H  12)    179.2111         0.010832   
    146. D(C  17,C  14,C  11,H  13)    -56.8770         0.010832   
    147. D(H  15,C  14,C  11,C   9)    -57.6561         0.010832   
    148. D(H  34,C  17,C  14,H  16)    -58.0018         0.011161   
    149. D(H  34,C  17,C  14,H  15)     58.0729         0.011161   
    150. D(H  34,C  17,C  14,C  11)   -179.9722         0.011161   
    151. D(H  19,C  17,C  14,H  16)     62.1503         0.011161   
    152. D(H  19,C  17,C  14,H  15)    178.2249         0.011161   
    153. D(H  19,C  17,C  14,C  11)    -59.8202         0.011161   
    154. D(H  18,C  17,C  14,H  16)   -178.1479         0.011161   
    155. D(H  18,C  17,C  14,H  15)    -62.0733         0.011161   
    156. D(H  18,C  17,C  14,C  11)     59.8816         0.011161   
    157. D(C  23,C  20,C   5,C   6)     -0.6068         0.011590   
    158. D(C  23,C  20,C   5,C   4)    179.4546         0.011590   
    159. D(H  22,C  20,C   5,C   6)   -124.3527         0.011590   
    160. D(H  22,C  20,C   5,C   4)     55.7088         0.011590   
    161. D(H  21,C  20,C   5,C   6)    123.1283         0.011590   
    162. D(H  21,C  20,C   5,C   4)    -56.8102         0.011590   
    163. D(H  25,C  23,C  20,H  21)    -64.8370         0.011060   
    164. D(H  25,C  23,C  20,C   5)     58.4684         0.011060   
    165. D(H  24,C  23,C  20,H  22)     65.2830         0.011060   
    166. D(H  24,C  23,C  20,H  21)    178.6642         0.011060   
    167. D(H  24,C  23,C  20,C   5)    -58.0303         0.011060   
    168. D(C  26,C  23,C  20,H  22)    -56.4853         0.011060   
    169. D(C  26,C  23,C  20,H  21)     56.8959         0.011060   
    170. D(C  26,C  23,C  20,C   5)   -179.7987         0.011060   
    171. D(H  25,C  23,C  20,H  22)   -178.2182         0.011060   
    172. D(C  29,C  26,C  23,H  25)    -57.7279         0.010882   
    173. D(C  29,C  26,C  23,C  20)   -179.9661         0.010882   
    174. D(H  28,C  26,C  23,H  25)    179.9247         0.010882   
    175. D(H  28,C  26,C  23,H  24)    -64.5437         0.010882   
    176. D(H  28,C  26,C  23,C  20)     57.6866         0.010882   
    177. D(H  27,C  26,C  23,H  25)     64.6246         0.010882   
    178. D(C  29,C  26,C  23,H  24)     57.8036         0.010882   
    179. D(H  27,C  26,C  23,H  24)   -179.8439         0.010882   
    180. D(H  27,C  26,C  23,C  20)    -57.6136         0.010882   
    181. D(H  35,C  29,C  26,H  28)    -57.8071         0.011096   
    182. D(H  35,C  29,C  26,H  27)     57.9068         0.011096   
    183. D(H  35,C  29,C  26,C  23)   -179.9487         0.011096   
    184. D(H  31,C  29,C  26,H  28)     62.3374         0.011096   
    185. D(H  31,C  29,C  26,H  27)    178.0514         0.011096   
    186. D(H  31,C  29,C  26,C  23)    -59.8042         0.011096   
    187. D(H  30,C  29,C  26,H  28)   -177.9543         0.011096   
    188. D(H  30,C  29,C  26,H  27)    -62.2403         0.011096   
    189. D(H  30,C  29,C  26,C  23)     59.9042         0.011096   
    -----------------------------------------------------------------

Number of atoms                         .... 37
Number of degrees of freedom            .... 189

         *************************************************************
         *                GEOMETRY OPTIMIZATION CYCLE   1            *
         *************************************************************
---------------------------------
CARTESIAN COORDINATES (ANGSTROEM)
---------------------------------
  C     -2.934073   -0.018766   -0.033821
  C      1.296326    0.061617    0.042355
  C      0.590316    1.299012    0.023646
  C     -0.830012    1.218758   -0.002083
  C     -1.498941   -0.010710   -0.008376
  C     -0.774370   -1.238300    0.010896
  C      0.629305   -1.156514    0.035978
  H     -1.426643    2.131592   -0.017243
  H      1.218068   -2.074806    0.050925
  C      1.286599    2.534948    0.031266
  H      2.380846    2.491530    0.052874
  C      0.640774    3.887237    0.012787
  H     -0.012358    3.982869   -0.879700
  H     -0.049610    3.989014    0.876092
  C      1.643397    5.048244    0.030137
  H      2.282865    4.958144    0.927400
  H      2.320748    4.952086   -0.838264
  C      0.972655    6.422996    0.011073
  H      0.314265    6.559972    0.886339
  H      0.351320    6.553366   -0.891860
  C     -1.525236   -2.553953    0.005144
  H     -2.211934   -2.565966    0.872443
  H     -2.196235   -2.567265   -0.874138
  C     -0.682959   -3.832515    0.013733
  H     -0.008492   -3.844031   -0.862466
  H     -0.029866   -3.846912    0.905937
  C     -1.540346   -5.103812    0.002012
  H     -2.217942   -5.093520    0.875899
  H     -2.195918   -5.092106   -0.888500
  C     -0.711165   -6.390340    0.011269
  H     -0.071581   -6.448752    0.909014
  H     -0.048195   -6.446330   -0.869486
  C     -4.149637   -0.020449   -0.056778
  H     -5.221734   -0.017269   -0.080213
  H      1.717399    7.235047    0.023638
  H     -1.353742   -7.285750    0.001613
  H      2.389514    0.078501    0.062394

----------------------------
CARTESIAN COORDINATES (A.U.)
----------------------------
  NO LB      ZA    FRAG     MASS         X           Y           Z
   0 C     6.0000    0    12.011   -5.544595   -0.035462   -0.063912
   1 C     6.0000    0    12.011    2.449702    0.116440    0.080040
   2 C     6.0000    0    12.011    1.115535    2.454777    0.044685
   3 C     6.0000    0    12.011   -1.568496    2.303118   -0.003936
   4 C     6.0000    0    12.011   -2.832588   -0.020239   -0.015828
   5 C     6.0000    0    12.011   -1.463347   -2.340047    0.020591
   6 C     6.0000    0    12.011    1.189213   -2.185496    0.067989
   7 H     1.0000    0     1.008   -2.695965    4.028126   -0.032585
   8 H     1.0000    0     1.008    2.301815   -3.920815    0.096233
   9 C     6.0000    0    12.011    2.431319    4.790357    0.059083
  10 H     1.0000    0     1.008    4.499146    4.708310    0.099917
  11 C     6.0000    0    12.011    1.210887    7.345813    0.024163
  12 H     1.0000    0     1.008   -0.023354    7.526532   -1.662393
  13 H     1.0000    0     1.008   -0.093748    7.538145    1.655575
  14 C     6.0000    0    12.011    3.105570    9.539799    0.056950
  15 H     1.0000    0     1.008    4.313990    9.369534    1.752532
  16 H     1.0000    0     1.008    4.385578    9.358086   -1.584090
  17 C     6.0000    0    12.011    1.838051   12.137704    0.020924
  18 H     1.0000    0     1.008    0.593874   12.396551    1.674939
  19 H     1.0000    0     1.008    0.663899   12.384067   -1.685372
  20 C     6.0000    0    12.011   -2.882279   -4.826272    0.009722
  21 H     1.0000    0     1.008   -4.179950   -4.848972    1.648678
  22 H     1.0000    0     1.008   -4.150282   -4.851428   -1.651882
  23 C     6.0000    0    12.011   -1.290606   -7.242403    0.025952
  24 H     1.0000    0     1.008   -0.016048   -7.264166   -1.629825
  25 H     1.0000    0     1.008   -0.056439   -7.269610    1.711973
  26 C     6.0000    0    12.011   -2.910832   -9.644806    0.003802
  27 H     1.0000    0     1.008   -4.191303   -9.625357    1.655210
  28 H     1.0000    0     1.008   -4.149684   -9.622686   -1.679022
  29 C     6.0000    0    12.011   -1.343908  -12.075992    0.021295
  30 H     1.0000    0     1.008   -0.135268  -12.186376    1.717787
  31 H     1.0000    0     1.008   -0.091074  -12.181798   -1.643091
  32 C     6.0000    0    12.011   -7.841677   -0.038643   -0.107294
  33 H     1.0000    0     1.008   -9.867647   -0.032633   -0.151580
  34 H     1.0000    0     1.008    3.245413   13.672258    0.044669
  35 H     1.0000    0     1.008   -2.558202  -13.768072    0.003049
  36 H     1.0000    0     1.008    4.515527    0.148345    0.117908

--------------------------------
INTERNAL COORDINATES (ANGSTROEM)
--------------------------------
 C      0   0   0     0.000000000000     0.00000000     0.00000000
 C      1   0   0     4.231848939847     0.00000000     0.00000000
 C      2   1   0     1.424762060632    61.37344351     0.00000000
 C      3   2   1     1.422825886963   116.48151840     0.00000000
 C      4   3   2     1.399677359441   121.78305841     0.00000000
 C      5   4   3     1.425605629839   120.89196210     0.00000000
 C      2   1   3     1.388813772745    60.20751446   180.00689524
 H      4   3   2     1.090626055393   119.94276010   179.99792087
 H      7   2   1     1.090928671512   118.62250577   180.00005822
 C      3   2   1     1.418592591911   120.88899395   179.95563514
 H     10   3   2     1.095321098643   117.12389638   359.94844694
 C     10   3   2     1.498705157018   125.06816424   179.98164747
 H     12  10   3     1.110072117945   109.94925009   302.56206846
 H     12  10   3     1.110083212556   109.94621140    57.16239201
 C     12  10   3     1.534109735725   113.64635141   179.85516404
 H     15  12  10     1.105494941857   108.99853322   302.34391275
 H     15  12  10     1.105518470360   109.00932731    57.64727482
 C     15  12  10     1.529771797325   113.16672195   180.00099529
 H     18  15  12     1.103780613789   111.29528058    59.88161723
 H     18  15  12     1.103784895252   111.29386069   300.17982201
 C      6   5   4     1.514852331370   119.72846641   179.92922622
 H     21   6   5     1.106302396969   108.30789276   303.18976293
 H     21   6   5     1.106143653315   108.30943594    55.70878025
 C     21   6   5     1.531085820367   116.90814177   179.45460909
 H     24  21   6     1.105786818929   109.86424906   301.96965616
 H     24  21   6     1.105787266606   109.89547614    58.46843302
 C     24  21   6     1.533442247174   112.62413367   180.20133835
 H     27  24  21     1.105857717831   109.19832109   302.38643287
 H     27  24  21     1.105858913116   109.19832160    57.68661707
 C     27  24  21     1.530614619735   113.19729136   180.03394763
 H     30  27  24     1.103823611824   111.30244500    59.90416299
 H     30  27  24     1.103809094676   111.29589034   300.19584285
 C      1   2   3     1.215781472594   178.98969451     2.58275710
 H     33   1   5     1.072357782986   179.69813644    19.04955831
 H     18  15  12     1.101920293683   111.45587995   180.02775680
 H     30  27  24     1.102160184204   111.52875570   180.05131216
 H      2   1   3     1.093501760516   179.79545470   175.07056308

---------------------------
INTERNAL COORDINATES (A.U.)
---------------------------
 C      0   0   0     0.000000000000     0.00000000     0.00000000
 C      1   0   0     7.997035536435     0.00000000     0.00000000
 C      2   1   0     2.692410100595    61.37344351     0.00000000
 C      3   2   1     2.688751262613   116.48151840     0.00000000
 C      4   3   2     2.645006885193   121.78305841     0.00000000
 C      5   4   3     2.694004215372   120.89196210     0.00000000
 C      2   1   3     2.624477681505    60.20751446   180.00689524
 H      4   3   2     2.060984559211   119.94276010   179.99792087
 H      7   2   1     2.061556420801   118.62250577   180.00005822
 C      3   2   1     2.680751494321   120.88899395   179.95563514
 H     10   3   2     2.069856905141   117.12389638   359.94844694
 C     10   3   2     2.832142302260   125.06816424   179.98164747
 H     12  10   3     2.097732291818   109.94925009   302.56206846
 H     12  10   3     2.097753257595   109.94621140    57.16239201
 C     12  10   3     2.899047259903   113.64635141   179.85516404
 H     15  12  10     2.089082682545   108.99853322   302.34391275
 H     15  12  10     2.089127144972   109.00932731    57.64727482
 C     15  12  10     2.890849744340   113.16672195   180.00099529
 H     18  15  12     2.085843071993   111.29528058    59.88161723
 H     18  15  12     2.085851162785   111.29386069   300.17982201
 C      6   5   4     2.862656039621   119.72846641   179.92922622
 H     21   6   5     2.090608551572   108.30789276   303.18976293
 H     21   6   5     2.090308569541   108.30943594    55.70878025
 C     21   6   5     2.893332888024   116.90814177   179.45460909
 H     24  21   6     2.089634250275   109.86424906   301.96965616
 H     24  21   6     2.089635096263   109.89547614    58.46843302
 C     24  21   6     2.897785889343   112.62413367   180.20133835
 H     27  24  21     2.089768229784   109.19832109   302.38643287
 H     27  24  21     2.089770488544   109.19832160    57.68661707
 C     27  24  21     2.892442447875   113.19729136   180.03394763
 H     30  27  24     2.085924326504   111.30244500    59.90416299
 H     30  27  24     2.085896893069   111.29589034   300.19584285
 C      1   2   3     2.297494021899   178.98969451     2.58275710
 H     33   1   5     2.026462527422   179.69813644    19.04955831
 H     18  15  12     2.082327576472   111.45587995   180.02775680
 H     30  27  24     2.082780903857   111.52875570   180.05131216
 H      2   1   3     2.066418854336   179.79545470   175.07056308

---------------------
BASIS SET INFORMATION
---------------------
There are 2 groups of distinct atoms

 Group   1 Type C   : 10s5p1d contracted to 6s2p1d pattern {511111/41/1}
 Group   2 Type H   : 6s1p contracted to 4s1p pattern {3111/1}

Atom   0C    basis set group =>   1
Atom   1C    basis set group =>   1
Atom   2C    basis set group =>   1
Atom   3C    basis set group =>   1
Atom   4C    basis set group =>   1
Atom   5C    basis set group =>   1
Atom   6C    basis set group =>   1
Atom   7H    basis set group =>   2
Atom   8H    basis set group =>   2
Atom   9C    basis set group =>   1
Atom  10H    basis set group =>   2
Atom  11C    basis set group =>   1
Atom  12H    basis set group =>   2
Atom  13H    basis set group =>   2
Atom  14C    basis set group =>   1
Atom  15H    basis set group =>   2
Atom  16H    basis set group =>   2
Atom  17C    basis set group =>   1
Atom  18H    basis set group =>   2
Atom  19H    basis set group =>   2
Atom  20C    basis set group =>   1
Atom  21H    basis set group =>   2
Atom  22H    basis set group =>   2
Atom  23C    basis set group =>   1
Atom  24H    basis set group =>   2
Atom  25H    basis set group =>   2
Atom  26C    basis set group =>   1
Atom  27H    basis set group =>   2
Atom  28H    basis set group =>   2
Atom  29C    basis set group =>   1
Atom  30H    basis set group =>   2
Atom  31H    basis set group =>   2
Atom  32C    basis set group =>   1
Atom  33H    basis set group =>   2
Atom  34H    basis set group =>   2
Atom  35H    basis set group =>   2
Atom  36H    basis set group =>   2
---------------------------------
AUXILIARY/J BASIS SET INFORMATION
---------------------------------
There are 2 groups of distinct atoms

 Group   1 Type C   : 12s5p4d2f1g contracted to 6s4p3d1f1g pattern {711111/2111/211/2/1}
 Group   2 Type H   : 5s2p1d contracted to 3s1p1d pattern {311/2/1}

Atom   0C    basis set group =>   1
Atom   1C    basis set group =>   1
Atom   2C    basis set group =>   1
Atom   3C    basis set group =>   1
Atom   4C    basis set group =>   1
Atom   5C    basis set group =>   1
Atom   6C    basis set group =>   1
Atom   7H    basis set group =>   2
Atom   8H    basis set group =>   2
Atom   9C    basis set group =>   1
Atom  10H    basis set group =>   2
Atom  11C    basis set group =>   1
Atom  12H    basis set group =>   2
Atom  13H    basis set group =>   2
Atom  14C    basis set group =>   1
Atom  15H    basis set group =>   2
Atom  16H    basis set group =>   2
Atom  17C    basis set group =>   1
Atom  18H    basis set group =>   2
Atom  19H    basis set group =>   2
Atom  20C    basis set group =>   1
Atom  21H    basis set group =>   2
Atom  22H    basis set group =>   2
Atom  23C    basis set group =>   1
Atom  24H    basis set group =>   2
Atom  25H    basis set group =>   2
Atom  26C    basis set group =>   1
Atom  27H    basis set group =>   2
Atom  28H    basis set group =>   2
Atom  29C    basis set group =>   1
Atom  30H    basis set group =>   2
Atom  31H    basis set group =>   2
Atom  32C    basis set group =>   1
Atom  33H    basis set group =>   2
Atom  34H    basis set group =>   2
Atom  35H    basis set group =>   2
Atom  36H    basis set group =>   2


           ************************************************************
           *        Program running with 16 parallel MPI-processes    *
           *              working on a common directory               *
           ************************************************************
------------------------------------------------------------------------------
                           ORCA GTO INTEGRAL CALCULATION
                           -- RI-GTO INTEGRALS CHOSEN --
------------------------------------------------------------------------------
------------------------------------------------------------------------------
                   ___                                                        
                  /   \      - P O W E R E D   B Y -                         
                 /     \                                                     
                 |  |  |   _    _      __       _____    __    __             
                 |  |  |  | |  | |    /  \     |  _  \  |  |  /  |          
                  \  \/   | |  | |   /    \    | | | |  |  | /  /          
                 / \  \   | |__| |  /  /\  \   | |_| |  |  |/  /          
                |  |  |   |  __  | /  /__\  \  |    /   |      \           
                |  |  |   | |  | | |   __   |  |    \   |  |\   \          
                \     /   | |  | | |  |  |  |  | |\  \  |  | \   \       
                 \___/    |_|  |_| |__|  |__|  |_| \__\ |__|  \__/        
                                                                              
                      - O R C A' S   B I G   F R I E N D -                    
                                      &                                       
                       - I N T E G R A L  F E E D E R -                       
                                                                              
 v1 FN, 2020, v2 2021                                                         
------------------------------------------------------------------------------


Reading SHARK input file opt_EPRII.SHARKINP.tmp ... ok
----------------------
SHARK INTEGRAL PACKAGE
----------------------

Number of atoms                             ...     37
Number of basis functions                   ...    419
Number of shells                            ...    249
Maximum angular momentum                    ...      2
Integral batch strategy                     ... SHARK/LIBINT Hybrid
RI-J (if used) integral strategy            ... SPLIT-RIJ (Revised 2003 algorithm where possible)
Printlevel                                  ...      1
Contraction scheme used                     ... SEGMENTED contraction
Coulomb Range Separation                    ... NOT USED
Exchange Range Separation                   ... NOT USED
Finite Nucleus Model                        ... NOT USED
Auxiliary Coulomb fitting basis             ... AVAILABLE
   # of basis functions in Aux-J            ...   1015
   # of shells in Aux-J                     ...    345
   Maximum angular momentum in Aux-J        ...      4
Auxiliary J/K fitting basis                 ... NOT available
Auxiliary Correlation fitting basis         ... NOT available
Auxiliary 'external' fitting basis          ... NOT available
Integral threshold                          ...     2.500000e-11
Primitive cut-off                           ...     2.500000e-12
Primitive pair pre-selection threshold      ...     2.500000e-12

Calculating pre-screening integrals         ... done (  0.0 sec) Dimension = 249
Organizing shell pair data                  ... done (  0.1 sec)
Shell pair information
Total number of shell pairs                 ...     31125
Shell pairs after pre-screening             ...     18304
Total number of primitive shell pairs       ...     81725
Primitive shell pairs kept                  ...     35030
          la=0 lb=0:   8500 shell pairs
          la=1 lb=0:   6277 shell pairs
          la=1 lb=1:   1085 shell pairs
          la=2 lb=0:   1726 shell pairs
          la=2 lb=1:    617 shell pairs
          la=2 lb=2:     99 shell pairs

Calculating one electron integrals          ... done (  0.0 sec)
Calculating RI/J V-Matrix + Cholesky decomp.... done (  0.3 sec)
Calculating Nuclear repulsion               ... done (  0.0 sec) ENN=    969.243257158093 Eh

SHARK setup successfully completed in   1.0 seconds

Maximum memory used throughout the entire GTOINT-calculation: 26.2 MB


           ************************************************************
           *        Program running with 16 parallel MPI-processes    *
           *              working on a common directory               *
           ************************************************************
-------------------------------------------------------------------------------
                                 ORCA SCF
-------------------------------------------------------------------------------

------------
SCF SETTINGS
------------
Hamiltonian:
 Density Functional     Method          .... DFT(GTOs)
 Exchange Functional    Exchange        .... B88
   X-Alpha parameter    XAlpha          ....  0.666667
   Becke's b parameter  XBeta           ....  0.004200
 Correlation Functional Correlation     .... LYP
 LDA part of GGA corr.  LDAOpt          .... VWN-5
 Gradients option       PostSCFGGA      .... off
 Hybrid DFT is turned on
   Fraction HF Exchange ScalHFX         ....  0.200000
   Scaling of DF-GGA-X  ScalDFX         ....  0.720000
   Scaling of DF-GGA-C  ScalDFC         ....  0.810000
   Scaling of DF-LDA-C  ScalLDAC        ....  1.000000
   Perturbative correction              ....  0.000000
   Density functional embedding theory  .... OFF
   NL short-range parameter             ....  4.800000
 RI-approximation to the Coulomb term is turned on
   Number of AuxJ basis functions       .... 1015
   RIJ-COSX (HFX calculated with COS-X)).... on


General Settings:
 Integral files         IntName         .... opt_EPRII
 Hartree-Fock type      HFTyp           .... UHF
 Total Charge           Charge          ....    0
 Multiplicity           Mult            ....    2
 Number of Electrons    NEL             ....  117
 Basis Dimension        Dim             ....  419
 Nuclear Repulsion      ENuc            ....    969.2432571581 Eh

Convergence Acceleration:
 DIIS                   CNVDIIS         .... on
   Start iteration      DIISMaxIt       ....    12
   Startup error        DIISStart       ....  0.200000
   # of expansion vecs  DIISMaxEq       ....     5
   Bias factor          DIISBfac        ....   1.050
   Max. coefficient     DIISMaxC        ....  10.000
 Trust-Rad. Augm. Hess. CNVTRAH         .... auto
   Auto Start mean grad. ratio tolernc. ....  1.125000
   Auto Start start iteration           ....    20
   Auto Start num. interpolation iter.  ....    10
   Max. Number of Micro iterations      ....    16
   Max. Number of Macro iterations      .... Maxiter - #DIIS iter
   Number of Davidson start vectors     ....     2
   Converg. threshold I  (grad. norm)   ....   1.000e-05
   Converg. threshold II (energy diff.) ....   1.000e-08
   Grad. Scal. Fac. for Micro threshold ....   0.100
   Minimum threshold for Micro iter.    ....   0.010
   NR start threshold (gradient norm)   ....   0.001
   Initial trust radius                 ....   0.400
   Minimum AH scaling param. (alpha)    ....   1.000
   Maximum AH scaling param. (alpha)    .... 1000.000
   Orbital update algorithm             .... Taylor
   White noise on init. David. guess    .... on
   Maximum white noise                  ....   0.010
   Quad. conv. algorithm                .... NR
 SOSCF                  CNVSOSCF        .... off
 Level Shifting         CNVShift        .... on
   Level shift para.    LevelShift      ....    0.2500
   Turn off err/grad.   ShiftErr        ....    0.0010
 Zerner damping         CNVZerner       .... off
 Static damping         CNVDamp         .... on
   Fraction old density DampFac         ....    0.7000
   Max. Damping (<1)    DampMax         ....    0.9800
   Min. Damping (>=0)   DampMin         ....    0.0000
   Turn off err/grad.   DampErr         ....    0.1000
 Fernandez-Rico         CNVRico         .... off

SCF Procedure:
 Maximum # iterations   MaxIter         ....   125
 SCF integral mode      SCFMode         .... Direct
   Integral package                     .... SHARK and LIBINT hybrid scheme
 Reset frequency        DirectResetFreq ....    20
 Integral Threshold     Thresh          ....  2.500e-11 Eh
 Primitive CutOff       TCut            ....  2.500e-12 Eh

Convergence Tolerance:
 Convergence Check Mode ConvCheckMode   .... Total+1el-Energy
 Convergence forced     ConvForced      .... 0
 Energy Change          TolE            ....  1.000e-08 Eh
 1-El. energy change                    ....  1.000e-05 Eh
 DIIS Error             TolErr          ....  5.000e-07


Diagonalization of the overlap matrix:
Smallest eigenvalue                        ... 1.622e-04
Time for diagonalization                   ...    0.052 sec
Threshold for overlap eigenvalues          ... 1.000e-08
Number of eigenvalues below threshold      ... 0
Time for construction of square roots      ...    0.035 sec
Total time needed                          ...    0.088 sec

Time for model grid setup =    0.256 sec

------------------------------
INITIAL GUESS: MODEL POTENTIAL
------------------------------
Loading Hartree-Fock densities                     ... done
Calculating cut-offs                               ... done
Initializing the effective Hamiltonian             ... done
Setting up the integral package (SHARK)            ... done
Starting the Coulomb interaction                   ... done (   0.3 sec)
Reading the grid                                   ... done
Mapping shells                                     ... done
Starting the XC term evaluation                    ... done (   0.1 sec)
  promolecular density results
     # of electrons  =    116.988152573
     EX              =    -88.402512565
     EC              =     -3.812504786
     EX+EC           =    -92.215017351
Transforming the Hamiltonian                       ... done (   0.0 sec)
Diagonalizing the Hamiltonian                      ... done (   0.0 sec)
Back transforming the eigenvectors                 ... done (   0.0 sec)
Now organizing SCF variables                       ... done
                      ------------------
                      INITIAL GUESS DONE (   0.8 sec)
                      ------------------
-------------------
DFT GRID GENERATION
-------------------

General Integration Accuracy     IntAcc      ... 4.388
Radial Grid Type                 RadialGrid  ... OptM3 with GC (2021)
Angular Grid (max. ang.)         AngularGrid ... 4 (Lebedev-302)
Angular grid pruning method      GridPruning ... 4 (adaptive)
Weight generation scheme         WeightScheme... Becke
Basis function cutoff            BFCut       ... 1.0000e-11
Integration weight cutoff        WCut        ... 1.0000e-14
Angular grids for H and He will be reduced by one unit
Partially contracted basis set               ... off
Rotationally invariant grid construction     ... off

Total number of grid points                  ...   162768
Total number of batches                      ...     2562
Average number of points per batch           ...       63
Average number of grid points per atom       ...     4399
Time for grid setup =    0.819 sec

--------------------
COSX GRID GENERATION
--------------------

GRIDX 1
-------
General Integration Accuracy     IntAcc      ... 3.816
Radial Grid Type                 RadialGrid  ... OptM3 with GC (2021)
Angular Grid (max. ang.)         AngularGrid ... 1 (Lebedev-50)
Angular grid pruning method      GridPruning ... 4 (adaptive)
Weight generation scheme         WeightScheme... Becke
Basis function cutoff            BFCut       ... 1.0000e-11
Integration weight cutoff        WCut        ... 1.0000e-14
Angular grids for H and He will be reduced by one unit
Partially contracted basis set               ... on
Rotationally invariant grid construction     ... off

Total number of grid points                  ...    20778
Total number of batches                      ...      346
Average number of points per batch           ...       60
Average number of grid points per atom       ...      562
UseSFitting                                  ... on

GRIDX 2
-------
General Integration Accuracy     IntAcc      ... 4.020
Radial Grid Type                 RadialGrid  ... OptM3 with GC (2021)
Angular Grid (max. ang.)         AngularGrid ... 2 (Lebedev-110)
Angular grid pruning method      GridPruning ... 4 (adaptive)
Weight generation scheme         WeightScheme... Becke
Basis function cutoff            BFCut       ... 1.0000e-11
Integration weight cutoff        WCut        ... 1.0000e-14
Angular grids for H and He will be reduced by one unit
Partially contracted basis set               ... on
Rotationally invariant grid construction     ... off

Total number of grid points                  ...    43896
Total number of batches                      ...      706
Average number of points per batch           ...       62
Average number of grid points per atom       ...     1186
UseSFitting                                  ... on

GRIDX 3
-------
General Integration Accuracy     IntAcc      ... 4.338
Radial Grid Type                 RadialGrid  ... OptM3 with GC (2021)
Angular Grid (max. ang.)         AngularGrid ... 3 (Lebedev-194)
Angular grid pruning method      GridPruning ... 4 (adaptive)
Weight generation scheme         WeightScheme... Becke
Basis function cutoff            BFCut       ... 1.0000e-11
Integration weight cutoff        WCut        ... 1.0000e-14
Angular grids for H and He will be reduced by one unit
Partially contracted basis set               ... on
Rotationally invariant grid construction     ... off

Total number of grid points                  ...    95920
Total number of batches                      ...     1518
Average number of points per batch           ...       63
Average number of grid points per atom       ...     2592
UseSFitting                                  ... on

Time for X-Grid setup             =    1.666 sec

--------------
SCF ITERATIONS
--------------
ITER       Energy         Delta-E        Max-DP      RMS-DP      [F,P]     Damp
               ***  Starting incremental Fock matrix formation  ***
  0   -621.5073008727   0.000000000000 0.04585787  0.00082588  0.0796690 0.7000
  1   -621.6917448631  -0.184443990427 0.03153855  0.00062430  0.0426905 0.7000
                               ***Turning on DIIS***
  2   -621.7734795979  -0.081734734810 0.10784517  0.00128701  0.0166018 0.0000
  3   -621.8867433295  -0.113263731587 0.02451670  0.00037087  0.0233731 0.0000
  4   -621.9194223565  -0.032679027053 0.02724647  0.00018786  0.0054282 0.0000
  5   -621.9210252770  -0.001602920482 0.01517467  0.00009249  0.0033996 0.0000
  6   -621.9212825901  -0.000257313043 0.00566608  0.00003993  0.0018990 0.0000
  7   -621.9213778209  -0.000095230862 0.00260974  0.00002164  0.0014377 0.0000
  8   -621.9214254724  -0.000047651489 0.00319986  0.00002542  0.0008720 0.0000
               *** Restarting incremental Fock matrix formation ***
                                   *** Resetting DIIS ***
  9   -621.9217510518  -0.000325579346 0.00245773  0.00001890  0.0006759 0.0000
 10   -621.9217479963   0.000003055492 0.00056648  0.00000403  0.0013461 0.0000
 11   -621.9217570653  -0.000009068980 0.00054074  0.00000373  0.0004813 0.0000
 12   -621.9217592163  -0.000002151049 0.00065743  0.00000416  0.0001545 0.0000
 13   -621.9217603485  -0.000001132214 0.00025992  0.00000149  0.0000812 0.0000
 14   -621.9217605232  -0.000000174709 0.00016740  0.00000111  0.0000614 0.0000
 15   -621.9217605996  -0.000000076403 0.00004869  0.00000035  0.0000151 0.0000
 16   -621.9217606037  -0.000000004100 0.00002499  0.00000022  0.0000108 0.0000
 17   -621.9217606087  -0.000000005007 0.00002223  0.00000016  0.0000094 0.0000
 18   -621.9217606054   0.000000003375 0.00001034  0.00000008  0.0000095 0.0000
                 **** Energy Check signals convergence ****

               *****************************************************
               *                     SUCCESS                       *
               *           SCF CONVERGED AFTER  19 CYCLES          *
               *****************************************************

Old exchange energy                            =    -18.048260674 Eh
New exchange energy                            =    -18.048230253 Eh
Exchange energy change after final integration =      0.000030421 Eh
Total energy after final integration           =   -621.921730192 Eh
Final COS-X integration done in                =     4.864 sec

----------------
TOTAL SCF ENERGY
----------------

Total Energy       :         -621.92173019 Eh          -16923.35065 eV

Components:
Nuclear Repulsion  :          969.24325716 Eh           26374.44988 eV
Electronic Energy  :        -1591.16498735 Eh          -43297.80052 eV
One Electron Energy:        -2760.72456784 Eh          -75123.13468 eV
Two Electron Energy:         1169.55958049 Eh           31825.33415 eV
Max COSX asymmetry :            0.00000260 Eh               0.00007 eV

Virial components:
Potential Energy   :        -1238.87537198 Eh          -33711.51273 eV
Kinetic Energy     :          616.95364179 Eh           16788.16209 eV
Virial Ratio       :            2.00805261


DFT components:
N(Alpha)           :       59.000075568865 electrons
N(Beta)            :       58.000065634470 electrons
N(Total)           :      117.000141203334 electrons
E(X)               :      -71.559100784217 Eh       
E(C)               :       -4.509117369234 Eh       
E(XC)              :      -76.068218153451 Eh       
DFET-embed. en.    :        0.000000000000 Eh       

---------------
SCF CONVERGENCE
---------------

  Last Energy change         ...   -8.2475e-09  Tolerance :   1.0000e-08
  Last MAX-Density change    ...    0.0000e+00  Tolerance :   1.0000e-07
  Last RMS-Density change    ...    0.0000e+00  Tolerance :   5.0000e-09
  Last DIIS Error            ...    2.5379e-06  Tolerance :   5.0000e-07

             **** THE GBW FILE WAS UPDATED (opt_EPRII.gbw) ****
             **** DENSITY opt_EPRII.scfp WAS UPDATED ****
             **** ENERGY FILE WAS UPDATED (opt_EPRII.en.tmp) ****
----------------------
UHF SPIN CONTAMINATION
----------------------

Warning: in a DFT calculation there is little theoretical justification to 
         calculate <S**2> as in Hartree-Fock theory. We will do it anyways
         but you should keep in mind that the values have only limited relevance

Expectation value of <S**2>     :     0.781594
Ideal value S*(S+1) for S=0.5   :     0.750000
Deviation                       :     0.031594

             **** THE GBW FILE WAS UPDATED (opt_EPRII.gbw) ****
             **** DENSITY opt_EPRII.scfp WAS UPDATED ****
----------------
ORBITAL ENERGIES
----------------
                 SPIN UP ORBITALS
  NO   OCC          E(Eh)            E(eV) 
   0   1.0000     -10.217632      -278.0359 
   1   1.0000     -10.208383      -277.7842 
   2   1.0000     -10.202505      -277.6243 
   3   1.0000     -10.202227      -277.6167 
   4   1.0000     -10.197808      -277.4965 
   5   1.0000     -10.196922      -277.4724 
   6   1.0000     -10.196655      -277.4651 
   7   1.0000     -10.193219      -277.3716 
   8   1.0000     -10.191459      -277.3237 
   9   1.0000     -10.188572      -277.2451 
  10   1.0000     -10.185193      -277.1532 
  11   1.0000     -10.184938      -277.1462 
  12   1.0000     -10.181290      -277.0470 
  13   1.0000     -10.181059      -277.0407 
  14   1.0000     -10.174779      -276.8698 
  15   1.0000     -10.172555      -276.8093 
  16   1.0000      -0.865259       -23.5449 
  17   1.0000      -0.813125       -22.1263 
  18   1.0000      -0.792908       -21.5761 
  19   1.0000      -0.779954       -21.2236 
  20   1.0000      -0.762671       -20.7533 
  21   1.0000      -0.729098       -19.8398 
  22   1.0000      -0.724732       -19.7210 
  23   1.0000      -0.694890       -18.9089 
  24   1.0000      -0.652472       -17.7547 
  25   1.0000      -0.622835       -16.9482 
  26   1.0000      -0.611910       -16.6509 
  27   1.0000      -0.587884       -15.9971 
  28   1.0000      -0.577962       -15.7271 
  29   1.0000      -0.558952       -15.2099 
  30   1.0000      -0.527171       -14.3451 
  31   1.0000      -0.495199       -13.4751 
  32   1.0000      -0.472287       -12.8516 
  33   1.0000      -0.468691       -12.7537 
  34   1.0000      -0.462409       -12.5828 
  35   1.0000      -0.461588       -12.5605 
  36   1.0000      -0.427848       -11.6423 
  37   1.0000      -0.425999       -11.5920 
  38   1.0000      -0.422100       -11.4859 
  39   1.0000      -0.419206       -11.4072 
  40   1.0000      -0.409700       -11.1485 
  41   1.0000      -0.395266       -10.7557 
  42   1.0000      -0.386956       -10.5296 
  43   1.0000      -0.375157       -10.2085 
  44   1.0000      -0.374231       -10.1834 
  45   1.0000      -0.362099        -9.8532 
  46   1.0000      -0.347860        -9.4657 
  47   1.0000      -0.347421        -9.4538 
  48   1.0000      -0.337342        -9.1795 
  49   1.0000      -0.330668        -8.9979 
  50   1.0000      -0.330291        -8.9877 
  51   1.0000      -0.324205        -8.8221 
  52   1.0000      -0.321744        -8.7551 
  53   1.0000      -0.320309        -8.7161 
  54   1.0000      -0.308688        -8.3998 
  55   1.0000      -0.273771        -7.4497 
  56   1.0000      -0.267831        -7.2880 
  57   1.0000      -0.237445        -6.4612 
  58   1.0000      -0.171318        -4.6618 
  59   0.0000      -0.034375        -0.9354 
  60   0.0000       0.012919         0.3515 
  61   0.0000       0.020915         0.5691 
  62   0.0000       0.022989         0.6256 
  63   0.0000       0.027160         0.7391 
  64   0.0000       0.031448         0.8557 
  65   0.0000       0.037391         1.0175 
  66   0.0000       0.042605         1.1593 
  67   0.0000       0.047801         1.3007 
  68   0.0000       0.050661         1.3785 
  69   0.0000       0.061043         1.6611 
  70   0.0000       0.076083         2.0703 
  71   0.0000       0.086065         2.3420 
  72   0.0000       0.086478         2.3532 
  73   0.0000       0.096043         2.6135 
  74   0.0000       0.103888         2.8269 
  75   0.0000       0.120959         3.2915 
  76   0.0000       0.134882         3.6703 
  77   0.0000       0.152981         4.1628 
  78   0.0000       0.153325         4.1722 
  79   0.0000       0.161586         4.3970 
  80   0.0000       0.170421         4.6374 
  81   0.0000       0.177421         4.8279 
  82   0.0000       0.180551         4.9130 
  83   0.0000       0.186527         5.0756 
  84   0.0000       0.191850         5.2205 
  85   0.0000       0.199213         5.4209 
  86   0.0000       0.199288         5.4229 
  87   0.0000       0.199730         5.4349 
  88   0.0000       0.201537         5.4841 
  89   0.0000       0.204334         5.5602 
  90   0.0000       0.208758         5.6806 
  91   0.0000       0.216863         5.9011 
  92   0.0000       0.223537         6.0828 
  93   0.0000       0.234076         6.3695 
  94   0.0000       0.241755         6.5785 
  95   0.0000       0.244387         6.6501 
  96   0.0000       0.248431         6.7601 
  97   0.0000       0.254472         6.9245 
  98   0.0000       0.257912         7.0181 
  99   0.0000       0.264389         7.1944 
 100   0.0000       0.267088         7.2678 
 101   0.0000       0.274524         7.4702 
 102   0.0000       0.282195         7.6789 
 103   0.0000       0.282654         7.6914 
 104   0.0000       0.287551         7.8247 
 105   0.0000       0.288294         7.8449 
 106   0.0000       0.298603         8.1254 
 107   0.0000       0.301408         8.2017 
 108   0.0000       0.302372         8.2280 
 109   0.0000       0.307808         8.3759 
 110   0.0000       0.309783         8.4296 
 111   0.0000       0.317063         8.6277 
 112   0.0000       0.317899         8.6505 
 113   0.0000       0.330273         8.9872 
 114   0.0000       0.333704         9.0805 
 115   0.0000       0.337445         9.1824 
 116   0.0000       0.343419         9.3449 
 117   0.0000       0.343826         9.3560 
 118   0.0000       0.355413         9.6713 
 119   0.0000       0.358219         9.7476 
 120   0.0000       0.360948         9.8219 
 121   0.0000       0.365927         9.9574 
 122   0.0000       0.371568        10.1109 
 123   0.0000       0.375936        10.2297 
 124   0.0000       0.392915        10.6918 
 125   0.0000       0.394300        10.7295 
 126   0.0000       0.398382        10.8405 
 127   0.0000       0.408640        11.1196 
 128   0.0000       0.414922        11.2906 
 129   0.0000       0.417159        11.3515 
 130   0.0000       0.426540        11.6067 
 131   0.0000       0.433728        11.8023 
 132   0.0000       0.438413        11.9298 
 133   0.0000       0.453957        12.3528 
 134   0.0000       0.454914        12.3789 
 135   0.0000       0.465311        12.6618 
 136   0.0000       0.473722        12.8906 
 137   0.0000       0.481349        13.0982 
 138   0.0000       0.486981        13.2514 
 139   0.0000       0.496802        13.5187 
 140   0.0000       0.504263        13.7217 
 141   0.0000       0.504658        13.7324 
 142   0.0000       0.513036        13.9604 
 143   0.0000       0.523598        14.2478 
 144   0.0000       0.534932        14.5562 
 145   0.0000       0.540954        14.7201 
 146   0.0000       0.548306        14.9202 
 147   0.0000       0.556059        15.1311 
 148   0.0000       0.559805        15.2331 
 149   0.0000       0.570973        15.5370 
 150   0.0000       0.577838        15.7238 
 151   0.0000       0.578949        15.7540 
 152   0.0000       0.602534        16.3958 
 153   0.0000       0.615620        16.7519 
 154   0.0000       0.617468        16.8022 
 155   0.0000       0.638879        17.3848 
 156   0.0000       0.659745        17.9526 
 157   0.0000       0.681653        18.5487 
 158   0.0000       0.706716        19.2307 
 159   0.0000       0.730142        19.8682 
 160   0.0000       0.743057        20.2196 
 161   0.0000       0.760375        20.6908 
 162   0.0000       0.769611        20.9422 
 163   0.0000       0.783373        21.3167 
 164   0.0000       0.790449        21.5092 
 165   0.0000       0.812294        22.1036 
 166   0.0000       0.820996        22.3404 
 167   0.0000       0.838939        22.8287 
 168   0.0000       0.842149        22.9161 
 169   0.0000       0.852346        23.1935 
 170   0.0000       0.857804        23.3420 
 171   0.0000       0.865246        23.5445 
 172   0.0000       0.871325        23.7100 
 173   0.0000       0.875808        23.8319 
 174   0.0000       0.886864        24.1328 
 175   0.0000       0.894577        24.3427 
 176   0.0000       0.904383        24.6095 
 177   0.0000       0.909145        24.7391 
 178   0.0000       0.915767        24.9193 
 179   0.0000       0.924078        25.1454 
 180   0.0000       0.929184        25.2844 
 181   0.0000       0.933377        25.3985 
 182   0.0000       0.934738        25.4355 
 183   0.0000       0.939356        25.5612 
 184   0.0000       0.954607        25.9762 
 185   0.0000       0.962488        26.1906 
 186   0.0000       0.963624        26.2215 
 187   0.0000       0.968954        26.3666 
 188   0.0000       0.977498        26.5991 
 189   0.0000       0.989049        26.9134 
 190   0.0000       0.990107        26.9422 
 191   0.0000       0.993429        27.0326 
 192   0.0000       1.004943        27.3459 
 193   0.0000       1.024121        27.8677 
 194   0.0000       1.024428        27.8761 
 195   0.0000       1.031629        28.0720 
 196   0.0000       1.045257        28.4429 
 197   0.0000       1.051586        28.6151 
 198   0.0000       1.055057        28.7096 
 199   0.0000       1.059837        28.8396 
 200   0.0000       1.079072        29.3631 
 201   0.0000       1.084777        29.5183 
 202   0.0000       1.100058        29.9341 
 203   0.0000       1.109285        30.1852 
 204   0.0000       1.120587        30.4927 
 205   0.0000       1.135911        30.9097 
 206   0.0000       1.136721        30.9318 
 207   0.0000       1.168880        31.8068 
 208   0.0000       1.173391        31.9296 
 209   0.0000       1.178097        32.0577 
 210   0.0000       1.187346        32.3093 
 211   0.0000       1.188190        32.3323 
 212   0.0000       1.203201        32.7408 
 213   0.0000       1.205390        32.8003 
 214   0.0000       1.220771        33.2189 
 215   0.0000       1.237607        33.6770 
 216   0.0000       1.249489        34.0003 
 217   0.0000       1.257330        34.2137 
 218   0.0000       1.261447        34.3257 
 219   0.0000       1.277051        34.7503 
 220   0.0000       1.280275        34.8380 
 221   0.0000       1.300371        35.3849 
 222   0.0000       1.308263        35.5997 
 223   0.0000       1.322248        35.9802 
 224   0.0000       1.335586        36.3431 
 225   0.0000       1.349433        36.7199 
 226   0.0000       1.354041        36.8453 
 227   0.0000       1.371135        37.3105 
 228   0.0000       1.375578        37.4314 
 229   0.0000       1.405351        38.2415 
 230   0.0000       1.418594        38.6019 
 231   0.0000       1.427279        38.8382 
 232   0.0000       1.428850        38.8810 
 233   0.0000       1.435059        39.0499 
 234   0.0000       1.437226        39.1089 
 235   0.0000       1.444765        39.3140 
 236   0.0000       1.460147        39.7326 
 237   0.0000       1.462410        39.7942 
 238   0.0000       1.481211        40.3058 
 239   0.0000       1.506458        40.9928 
 240   0.0000       1.514422        41.2095 
 241   0.0000       1.519370        41.3442 
 242   0.0000       1.523398        41.4538 
 243   0.0000       1.541496        41.9462 
 244   0.0000       1.551447        42.2170 
 245   0.0000       1.560239        42.4563 
 246   0.0000       1.562031        42.5050 
 247   0.0000       1.563659        42.5493 
 248   0.0000       1.580064        42.9957 
 249   0.0000       1.585624        43.1470 
 250   0.0000       1.593094        43.3503 
 251   0.0000       1.599412        43.5222 
 252   0.0000       1.600679        43.5567 
 253   0.0000       1.605439        43.6862 
 254   0.0000       1.624995        44.2184 
 255   0.0000       1.632775        44.4301 
 256   0.0000       1.645088        44.7651 
 257   0.0000       1.653895        45.0048 
 258   0.0000       1.654987        45.0345 
 259   0.0000       1.668178        45.3934 
 260   0.0000       1.682376        45.7798 
 261   0.0000       1.690588        46.0032 
 262   0.0000       1.694467        46.1088 
 263   0.0000       1.702432        46.3255 
 264   0.0000       1.704362        46.3781 
 265   0.0000       1.712897        46.6103 
 266   0.0000       1.724052        46.9138 
 267   0.0000       1.742781        47.4235 
 268   0.0000       1.744564        47.4720 
 269   0.0000       1.749905        47.6173 
 270   0.0000       1.770662        48.1822 
 271   0.0000       1.773585        48.2617 
 272   0.0000       1.778469        48.3946 
 273   0.0000       1.791083        48.7378 
 274   0.0000       1.791358        48.7453 
 275   0.0000       1.802489        49.0482 
 276   0.0000       1.806000        49.1437 
 277   0.0000       1.814412        49.3727 
 278   0.0000       1.825465        49.6734 
 279   0.0000       1.835555        49.9480 
 280   0.0000       1.860117        50.6164 
 281   0.0000       1.912721        52.0478 
 282   0.0000       1.915040        52.1109 
 283   0.0000       1.929392        52.5014 
 284   0.0000       1.932576        52.5881 
 285   0.0000       1.938887        52.7598 
 286   0.0000       1.951801        53.1112 
 287   0.0000       1.952727        53.1364 
 288   0.0000       1.987312        54.0775 
 289   0.0000       2.015748        54.8513 
 290   0.0000       2.035877        55.3990 
 291   0.0000       2.046695        55.6934 
 292   0.0000       2.048879        55.7528 
 293   0.0000       2.075244        56.4703 
 294   0.0000       2.103064        57.2273 
 295   0.0000       2.106158        57.3115 
 296   0.0000       2.126209        57.8571 
 297   0.0000       2.126962        57.8776 
 298   0.0000       2.162925        58.8562 
 299   0.0000       2.177728        59.2590 
 300   0.0000       2.187054        59.5128 
 301   0.0000       2.188915        59.5634 
 302   0.0000       2.190821        59.6153 
 303   0.0000       2.234871        60.8139 
 304   0.0000       2.240579        60.9693 
 305   0.0000       2.241646        60.9983 
 306   0.0000       2.254525        61.3487 
 307   0.0000       2.259203        61.4760 
 308   0.0000       2.268625        61.7324 
 309   0.0000       2.304462        62.7076 
 310   0.0000       2.306660        62.7674 
 311   0.0000       2.316688        63.0403 
 312   0.0000       2.323880        63.2360 
 313   0.0000       2.325286        63.2742 
 314   0.0000       2.354885        64.0797 
 315   0.0000       2.366674        64.4005 
 316   0.0000       2.385582        64.9150 
 317   0.0000       2.412772        65.6549 
 318   0.0000       2.413871        65.6848 
 319   0.0000       2.430835        66.1464 
 320   0.0000       2.449931        66.6660 
 321   0.0000       2.453397        66.7603 
 322   0.0000       2.460390        66.9506 
 323   0.0000       2.474866        67.3445 
 324   0.0000       2.481132        67.5150 
 325   0.0000       2.488385        67.7124 
 326   0.0000       2.509947        68.2991 
 327   0.0000       2.520038        68.5737 
 328   0.0000       2.536132        69.0117 
 329   0.0000       2.543572        69.2141 
 330   0.0000       2.558476        69.6197 
 331   0.0000       2.564222        69.7760 
 332   0.0000       2.574409        70.0532 
 333   0.0000       2.581152        70.2367 
 334   0.0000       2.606061        70.9145 
 335   0.0000       2.616435        71.1968 
 336   0.0000       2.624952        71.4286 
 337   0.0000       2.662437        72.4486 
 338   0.0000       2.693759        73.3009 
 339   0.0000       2.742015        74.6140 
 340   0.0000       2.824649        76.8626 
 341   0.0000       2.901046        78.9415 
 342   0.0000       2.942500        80.0695 
 343   0.0000       2.967652        80.7539 
 344   0.0000       3.313648        90.1689 
 345   0.0000       4.977460       135.4436 
 346   0.0000       4.985051       135.6501 
 347   0.0000       5.006048       136.2215 
 348   0.0000       5.009011       136.3021 
 349   0.0000       5.012046       136.3847 
 350   0.0000       5.021774       136.6494 
 351   0.0000       5.023845       136.7058 
 352   0.0000       5.024147       136.7140 
 353   0.0000       5.034670       137.0003 
 354   0.0000       5.047720       137.3554 
 355   0.0000       5.146584       140.0457 
 356   0.0000       5.179375       140.9380 
 357   0.0000       5.234968       142.4507 
 358   0.0000       5.239409       142.5716 
 359   0.0000       5.262900       143.2108 
 360   0.0000       5.279160       143.6533 
 361   0.0000       5.287581       143.8824 
 362   0.0000       5.305687       144.3751 
 363   0.0000       5.312620       144.5637 
 364   0.0000       5.322321       144.8277 
 365   0.0000       5.359890       145.8500 
 366   0.0000       5.374063       146.2357 
 367   0.0000       5.400666       146.9596 
 368   0.0000       5.409241       147.1929 
 369   0.0000       5.458761       148.5404 
 370   0.0000       5.509552       149.9225 
 371   0.0000       5.559878       151.2920 
 372   0.0000       5.597999       152.3293 
 373   0.0000       5.614403       152.7757 
 374   0.0000       5.664635       154.1426 
 375   0.0000       5.732540       155.9903 
 376   0.0000       5.742111       156.2508 
 377   0.0000       5.798347       157.7811 
 378   0.0000       5.845987       159.0774 
 379   0.0000       5.881830       160.0527 
 380   0.0000       6.067571       165.1070 
 381   0.0000       6.323730       172.0775 
 382   0.0000      29.631037       806.3015 
 383   0.0000      29.809150       811.1482 
 384   0.0000      29.848551       812.2204 
 385   0.0000      29.869546       812.7917 
 386   0.0000      29.960111       815.2561 
 387   0.0000      29.981933       815.8499 
 388   0.0000      29.999867       816.3379 
 389   0.0000      30.073568       818.3434 
 390   0.0000      30.104292       819.1794 
 391   0.0000      30.118584       819.5683 
 392   0.0000      30.150064       820.4249 
 393   0.0000      30.212299       822.1184 
 394   0.0000      30.249505       823.1309 
 395   0.0000      30.281646       824.0055 
 396   0.0000      30.361242       826.1714 
 397   0.0000      30.547840       831.2490 
 398   0.0000      36.601870       995.9875 
 399   0.0000      36.611356       996.2457 
 400   0.0000      36.628497       996.7121 
 401   0.0000      36.632018       996.8079 
 402   0.0000      36.635532       996.9035 
 403   0.0000      36.643207       997.1124 
 404   0.0000      36.648849       997.2659 
 405   0.0000      36.659454       997.5544 
 406   0.0000      36.671116       997.8718 
 407   0.0000      36.759589      1000.2793 
 408   0.0000      36.807760      1001.5901 
 409   0.0000      36.821049      1001.9517 
 410   0.0000      36.858533      1002.9717 
 411   0.0000      36.865327      1003.1565 
 412   0.0000      36.872245      1003.3448 
 413   0.0000      36.881245      1003.5897 
 414   0.0000      36.919995      1004.6441 
 415   0.0000      36.931774      1004.9647 
 416   0.0000      36.949319      1005.4421 
 417   0.0000      36.972549      1006.0742 
 418   0.0000      37.007478      1007.0247 

                 SPIN DOWN ORBITALS
  NO   OCC          E(Eh)            E(eV) 
   0   1.0000     -10.219148      -278.0771 
   1   1.0000     -10.204851      -277.6881 
   2   1.0000     -10.204600      -277.6813 
   3   1.0000     -10.202113      -277.6136 
   4   1.0000     -10.194667      -277.4110 
   5   1.0000     -10.193810      -277.3877 
   6   1.0000     -10.193598      -277.3819 
   7   1.0000     -10.192865      -277.3620 
   8   1.0000     -10.189275      -277.2643 
   9   1.0000     -10.186538      -277.1898 
  10   1.0000     -10.185398      -277.1588 
  11   1.0000     -10.184897      -277.1451 
  12   1.0000     -10.181290      -277.0470 
  13   1.0000     -10.181058      -277.0407 
  14   1.0000     -10.174788      -276.8701 
  15   1.0000     -10.172557      -276.8093 
  16   1.0000      -0.861777       -23.4501 
  17   1.0000      -0.807170       -21.9642 
  18   1.0000      -0.791398       -21.5350 
  19   1.0000      -0.779281       -21.2053 
  20   1.0000      -0.760489       -20.6940 
  21   1.0000      -0.725561       -19.7435 
  22   1.0000      -0.722096       -19.6492 
  23   1.0000      -0.692584       -18.8462 
  24   1.0000      -0.649275       -17.6677 
  25   1.0000      -0.620201       -16.8765 
  26   1.0000      -0.606311       -16.4986 
  27   1.0000      -0.586768       -15.9668 
  28   1.0000      -0.575762       -15.6673 
  29   1.0000      -0.556380       -15.1399 
  30   1.0000      -0.525563       -14.3013 
  31   1.0000      -0.492692       -13.4068 
  32   1.0000      -0.470079       -12.7915 
  33   1.0000      -0.467854       -12.7310 
  34   1.0000      -0.460603       -12.5337 
  35   1.0000      -0.458116       -12.4660 
  36   1.0000      -0.426076       -11.5941 
  37   1.0000      -0.424284       -11.5453 
  38   1.0000      -0.421031       -11.4568 
  39   1.0000      -0.416711       -11.3393 
  40   1.0000      -0.409231       -11.1358 
  41   1.0000      -0.387528       -10.5452 
  42   1.0000      -0.385643       -10.4939 
  43   1.0000      -0.372081       -10.1248 
  44   1.0000      -0.370599       -10.0845 
  45   1.0000      -0.361074        -9.8253 
  46   1.0000      -0.346384        -9.4256 
  47   1.0000      -0.344801        -9.3825 
  48   1.0000      -0.335159        -9.1201 
  49   1.0000      -0.330017        -8.9802 
  50   1.0000      -0.328297        -8.9334 
  51   1.0000      -0.323711        -8.8086 
  52   1.0000      -0.321134        -8.7385 
  53   1.0000      -0.319434        -8.6922 
  54   1.0000      -0.306333        -8.3357 
  55   1.0000      -0.273671        -7.4470 
  56   1.0000      -0.252668        -6.8754 
  57   1.0000      -0.229207        -6.2371 
  58   0.0000      -0.075373        -2.0510 
  59   0.0000      -0.025632        -0.6975 
  60   0.0000       0.021233         0.5778 
  61   0.0000       0.023197         0.6312 
  62   0.0000       0.027486         0.7479 
  63   0.0000       0.030511         0.8303 
  64   0.0000       0.032012         0.8711 
  65   0.0000       0.037741         1.0270 
  66   0.0000       0.043005         1.1702 
  67   0.0000       0.047910         1.3037 
  68   0.0000       0.051069         1.3897 
  69   0.0000       0.061503         1.6736 
  70   0.0000       0.076267         2.0753 
  71   0.0000       0.087269         2.3747 
  72   0.0000       0.088993         2.4216 
  73   0.0000       0.096625         2.6293 
  74   0.0000       0.104195         2.8353 
  75   0.0000       0.121997         3.3197 
  76   0.0000       0.135245         3.6802 
  77   0.0000       0.154018         4.1910 
  78   0.0000       0.156328         4.2539 
  79   0.0000       0.162234         4.4146 
  80   0.0000       0.170628         4.6430 
  81   0.0000       0.177953         4.8424 
  82   0.0000       0.181369         4.9353 
  83   0.0000       0.188166         5.1202 
  84   0.0000       0.192917         5.2495 
  85   0.0000       0.199576         5.4307 
  86   0.0000       0.200146         5.4462 
  87   0.0000       0.201566         5.4849 
  88   0.0000       0.202506         5.5105 
  89   0.0000       0.204728         5.5709 
  90   0.0000       0.210785         5.7357 
[...]
      pz      :     0.036689  p :     0.079915
      px      :     0.026302
      py      :     0.016924
 20 C s       :     2.849172  s :     2.849172
      pz      :     1.025389  p :     3.024279
      px      :     1.012164
      py      :     0.986726
      dz2     :     0.023754  d :     0.172218
      dxz     :     0.040212
      dyz     :     0.020572
      dx2y2   :     0.040351
      dxy     :     0.047329
 21 H s       :     0.860074  s :     0.860074
      pz      :     0.035616  p :     0.080333
      px      :     0.029124
      py      :     0.015592
 22 H s       :     0.860069  s :     0.860069
      pz      :     0.036363  p :     0.080352
      px      :     0.028398
      py      :     0.015591
 23 C s       :     2.872765  s :     2.872765
      pz      :     1.020532  p :     3.038549
      px      :     1.020511
      py      :     0.997505
      dz2     :     0.023727  d :     0.169405
      dxz     :     0.044365
      dyz     :     0.017914
      dx2y2   :     0.036268
      dxy     :     0.047131
 24 H s       :     0.876204  s :     0.876204
      pz      :     0.035424  p :     0.079879
      px      :     0.028090
      py      :     0.016365
 25 H s       :     0.876248  s :     0.876248
      pz      :     0.036230  p :     0.079877
      px      :     0.027278
      py      :     0.016369
 26 C s       :     2.877113  s :     2.877113
      pz      :     1.023900  p :     3.043910
      px      :     1.017202
      py      :     1.002809
      dz2     :     0.023849  d :     0.169007
      dxz     :     0.043090
      dyz     :     0.017933
      dx2y2   :     0.036752
      dxy     :     0.047383
 27 H s       :     0.879397  s :     0.879397
      pz      :     0.035052  p :     0.079544
      px      :     0.028091
      py      :     0.016401
 28 H s       :     0.879404  s :     0.879404
      pz      :     0.035888  p :     0.079543
      px      :     0.027257
      py      :     0.016398
 29 C s       :     2.881456  s :     2.881456
      pz      :     1.036401  p :     3.080806
      px      :     1.031050
      py      :     1.013354
      dz2     :     0.019592  d :     0.116955
      dxz     :     0.032855
      dyz     :     0.008955
      dx2y2   :     0.021859
      dxy     :     0.033695
 30 H s       :     0.886417  s :     0.886417
      pz      :     0.036354  p :     0.079815
      px      :     0.026932
      py      :     0.016530
 31 H s       :     0.886408  s :     0.886408
      pz      :     0.035489  p :     0.079817
      px      :     0.027789
      py      :     0.016539
 32 C s       :     2.958334  s :     2.958334
      pz      :     0.983546  p :     3.027289
      px      :     1.062339
      py      :     0.981404
      dz2     :     0.007221  d :     0.079919
      dxz     :     0.025884
      dyz     :     0.000014
      dx2y2   :     0.021433
      dxy     :     0.025367
 33 H s       :     0.857152  s :     0.857152
      pz      :     0.021289  p :     0.098168
      px      :     0.056184
      py      :     0.020695
 34 H s       :     0.887746  s :     0.887746
      pz      :     0.017072  p :     0.080249
      px      :     0.030183
      py      :     0.032994
 35 H s       :     0.888257  s :     0.888257
      pz      :     0.017075  p :     0.080254
      px      :     0.026635
      py      :     0.036544
 36 H s       :     0.866269  s :     0.866269
      pz      :     0.018792  p :     0.083315
      px      :     0.049101
      py      :     0.015422

SPIN
  0 C s       :     0.001227  s :     0.001227
      pz      :     0.013585  p :     0.018675
      px      :     0.001007
      py      :     0.004083
      dz2     :    -0.000088  d :    -0.006778
      dxz     :    -0.005951
      dyz     :     0.000053
      dx2y2   :    -0.000250
      dxy     :    -0.000543
  1 C s       :     0.005446  s :     0.005446
      pz      :     0.161236  p :     0.169681
      px      :     0.003933
      py      :     0.004512
      dz2     :    -0.000694  d :    -0.007661
      dxz     :    -0.000654
      dyz     :    -0.004714
      dx2y2   :    -0.000903
      dxy     :    -0.000695
  2 C s       :    -0.006363  s :    -0.006363
      pz      :    -0.086980  p :    -0.102839
      px      :    -0.006674
      py      :    -0.009185
      dz2     :     0.000586  d :     0.040770
      dxz     :     0.011256
      dyz     :     0.025813
      dx2y2   :     0.001425
      dxy     :     0.001690
  3 C s       :     0.005568  s :     0.005568
      pz      :     0.166898  p :     0.175636
      px      :     0.004658
      py      :     0.004079
      dz2     :    -0.000685  d :    -0.007567
      dxz     :    -0.003650
      dyz     :    -0.001619
      dx2y2   :    -0.000630
      dxy     :    -0.000983
  4 C s       :    -0.003535  s :    -0.003535
      pz      :    -0.061471  p :    -0.069012
      px      :    -0.002818
      py      :    -0.004723
      dz2     :     0.000380  d :     0.017460
      dxz     :     0.001624
      dyz     :     0.013811
      dx2y2   :     0.000653
      dxy     :     0.000993
  5 C s       :     0.006319  s :     0.006319
      pz      :     0.172613  p :     0.181999
      px      :     0.004785
      py      :     0.004601
      dz2     :    -0.000827  d :    -0.006166
      dxz     :    -0.002766
      dyz     :    -0.001372
      dx2y2   :    -0.000606
      dxy     :    -0.000594
  6 C s       :    -0.003599  s :    -0.003599
      pz      :    -0.069681  p :    -0.077513
      px      :    -0.004469
      py      :    -0.003363
      dz2     :     0.000348  d :     0.017406
      dxz     :     0.010634
      dyz     :     0.005052
      dx2y2   :     0.000747
      dxy     :     0.000624
  7 H s       :    -0.004913  s :    -0.004913
      pz      :     0.005232  p :     0.006125
      px      :     0.000326
      py      :     0.000567
  8 H s       :     0.002043  s :     0.002043
      pz      :    -0.002137  p :    -0.002642
      px      :    -0.000211
      py      :    -0.000294
  9 C s       :     0.018244  s :     0.018244
      pz      :     0.570401  p :     0.594896
      px      :     0.012211
      py      :     0.012284
      dz2     :    -0.002124  d :    -0.006170
      dxz     :    -0.000154
      dyz     :    -0.001676
      dx2y2   :    -0.001123
      dxy     :    -0.001092
 10 H s       :    -0.015930  s :    -0.015930
      pz      :     0.017633  p :     0.020429
      px      :     0.002610
      py      :     0.000186
 11 C s       :    -0.003261  s :    -0.003261
      pz      :    -0.003688  p :    -0.018356
      px      :    -0.005163
      py      :    -0.009505
      dz2     :     0.000408  d :     0.025475
      dxz     :     0.010770
      dyz     :     0.012760
      dx2y2   :     0.000659
      dxy     :     0.000879
 12 H s       :     0.026439  s :     0.026439
      pz      :    -0.000305  p :    -0.000787
      px      :    -0.000399
      py      :    -0.000083
 13 H s       :     0.025980  s :     0.025980
      pz      :    -0.000280  p :    -0.000784
      px      :    -0.000417
      py      :    -0.000087
 14 C s       :     0.000072  s :     0.000072
      pz      :     0.000949  p :     0.001414
      px      :     0.000323
      py      :     0.000142
      dz2     :    -0.000059  d :    -0.000420
      dxz     :     0.000247
      dyz     :    -0.000129
      dx2y2   :    -0.000406
      dxy     :    -0.000074
 15 H s       :    -0.000212  s :    -0.000212
      pz      :     0.000038  p :     0.000170
      px      :     0.000079
      py      :     0.000053
 16 H s       :    -0.000209  s :    -0.000209
      pz      :     0.000033  p :     0.000166
      px      :     0.000076
      py      :     0.000058
 17 C s       :    -0.000250  s :    -0.000250
      pz      :     0.000421  p :    -0.000005
      px      :    -0.000080
      py      :    -0.000347
      dz2     :    -0.000003  d :     0.000094
      dxz     :     0.000003
      dyz     :     0.000101
      dx2y2   :     0.000010
      dxy     :    -0.000017
 18 H s       :     0.000181  s :     0.000181
      pz      :     0.000001  p :     0.000032
      px      :     0.000015
      py      :     0.000017
 19 H s       :     0.000180  s :     0.000180
      pz      :     0.000002  p :     0.000035
      px      :     0.000014
      py      :     0.000019
 20 C s       :    -0.001114  s :    -0.001114
      pz      :    -0.000147  p :    -0.005286
      px      :    -0.002197
      py      :    -0.002942
      dz2     :     0.000143  d :     0.008089
      dxz     :     0.004026
      dyz     :     0.003395
      dx2y2   :     0.000211
      dxy     :     0.000315
 21 H s       :     0.008669  s :     0.008669
      pz      :    -0.000108  p :    -0.000236
      px      :    -0.000164
      py      :     0.000036
 22 H s       :     0.008604  s :     0.008604
      pz      :    -0.000111  p :    -0.000236
      px      :    -0.000160
      py      :     0.000035
 23 C s       :     0.000041  s :     0.000041
      pz      :    -0.000013  p :     0.000179
      px      :     0.000113
      py      :     0.000079
      dz2     :    -0.000014  d :    -0.000032
      dxz     :     0.000160
      dyz     :    -0.000026
      dx2y2   :    -0.000107
      dxy     :    -0.000046
 24 H s       :     0.000004  s :     0.000004
      pz      :     0.000005  p :     0.000015
      px      :     0.000008
      py      :     0.000002
 25 H s       :     0.000005  s :     0.000005
      pz      :     0.000005  p :     0.000015
      px      :     0.000007
      py      :     0.000002
 26 C s       :    -0.000055  s :    -0.000055
      pz      :     0.000177  p :     0.000045
      px      :    -0.000032
      py      :    -0.000100
      dz2     :    -0.000002  d :    -0.000004
      dxz     :    -0.000007
      dyz     :     0.000013
      dx2y2   :     0.000000
      dxy     :    -0.000008
 27 H s       :     0.000036  s :     0.000036
      pz      :     0.000001  p :     0.000020
      px      :     0.000004
      py      :     0.000015
 28 H s       :     0.000037  s :     0.000037
      pz      :     0.000001  p :     0.000020
      px      :     0.000004
      py      :     0.000014
 29 C s       :    -0.000009  s :    -0.000009
      pz      :     0.000006  p :    -0.000040
      px      :    -0.000014
      py      :    -0.000032
      dz2     :    -0.000000  d :     0.000013
      dxz     :     0.000010
      dyz     :     0.000005
      dx2y2   :    -0.000003
      dxy     :     0.000001
 30 H s       :     0.000017  s :     0.000017
      pz      :    -0.000000  p :    -0.000002
      px      :    -0.000001
      py      :    -0.000001
 31 H s       :     0.000017  s :     0.000017
      pz      :    -0.000000  p :    -0.000002
      px      :    -0.000001
      py      :    -0.000001
 32 C s       :    -0.001053  s :    -0.001053
      pz      :    -0.031003  p :    -0.036407
      px      :    -0.000455
      py      :    -0.004949
      dz2     :     0.000115  d :     0.001219
      dxz     :     0.000746
      dyz     :     0.000000
      dx2y2   :     0.000125
      dxy     :     0.000233
 33 H s       :     0.001081  s :     0.001081
      pz      :    -0.000956  p :    -0.001296
      px      :    -0.000199
      py      :    -0.000141
 34 H s       :    -0.000102  s :    -0.000102
      pz      :     0.000026  p :     0.000015
      px      :     0.000004
      py      :    -0.000014
 35 H s       :    -0.000003  s :    -0.000003
      pz      :    -0.000000  p :    -0.000003
      px      :    -0.000001
      py      :    -0.000002
 36 H s       :    -0.004902  s :    -0.004902
      pz      :     0.004581  p :     0.005450
      px      :     0.000767
      py      :     0.000102


                      *****************************
                      * MAYER POPULATION ANALYSIS *
                      *****************************

  NA   - Mulliken gross atomic population
  ZA   - Total nuclear charge
  QA   - Mulliken gross atomic charge
  VA   - Mayer's total valence
  BVA  - Mayer's bonded valence
  FA   - Mayer's free valence

  ATOM       NA         ZA         QA         VA         BVA        FA
  0 C      6.0029     6.0000    -0.0029     3.8121     3.8118     0.0003
  1 C      6.3673     6.0000    -0.3673     4.2334     4.1983     0.0351
  2 C      5.3617     6.0000     0.6383     3.7524     3.7386     0.0138
  3 C      6.4738     6.0000    -0.4738     4.2656     4.2282     0.0373
  4 C      5.5464     6.0000     0.4536     3.9181     3.9117     0.0064
  5 C      5.7605     6.0000     0.2395     3.8741     3.8335     0.0406
  6 C      6.2170     6.0000    -0.2170     4.1930     4.1850     0.0079
  7 H      0.8715     1.0000     0.1285     0.9637     0.9636     0.0002
  8 H      0.8858     1.0000     0.1142     0.9689     0.9689     0.0000
  9 C      6.3187     6.0000    -0.3187     4.0359     3.6154     0.4205
 10 H      0.8791     1.0000     0.1209     0.9715     0.9698     0.0018
 11 C      6.2663     6.0000    -0.2663     3.9517     3.9502     0.0015
 12 H      0.8478     1.0000     0.1522     0.9642     0.9631     0.0010
 13 H      0.8484     1.0000     0.1516     0.9644     0.9634     0.0010
 14 C      6.2925     6.0000    -0.2925     3.9052     3.9052     0.0000
 15 H      0.8453     1.0000     0.1547     0.9635     0.9635     0.0000
 16 H      0.8456     1.0000     0.1544     0.9635     0.9635     0.0000
 17 C      6.5092     6.0000    -0.5092     3.9041     3.9041     0.0000
 18 H      0.8403     1.0000     0.1597     0.9653     0.9653     0.0000
 19 H      0.8403     1.0000     0.1597     0.9653     0.9653     0.0000
 20 C      6.3735     6.0000    -0.3735     4.0349     4.0347     0.0002
 21 H      0.8438     1.0000     0.1562     0.9615     0.9613     0.0001
 22 H      0.8440     1.0000     0.1560     0.9615     0.9614     0.0001
 23 C      6.2730     6.0000    -0.2730     4.0149     4.0149     0.0000
 24 H      0.8587     1.0000     0.1413     0.9663     0.9663     0.0000
 25 H      0.8589     1.0000     0.1411     0.9663     0.9663     0.0000
 26 C      6.2651     6.0000    -0.2651     3.8959     3.8959     0.0000
 27 H      0.8549     1.0000     0.1451     0.9670     0.9670     0.0000
 28 H      0.8548     1.0000     0.1452     0.9670     0.9670     0.0000
 29 C      6.5111     6.0000    -0.5111     3.8988     3.8988     0.0000
 30 H      0.8408     1.0000     0.1592     0.9653     0.9653     0.0000
 31 H      0.8408     1.0000     0.1592     0.9653     0.9653     0.0000
 32 C      6.5337     6.0000    -0.5337     3.8972     3.8959     0.0013
 33 H      0.8180     1.0000     0.1820     0.9770     0.9770     0.0000
 34 H      0.8541     1.0000     0.1459     0.9670     0.9670     0.0000
 35 H      0.8550     1.0000     0.1450     0.9666     0.9666     0.0000
 36 H      0.8995     1.0000     0.1005     0.9619     0.9617     0.0002

  Mayer bond orders larger than 0.100000
B(  0-C ,  4-C ) :   0.9060 B(  0-C , 32-C ) :   2.7079 B(  1-C ,  2-C ) :   1.2474 
B(  1-C ,  5-C ) :   0.1137 B(  1-C ,  6-C ) :   1.5177 B(  1-C ,  9-C ) :   0.1639 
B(  1-C , 36-H ) :   0.9813 B(  2-C ,  3-C ) :   1.2587 B(  2-C ,  4-C ) :   0.1174 
B(  2-C ,  6-C ) :   0.1061 B(  2-C ,  9-C ) :   1.1979 B(  3-C ,  4-C ) :   1.4528 
B(  3-C ,  7-H ) :   0.9797 B(  3-C ,  9-C ) :   0.1156 B(  4-C ,  5-C ) :   1.3458 
B(  5-C ,  6-C ) :   1.3916 B(  5-C , 20-C ) :   0.9528 B(  6-C ,  8-H ) :   0.9760 
B(  9-C , 10-H ) :   1.0056 B(  9-C , 11-C ) :   0.9963 B( 11-C , 12-H ) :   0.9576 
B( 11-C , 13-H ) :   0.9573 B( 11-C , 14-C ) :   0.9779 B( 14-C , 15-H ) :   0.9733 
B( 14-C , 16-H ) :   0.9732 B( 14-C , 17-C ) :   0.9628 B( 17-C , 18-H ) :   0.9720 
B( 17-C , 19-H ) :   0.9721 B( 17-C , 34-H ) :   0.9679 B( 20-C , 21-H ) :   0.9563 
B( 20-C , 22-H ) :   0.9562 B( 20-C , 23-C ) :   1.0108 B( 23-C , 24-H ) :   0.9626 
B( 23-C , 25-H ) :   0.9624 B( 23-C , 26-C ) :   0.9888 B( 26-C , 27-H ) :   0.9720 
B( 26-C , 28-H ) :   0.9720 B( 26-C , 29-C ) :   0.9542 B( 29-C , 30-H ) :   0.9730 
B( 29-C , 31-H ) :   0.9729 B( 29-C , 35-H ) :   0.9681 B( 32-C , 33-H ) :   0.9833 


-------
TIMINGS
-------

Total SCF time: 0 days 0 hours 0 min 44 sec 

Total time                  ....      44.793 sec
Sum of individual times     ....      42.051 sec  ( 93.9%)

Fock matrix formation       ....      37.068 sec  ( 82.8%)
  Split-RI-J                ....       2.946 sec  (  7.9% of F)
  Chain of spheres X        ....      22.125 sec  ( 59.7% of F)
  XC integration            ....       8.695 sec  ( 23.5% of F)
    Basis function eval.    ....       0.657 sec  (  7.6% of XC)
    Density eval.           ....       0.956 sec  ( 11.0% of XC)
    XC-Functional eval.     ....       0.190 sec  (  2.2% of XC)
    XC-Potential eval.      ....       0.564 sec  (  6.5% of XC)
Diagonalization             ....       0.871 sec  (  1.9%)
Density matrix formation    ....       0.308 sec  (  0.7%)
Population analysis         ....       0.565 sec  (  1.3%)
Initial guess               ....       0.133 sec  (  0.3%)
Orbital Transformation      ....       0.000 sec  (  0.0%)
Orbital Orthonormalization  ....       0.101 sec  (  0.2%)
DIIS solution               ....       0.644 sec  (  1.4%)
Grid generation             ....       2.461 sec  (  5.5%)

Maximum memory used throughout the entire SCF-calculation: 93.5 MB

-------------------------   --------------------
FINAL SINGLE POINT ENERGY      -621.922680649113
-------------------------   --------------------

                                *** OPTIMIZATION RUN DONE ***

                            ***************************************
                            *     ORCA property calculations      *
                            ***************************************

                                    ---------------------
                                    Active property flags
                                    ---------------------
   (+) Dipole Moment


------------------------------------------------------------------------------
                       ORCA ELECTRIC PROPERTIES CALCULATION
------------------------------------------------------------------------------

Dipole Moment Calculation                       ... on
Quadrupole Moment Calculation                   ... off
Polarizability Calculation                      ... off
GBWName                                         ... opt_EPRII.gbw
Electron density                                ... opt_EPRII.scfp
The origin for moment calculation is the CENTER OF MASS  = (-0.847197, -0.005055  0.013429)

-------------
DIPOLE MOMENT
-------------
                                X             Y             Z
Electronic contribution:     -4.84989       2.15305      -0.10865
Nuclear contribution   :      5.05010      -2.15492       0.11163
                        -----------------------------------------
Total Dipole Moment    :      0.20021      -0.00187       0.00299
                        -----------------------------------------
Magnitude (a.u.)       :      0.20025
Magnitude (Debye)      :      0.50898



--------------------
Rotational spectrum 
--------------------
 
Rotational constants in cm-1:     0.039366     0.005972     0.005220 
Rotational constants in MHz :  1180.173357   179.023977   156.494684 

 Dipole components along the rotational axes: 
x,y,z [a.u.] :    -0.046594     0.194749    -0.000296 
x,y,z [Debye]:    -0.118433     0.495013    -0.000752 

 

Timings for individual modules:

Sum of individual times         ...      439.497 sec (=   7.325 min)
GTO integral calculation        ...       17.257 sec (=   0.288 min)   3.9 %
SCF iterations                  ...      343.005 sec (=   5.717 min)  78.0 %
SCF Gradient evaluation         ...       77.521 sec (=   1.292 min)  17.6 %
Geometry relaxation             ...        1.714 sec (=   0.029 min)   0.4 %
                             ****ORCA TERMINATED NORMALLY****
TOTAL RUN TIME: 0 days 0 hours 7 minutes 39 seconds 166 msec
