
                                 *****************
                                 * O   R   C   A *
                                 *****************

                                            #,                                       
                                            ###                                      
                                            ####                                     
                                            #####                                    
                                            ######                                   
                                           ########,                                 
                                     ,,################,,,,,                         
                               ,,#################################,,                 
                          ,,##########################################,,             
                       ,#########################################, ''#####,          
                    ,#############################################,,   '####,        
                  ,##################################################,,,,####,       
                ,###########''''           ''''###############################       
              ,#####''   ,,,,##########,,,,          '''####'''          '####       
            ,##' ,,,,###########################,,,                        '##       
           ' ,,###''''                  '''############,,,                           
         ,,##''                                '''############,,,,        ,,,,,,###''
      ,#''                                            '''#######################'''  
     '                                                          ''''####''''         
             ,#######,   #######,   ,#######,      ##                                
            ,#'     '#,  ##    ##  ,#'     '#,    #''#        ######   ,####,        
            ##       ##  ##   ,#'  ##            #'  '#       #        #'  '#        
            ##       ##  #######   ##           ,######,      #####,   #    #        
            '#,     ,#'  ##    ##  '#,     ,#' ,#      #,         ##   #,  ,#        
             '#######'   ##     ##  '#######'  #'      '#     #####' # '####'        



                  #######################################################
                  #                        -***-                        #
                  #          Department of theory and spectroscopy      #
                  #    Directorship and core code : Frank Neese         #
                  #        Max Planck Institute fuer Kohlenforschung    #
                  #                Kaiser Wilhelm Platz 1               #
                  #                 D-45470 Muelheim/Ruhr               #
                  #                      Germany                        #
                  #                                                     #
                  #                  All rights reserved                #
                  #                        -***-                        #
                  #######################################################


                         Program Version 5.0.4 -  RELEASE  -


 With contributions from (in alphabetic order):
   Daniel Aravena         : Magnetic Suceptibility
   Michael Atanasov       : Ab Initio Ligand Field Theory (pilot matlab implementation)
   Alexander A. Auer      : GIAO ZORA, VPT2 properties, NMR spectrum
   Ute Becker             : Parallelization
   Giovanni Bistoni       : ED, misc. LED, open-shell LED, HFLD
   Martin Brehm           : Molecular dynamics
   Dmytro Bykov           : SCF Hessian
   Vijay G. Chilkuri      : MRCI spin determinant printing, contributions to CSF-ICE
   Dipayan Datta          : RHF DLPNO-CCSD density
   Achintya Kumar Dutta   : EOM-CC, STEOM-CC
   Dmitry Ganyushin       : Spin-Orbit,Spin-Spin,Magnetic field MRCI
   Miquel Garcia          : C-PCM and meta-GGA Hessian, CC/C-PCM, Gaussian charge scheme
   Yang Guo               : DLPNO-NEVPT2, F12-NEVPT2, CIM, IAO-localization
   Andreas Hansen         : Spin unrestricted coupled pair/coupled cluster methods
   Benjamin Helmich-Paris : MC-RPA, TRAH-SCF, COSX integrals
   Lee Huntington         : MR-EOM, pCC
   Robert Izsak           : Overlap fitted RIJCOSX, COSX-SCS-MP3, EOM
   Marcus Kettner         : VPT2
   Christian Kollmar      : KDIIS, OOCD, Brueckner-CCSD(T), CCSD density, CASPT2, CASPT2-K
   Simone Kossmann        : Meta GGA functionals, TD-DFT gradient, OOMP2, MP2 Hessian
   Martin Krupicka        : Initial AUTO-CI
   Lucas Lang             : DCDCAS
   Marvin Lechner         : AUTO-CI (C++ implementation), FIC-MRCC
   Dagmar Lenk            : GEPOL surface, SMD
   Dimitrios Liakos       : Extrapolation schemes; Compound Job, initial MDCI parallelization
   Dimitrios Manganas     : Further ROCIS development; embedding schemes
   Dimitrios Pantazis     : SARC Basis sets
   Anastasios Papadopoulos: AUTO-CI, single reference methods and gradients
   Taras Petrenko         : DFT Hessian,TD-DFT gradient, ASA, ECA, R-Raman, ABS, FL, XAS/XES, NRVS
   Peter Pinski           : DLPNO-MP2, DLPNO-MP2 Gradient
   Christoph Reimann      : Effective Core Potentials
   Marius Retegan         : Local ZFS, SOC
   Christoph Riplinger    : Optimizer, TS searches, QM/MM, DLPNO-CCSD(T), (RO)-DLPNO pert. Triples
   Tobias Risthaus        : Range-separated hybrids, TD-DFT gradient, RPA, STAB
   Michael Roemelt        : Original ROCIS implementation
   Masaaki Saitow         : Open-shell DLPNO-CCSD energy and density
   Barbara Sandhoefer     : DKH picture change effects
   Avijit Sen             : IP-ROCIS
   Kantharuban Sivalingam : CASSCF convergence, NEVPT2, FIC-MRCI
   Bernardo de Souza      : ESD, SOC TD-DFT
   Georgi Stoychev        : AutoAux, RI-MP2 NMR, DLPNO-MP2 response
   Willem Van den Heuvel  : Paramagnetic NMR
   Boris Wezisla          : Elementary symmetry handling
   Frank Wennmohs         : Technical directorship


 We gratefully acknowledge several colleagues who have allowed us to
 interface, adapt or use parts of their codes:
   Stefan Grimme, W. Hujo, H. Kruse, P. Pracht,  : VdW corrections, initial TS optimization,
                  C. Bannwarth, S. Ehlert          DFT functionals, gCP, sTDA/sTD-DF
   Ed Valeev, F. Pavosevic, A. Kumar             : LibInt (2-el integral package), F12 methods
   Garnet Chan, S. Sharma, J. Yang, R. Olivares  : DMRG
   Ulf Ekstrom                                   : XCFun DFT Library
   Mihaly Kallay                                 : mrcc  (arbitrary order and MRCC methods)
   Jiri Pittner, Ondrej Demel                    : Mk-CCSD
   Frank Weinhold                                : gennbo (NPA and NBO analysis)
   Christopher J. Cramer and Donald G. Truhlar   : smd solvation model
   Lars Goerigk                                  : TD-DFT with DH, B97 family of functionals
   V. Asgeirsson, H. Jonsson                     : NEB implementation
   FAccTs GmbH                                   : IRC, NEB, NEB-TS, DLPNO-Multilevel, CI-OPT
                                                   MM, QMMM, 2- and 3-layer-ONIOM, Crystal-QMMM,
                                                   LR-CPCM, SF, NACMEs, symmetry and pop. for TD-DFT,
                                                   nearIR, NL-DFT gradient (VV10), updates on ESD,
                                                   ML-optimized integration grids
   S Lehtola, MJT Oliveira, MAL Marques          : LibXC Library
   Liviu Ungur et al                             : ANISO software


 Your calculation uses the libint2 library for the computation of 2-el integrals
 For citations please refer to: http://libint.valeyev.net

 Your ORCA version has been built with support for libXC version: 5.1.0
 For citations please refer to: https://tddft.org/programs/libxc/

 This ORCA versions uses:
   CBLAS   interface :  Fast vector & matrix operations
   LAPACKE interface :  Fast linear algebra routines
   SCALAPACK package :  Parallel linear algebra routines
   Shared memory     :  Shared parallel matrices
   BLAS/LAPACK       :  OpenBLAS 0.3.15  USE64BITINT DYNAMIC_ARCH NO_AFFINITY SkylakeX SINGLE_THREADED
        Core in use  :  SkylakeX
   Copyright (c) 2011-2014, The OpenBLAS Project




***************************************
The coordinates will be read from file: model.xyz
***************************************


================================================================================

----- Orbital basis set information -----
Your calculation utilizes the basis: cc-pVDZ 
       H, B-Ne : Obtained from the ccRepo (grant-hill.group.shef.ac.uk/ccrepo) Feb. 2017
                 T. H. Dunning, Jr., J. Chem. Phys. 90, 1007 (1989)
            He : Obtained from the ccRepo (grant-hill.group.shef.ac.uk/ccrepo) Feb. 2017
                 D. E. Woon, T. H. Dunning, Jr., J. Chem. Phys. 100, 2975 (1994)
  Li-Be, Na-Mg : Obtained from the ccRepo (grant-hill.group.shef.ac.uk/ccrepo) Feb. 2017
                 B. P. Prascher, D. E. Woon, K. A. Peterson, T. H. Dunning, Jr., A. K. Wilson, Theor. Chem. Acc. 128, 69 (2011)
         Al-Ar : Obtained from the ccRepo (grant-hill.group.shef.ac.uk/ccrepo) Feb. 2017
                 D. E. Woon, T. H. Dunning, Jr., J. Chem. Phys. 98, 1358 (1993)
            Ca : Obtained from the Peterson Research Group Website (tyr0.chem.wsu.edu/~kipeters) Feb. 2017
                 J. Koput, K. A. Peterson, J. Phys. Chem. 106, 9595 (2002)
         Sc-Zn : Obtained from the ccRepo (grant-hill.group.shef.ac.uk/ccrepo) Feb. 2017
                 N. B. Balabanov, K. A. Peterson, J. Chem. Phys. 123, 064107 (2005)
                 N. B. Balabanov, K. A. Peterson, J. Chem. Phys. 125, 074110 (2006)
         Ga-Kr : Obtained from the ccRepo (grant-hill.group.shef.ac.uk/ccrepo) Feb. 2017
                 A. K. Wilson, D. E. Woon, K. A. Peterson, T. H. Dunning, Jr., J. Chem. Phys. 110, 7667 (1999)

----- AuxJ basis set information -----
Your calculation utilizes the auxiliary basis: def2/J
   F. Weigend, Phys. Chem. Chem. Phys. 8, 1057 (2006).

================================================================================
                                        WARNINGS
                       Please study these warnings very carefully!
================================================================================


WARNING: your system is open-shell and RHF/RKS was chosen
  ===> : WILL SWITCH to UHF/UKS


WARNING: Geometry Optimization
  ===> : Switching off AutoStart
         For restart on a previous wavefunction, please use MOREAD

INFO   : the flag for use of the SHARK integral package has been found!

================================================================================
                                       INPUT FILE
================================================================================
NAME = opt.inp
|  1> ! B3LYP cc-pVDZ OPT
|  2> %pal nprocs 16 end
|  3> *XYZFile 0 2 model.xyz
|  4> 
|  5>                          ****END OF INPUT****
================================================================================

                       *****************************
                       * Geometry Optimization Run *
                       *****************************

Geometry optimization settings:
Update method            Update   .... BFGS
Choice of coordinates    CoordSys .... Z-matrix Internals
Initial Hessian          InHess   .... Almoef's Model

Convergence Tolerances:
Energy Change            TolE     ....  5.0000e-06 Eh
Max. Gradient            TolMAXG  ....  3.0000e-04 Eh/bohr
RMS Gradient             TolRMSG  ....  1.0000e-04 Eh/bohr
Max. Displacement        TolMAXD  ....  4.0000e-03 bohr
RMS Displacement         TolRMSD  ....  2.0000e-03 bohr
Strict Convergence                ....  False
------------------------------------------------------------------------------
                        ORCA OPTIMIZATION COORDINATE SETUP
------------------------------------------------------------------------------

The optimization will be done in new redundant internal coordinates
Making redundant internal coordinates   ...  (new redundants) done
Evaluating the initial hessian          ...  (Almloef) done
Evaluating the coordinates              ...  done
Calculating the B-matrix                .... done
Calculating the G-matrix                .... done
Diagonalizing the G-matrix              .... done
Small eigenvalue found = 2.435e-03
Small eigenvalue found = 5.869e-03
Small eigenvalue found = 1.010e-02
Small eigenvalue found = 1.678e-02
Small eigenvalue found = 2.843e-02
The first mode is                       ....   84
The number of degrees of freedom        ....  105

    -----------------------------------------------------------------
                    Redundant Internal Coordinates


    -----------------------------------------------------------------
         Definition                    Initial Value    Approx d2E/dq
    -----------------------------------------------------------------
      1. B(C   2,C   1)                  1.4248         0.549844   
      2. B(C   3,C   2)                  1.4227         0.554073   
      3. B(C   4,C   0)                  1.4355         0.528720   
      4. B(C   4,C   3)                  1.3996         0.603157   
      5. B(C   5,C   4)                  1.4257         0.547955   
      6. B(C   6,C   5)                  1.4063         0.588536   
      7. B(C   6,C   1)                  1.3887         0.627698   
      8. B(H   7,C   3)                  1.0905         0.359427   
      9. B(H   8,C   6)                  1.0908         0.358990   
     10. B(C   9,C   2)                  1.4186         0.562497   
     11. B(H  10,C   9)                  1.0957         0.352577   
     12. B(C  11,C   9)                  1.4987         0.419172   
     13. B(H  12,C  11)                  1.1102         0.334352   
     14. B(H  13,C  11)                  1.1102         0.334327   
     15. B(C  14,C  11)                  1.5338         0.368345   
     16. B(H  15,C  14)                  1.1058         0.339798   
     17. B(H  16,C  14)                  1.1059         0.339711   
     18. B(C  17,C  14)                  1.5296         0.374143   
     19. B(H  18,C  17)                  1.1039         0.342135   
     20. B(H  19,C  17)                  1.1039         0.342183   
     21. B(C  20,C   5)                  1.5150         0.394786   
     22. B(H  21,C  20)                  1.1067         0.338652   
     23. B(H  22,C  20)                  1.1065         0.338903   
     24. B(C  23,C  20)                  1.5309         0.372344   
     25. B(H  24,C  23)                  1.1062         0.339251   
     26. B(H  25,C  23)                  1.1062         0.339303   
     27. B(C  26,C  23)                  1.5331         0.369376   
     28. B(H  27,C  26)                  1.1063         0.339200   
     29. B(H  28,C  26)                  1.1062         0.339272   
     30. B(C  29,C  26)                  1.5302         0.373246   
     31. B(H  30,C  29)                  1.1040         0.342014   
     32. B(H  31,C  29)                  1.1041         0.341973   
     33. B(C  32,C   0)                  1.2158         1.185052   
     34. B(H  33,C  32)                  1.0725         0.384006   
     35. B(H  34,C  17)                  1.1018         0.344766   
     36. B(H  35,C  29)                  1.1020         0.344595   
     37. B(H  36,C   1)                  1.0939         0.354999   
     38. L(C   4,C   0,C  32,C   3, 1) 179.7553         0.474413   
     39. L(C   4,C   0,C  32,C   3, 2) 179.8644         0.474413   
     40. A(C   2,C   1,C   6)          121.5777         0.425753   
     41. A(C   2,C   1,H  36)          118.8343         0.345005   
     42. A(C   6,C   1,H  36)          119.5879         0.352794   
     43. A(C   3,C   2,C   9)          122.6290         0.418066   
     44. A(C   1,C   2,C   9)          120.8781         0.417496   
     45. A(C   1,C   2,C   3)          116.4929         0.416376   
     46. A(C   2,C   3,C   4)          121.7791         0.423306   
     47. A(C   4,C   3,H   7)          118.3003         0.351158   
     48. A(C   2,C   3,H   7)          119.9206         0.346169   
     49. A(C   0,C   4,C   3)          118.8624         0.419781   
     50. A(C   3,C   4,C   5)          120.8883         0.422467   
     51. A(C   0,C   4,C   5)          120.2493         0.412672   
     52. A(C   4,C   5,C  20)          119.7412         0.391964   
     53. A(C   6,C   5,C  20)          123.0294         0.396903   
     54. A(C   4,C   5,C   6)          117.2295         0.420620   
     55. A(C   5,C   6,H   8)          119.3258         0.349634   
     56. A(C   1,C   6,H   8)          118.6416         0.353462   
     57. A(C   1,C   6,C   5)          122.0326         0.430976   
     58. A(C   2,C   9,H  10)          117.1438         0.345928   
     59. A(H  10,C   9,C  11)          117.8124         0.329382   
     60. A(C   2,C   9,C  11)          125.0438         0.397928   
     61. A(H  13,C  11,C  14)          109.1531         0.319659   
     62. A(H  12,C  11,C  14)          109.1595         0.319663   
     63. A(C   9,C  11,C  14)          113.6540         0.369700   
     64. A(H  12,C  11,H  13)          104.5586         0.284170   
     65. A(C   9,C  11,H  13)          109.9562         0.326507   
     66. A(C   9,C  11,H  12)          109.9593         0.326511   
     67. A(H  16,C  14,C  17)          109.7024         0.321315   
     68. A(H  15,C  14,C  17)          109.6936         0.321328   
     69. A(C  11,C  14,C  17)          113.1583         0.362572   
     70. A(H  15,C  14,H  16)          106.0398         0.285595   
     71. A(C  11,C  14,H  16)          109.0001         0.320495   
     72. A(C  11,C  14,H  15)          108.9952         0.320508   
     73. A(H  19,C  17,H  34)          107.6350         0.286566   
     74. A(H  18,C  17,H  34)          107.6242         0.286559   
     75. A(C  14,C  17,H  34)          111.4411         0.322093   
     76. A(C  14,C  17,H  18)          111.2991         0.321689   
     77. A(C  14,C  17,H  19)          111.2993         0.321696   
     78. A(H  18,C  17,H  19)          107.3380         0.286224   
     79. A(H  22,C  20,C  23)          109.1503         0.320936   
     80. A(H  21,C  20,C  23)          109.1590         0.320897   
     81. A(C   5,C  20,C  23)          116.8534         0.366595   
     82. A(H  21,C  20,H  22)          104.2869         0.285339   
     83. A(C   5,C  20,H  22)          108.3248         0.324029   
     84. A(C   5,C  20,H  21)          108.3323         0.323990   
     85. A(H  25,C  23,C  26)          108.9981         0.320578   
     86. A(H  24,C  23,C  26)          109.0451         0.320570   
     87. A(C  20,C  23,C  26)          112.6586         0.362446   
     88. A(H  24,C  23,H  25)          106.2024         0.285470   
     89. A(C  20,C  23,H  25)          109.8811         0.320998   
     90. A(C  20,C  23,H  24)          109.8438         0.320990   
     91. A(H  28,C  26,C  29)          109.5567         0.321121   
     92. A(H  27,C  26,C  29)          109.5674         0.321109   
     93. A(C  23,C  26,C  29)          113.1694         0.362596   
     94. A(H  27,C  26,H  28)          105.8625         0.285459   
     95. A(C  23,C  26,H  28)          109.2088         0.320574   
     96. A(C  23,C  26,H  27)          109.2146         0.320563   
     97. A(C  26,C  29,H  35)          111.5219         0.321940   
     98. A(H  30,C  29,H  31)          107.3455         0.286180   
     99. A(C  26,C  29,H  31)          111.3097         0.321537   
    100. A(C  26,C  29,H  30)          111.3137         0.321544   
    101. A(H  31,C  29,H  35)          107.5695         0.286516   
    102. A(H  30,C  29,H  35)          107.5692         0.286522   
    103. L(C   0,C  32,H  33, 2)       180.2560         0.399064   
    104. L(C   0,C  32,H  33, 1)       180.1840         0.399064   
    105. D(C   3,C   2,C   1,C   6)      0.0073         0.020682   
    106. D(C   3,C   2,C   1,H  36)   -179.9805         0.020682   
    107. D(C   9,C   2,C   1,H  36)      0.0079         0.020682   
    108. D(C   9,C   2,C   1,C   6)    179.9957         0.020682   
    109. D(C   4,C   3,C   2,C   9)   -179.9609         0.021012   
    110. D(H   7,C   3,C   2,C   1)   -179.9744         0.021012   
    111. D(H   7,C   3,C   2,C   9)      0.0374         0.021012   
    112. D(C   4,C   3,C   2,C   1)      0.0273         0.021012   
    113. D(C   5,C   4,C   3,C   2)     -0.0404         0.025094   
    114. D(C   0,C   4,C   3,C   2)    179.9674         0.025094   
    115. D(C   0,C   4,C   3,H   7)     -0.0310         0.025094   
    116. D(C   5,C   4,C   3,H   7)    179.9612         0.025094   
    117. D(C  20,C   5,C   4,C   0)     -0.0371         0.020535   
    118. D(C   6,C   5,C   4,C   0)   -179.9901         0.020535   
    119. D(C  20,C   5,C   4,C   3)    179.9708         0.020535   
    120. D(C   6,C   5,C   4,C   3)      0.0178         0.020535   
    121. D(H   8,C   6,C   5,C  20)      0.0401         0.023831   
    122. D(C   1,C   6,C   5,C  20)   -179.9346         0.023831   
    123. D(H   8,C   6,C   1,H  36)     -0.0167         0.027306   
    124. D(C   5,C   6,C   1,H  36)    179.9581         0.027306   
    125. D(C   1,C   6,C   5,C   4)      0.0168         0.023831   
    126. D(H   8,C   6,C   5,C   4)    179.9914         0.023831   
    127. D(C   5,C   6,C   1,C   2)     -0.0297         0.027306   
    128. D(H   8,C   6,C   1,C   2)    179.9955         0.027306   
    129. D(C  11,C   9,C   2,C   3)     -0.0560         0.021681   
    130. D(C  11,C   9,C   2,C   1)    179.9563         0.021681   
    131. D(H  10,C   9,C   2,C   3)    179.8988         0.021681   
    132. D(H  10,C   9,C   2,C   1)     -0.0889         0.021681   
    133. D(H  13,C  11,C   9,C   2)     57.2074         0.012994   
    134. D(H  12,C  11,C   9,H  10)    122.6463         0.012994   
    135. D(H  12,C  11,C   9,C   2)    -57.3992         0.012994   
    136. D(C  14,C  11,C   9,H  10)     -0.0558         0.012994   
    137. D(C  14,C  11,C   9,C   2)    179.8987         0.012994   
    138. D(H  13,C  11,C   9,H  10)   -122.7471         0.012994   
    139. D(C  17,C  14,C  11,C   9)    179.9988         0.010852   
    140. D(C  17,C  14,C  11,H  12)     56.8578         0.010852   
    141. D(H  16,C  14,C  11,H  13)   -179.2193         0.010852   
    142. D(H  16,C  14,C  11,H  12)    -65.4924         0.010852   
    143. D(H  16,C  14,C  11,C   9)     57.6486         0.010852   
    144. D(H  15,C  14,C  11,H  13)     65.4663         0.010852   
    145. D(H  15,C  14,C  11,H  12)    179.1933         0.010852   
    146. D(C  17,C  14,C  11,H  13)    -56.8691         0.010852   
    147. D(H  15,C  14,C  11,C   9)    -57.6658         0.010852   
    148. D(H  34,C  17,C  14,H  16)    -58.0095         0.011176   
    149. D(H  34,C  17,C  14,H  15)     58.0875         0.011176   
    150. D(H  34,C  17,C  14,C  11)   -179.9673         0.011176   
    151. D(H  19,C  17,C  14,H  16)     62.1527         0.011176   
    152. D(H  19,C  17,C  14,H  15)    178.2497         0.011176   
    153. D(H  19,C  17,C  14,C  11)    -59.8052         0.011176   
    154. D(H  18,C  17,C  14,H  16)   -178.1578         0.011176   
    155. D(H  18,C  17,C  14,H  15)    -62.0608         0.011176   
    156. D(H  18,C  17,C  14,C  11)     59.8844         0.011176   
    157. D(C  23,C  20,C   5,C   6)     -0.7203         0.011581   
    158. D(C  23,C  20,C   5,C   4)    179.3295         0.011581   
    159. D(H  22,C  20,C   5,C   6)   -124.4329         0.011581   
    160. D(H  22,C  20,C   5,C   4)     55.6169         0.011581   
    161. D(H  21,C  20,C   5,C   6)    123.0103         0.011581   
    162. D(H  21,C  20,C   5,C   4)    -56.9399         0.011581   
    163. D(H  25,C  23,C  20,H  21)    -64.8272         0.011075   
    164. D(H  25,C  23,C  20,C   5)     58.4798         0.011075   
    165. D(H  24,C  23,C  20,H  22)     65.2853         0.011075   
    166. D(H  24,C  23,C  20,H  21)    178.6886         0.011075   
    167. D(H  24,C  23,C  20,C   5)    -58.0043         0.011075   
    168. D(C  26,C  23,C  20,H  22)    -56.4895         0.011075   
    169. D(C  26,C  23,C  20,H  21)     56.9139         0.011075   
    170. D(C  26,C  23,C  20,C   5)   -179.7791         0.011075   
    171. D(H  25,C  23,C  20,H  22)   -178.2306         0.011075   
    172. D(C  29,C  26,C  23,H  25)    -57.7387         0.010909   
    173. D(C  29,C  26,C  23,C  20)   -179.9788         0.010909   
    174. D(H  28,C  26,C  23,H  25)    179.9390         0.010909   
    175. D(H  28,C  26,C  23,H  24)    -64.5271         0.010909   
    176. D(H  28,C  26,C  23,C  20)     57.6989         0.010909   
    177. D(H  27,C  26,C  23,H  25)     64.6015         0.010909   
    178. D(C  29,C  26,C  23,H  24)     57.7952         0.010909   
    179. D(H  27,C  26,C  23,H  24)   -179.8645         0.010909   
    180. D(H  27,C  26,C  23,C  20)    -57.6385         0.010909   
    181. D(H  35,C  29,C  26,H  28)    -57.8163         0.011125   
    182. D(H  35,C  29,C  26,H  27)     57.9122         0.011125   
    183. D(H  35,C  29,C  26,C  23)   -179.9444         0.011125   
    184. D(H  31,C  29,C  26,H  28)     62.3246         0.011125   
    185. D(H  31,C  29,C  26,H  27)    178.0531         0.011125   
    186. D(H  31,C  29,C  26,C  23)    -59.8035         0.011125   
    187. D(H  30,C  29,C  26,H  28)   -177.9595         0.011125   
    188. D(H  30,C  29,C  26,H  27)    -62.2310         0.011125   
    189. D(H  30,C  29,C  26,C  23)     59.9124         0.011125   
    -----------------------------------------------------------------

Number of atoms                         .... 37
Number of degrees of freedom            .... 189

         *************************************************************
         *                GEOMETRY OPTIMIZATION CYCLE   1            *
         *************************************************************
---------------------------------
CARTESIAN COORDINATES (ANGSTROEM)
---------------------------------
  C     -2.935166   -0.017246   -0.032888
  C      1.295313    0.060651    0.045739
  C      0.589785    1.298332    0.025955
  C     -0.830449    1.218906   -0.000585
  C     -1.499978   -0.010143   -0.006372
  C     -0.775908   -1.238156    0.013452
  C      0.627794   -1.157123    0.039214
  H     -1.426108    2.132214   -0.017029
  H      1.215783   -2.075791    0.055050
  C      1.286786    2.533866    0.033043
  H      2.381427    2.490191    0.055741
  C      0.641216    3.886193    0.012891
  H     -0.011880    3.981090   -0.879853
  H     -0.049327    3.989324    0.876077
  C      1.643702    5.046978    0.028924
  H      2.283122    4.957953    0.926700
  H      2.321231    4.949586   -0.839644
  C      0.972891    6.421464    0.008098
  H      0.314322    6.559549    0.883246
  H      0.351342    6.550662   -0.894986
  C     -1.527122   -2.553741    0.007293
  H     -2.213093   -2.566958    0.875677
  H     -2.199092   -2.566540   -0.871721
  C     -0.683994   -3.831530    0.013546
  H     -0.010146   -3.841099   -0.863718
  H     -0.029795   -3.846201    0.905437
  C     -1.539482   -5.103659    0.001131
  H     -2.216314   -5.095805    0.876164
  H     -2.196052   -5.092055   -0.889094
  C     -0.708143   -6.388363    0.007758
  H     -0.067343   -6.447050    0.904868
  H     -0.045823   -6.442230   -0.873933
  C     -4.150683   -0.018079   -0.056829
  H     -5.222897   -0.014023   -0.081393
  H      1.717705    7.233365    0.019662
  H     -1.349094   -7.284712   -0.002416
  H      2.388872    0.077049    0.066731

----------------------------
CARTESIAN COORDINATES (A.U.)
----------------------------
  NO LB      ZA    FRAG     MASS         X           Y           Z
   0 C     6.0000    0    12.011   -5.546659   -0.032590   -0.062149
   1 C     6.0000    0    12.011    2.447787    0.114613    0.086434
   2 C     6.0000    0    12.011    1.114532    2.453491    0.049048
   3 C     6.0000    0    12.011   -1.569321    2.303399   -0.001105
   4 C     6.0000    0    12.011   -2.834548   -0.019168   -0.012042
   5 C     6.0000    0    12.011   -1.466253   -2.339776    0.025421
   6 C     6.0000    0    12.011    1.186359   -2.186645    0.074103
   7 H     1.0000    0     1.008   -2.694954    4.029300   -0.032181
   8 H     1.0000    0     1.008    2.297497   -3.922676    0.104030
   9 C     6.0000    0    12.011    2.431674    4.788313    0.062442
  10 H     1.0000    0     1.008    4.500245    4.705780    0.105336
  11 C     6.0000    0    12.011    1.211722    7.343840    0.024360
  12 H     1.0000    0     1.008   -0.022450    7.523169   -1.662682
  13 H     1.0000    0     1.008   -0.093215    7.538731    1.655546
  14 C     6.0000    0    12.011    3.106146    9.537406    0.054658
  15 H     1.0000    0     1.008    4.314476    9.369174    1.751209
  16 H     1.0000    0     1.008    4.386491    9.353362   -1.586697
  17 C     6.0000    0    12.011    1.838498   12.134809    0.015304
  18 H     1.0000    0     1.008    0.593982   12.395751    1.669092
  19 H     1.0000    0     1.008    0.663940   12.378958   -1.691279
  20 C     6.0000    0    12.011   -2.885843   -4.825872    0.013782
  21 H     1.0000    0     1.008   -4.182139   -4.850847    1.654790
  22 H     1.0000    0     1.008   -4.155681   -4.850057   -1.647315
  23 C     6.0000    0    12.011   -1.292562   -7.240543    0.025598
  24 H     1.0000    0     1.008   -0.019172   -7.258624   -1.632191
  25 H     1.0000    0     1.008   -0.056304   -7.268266    1.711029
  26 C     6.0000    0    12.011   -2.909199   -9.644518    0.002137
  27 H     1.0000    0     1.008   -4.188226   -9.629677    1.655709
  28 H     1.0000    0     1.008   -4.149936   -9.622589   -1.680144
  29 C     6.0000    0    12.011   -1.338196  -12.072257    0.014660
  30 H     1.0000    0     1.008   -0.127260  -12.183160    1.709952
  31 H     1.0000    0     1.008   -0.086593  -12.174050   -1.651495
  32 C     6.0000    0    12.011   -7.843655   -0.034164   -0.107391
  33 H     1.0000    0     1.008   -9.869846   -0.026500   -0.153810
  34 H     1.0000    0     1.008    3.245992   13.669079    0.037157
  35 H     1.0000    0     1.008   -2.549418  -13.766110   -0.004565
  36 H     1.0000    0     1.008    4.514314    0.145602    0.126103

--------------------------------
INTERNAL COORDINATES (ANGSTROEM)
--------------------------------
 C      0   0   0     0.000000000000     0.00000000     0.00000000
 C      1   0   0     4.231926302072     0.00000000     0.00000000
 C      2   1   0     1.424786169507    61.36156774     0.00000000
 C      3   2   1     1.422700699586   116.49286065     0.00000000
 C      4   3   2     1.399594901976   121.77909396     0.02725077
 C      5   4   3     1.425723147044   120.88827881   359.95955092
 C      2   1   3     1.388738829119    60.21615437   180.02609874
 H      4   3   2     1.090509495316   119.92063508   180.02557275
 H      7   2   1     1.090840566919   118.64161893   180.02237247
 C      3   2   1     1.418592991357   120.87812455   179.96915985
 H     10   3   2     1.095746960056   117.14382204   359.91111501
 C     10   3   2     1.498651124842   125.04376550   179.95634114
 H     12  10   3     1.110194675016   109.95934982   302.60075887
 H     12  10   3     1.110214659609   109.95624550    57.20736408
 C     12  10   3     1.533837416078   113.65401130   179.89868341
 H     15  12  10     1.105796526983   108.99520001   302.33424331
 H     15  12  10     1.105866429049   109.00006495    57.64859023
 C     15  12  10     1.529585912065   113.15831049   179.99880232
 H     18  15  12     1.103930958844   111.29908444    59.88439486
 H     18  15  12     1.103892304737   111.29930041   300.19483087
 C      6   5   4     1.514967163367   119.74116451   179.97078398
 H     21   6   5     1.106715975421   108.33233630   303.06009153
 H     21   6   5     1.106514072393   108.32480061    55.61689592
 C     21   6   5     1.530898257682   116.85339960   179.32952790
 H     24  21   6     1.106234716880   109.84379918   301.99565798
 H     24  21   6     1.106192928042   109.88107071    58.47976894
 C     24  21   6     1.533076810771   112.65855577   180.22092330
 H     27  24  21     1.106275696579   109.21457012   302.36145006
 H     27  24  21     1.106218309427   109.20882160    57.69891632
 C     27  24  21     1.530239524091   113.16942378   180.02119511
 H     30  27  24     1.104026783760   111.31370642    59.91239594
 H     30  27  24     1.104060046015   111.30973629   300.19645147
 C      1   2   3     1.215753615340   178.98256342     3.27836756
 H     33   1   5     1.072503225888   179.68479541    19.74837674
 H     18  15  12     1.101845664646   111.44110119   180.03267647
 H     30  27  24     1.101980905520   111.52185837   180.05557325
 H      2   1   3     1.093883328866   179.80117721   170.17897041

---------------------------
INTERNAL COORDINATES (A.U.)
---------------------------
 C      0   0   0     0.000000000000     0.00000000     0.00000000
 C      1   0   0     7.997181729855     0.00000000     0.00000000
 C      2   1   0     2.692455659767    61.36156774     0.00000000
 C      3   2   1     2.688514692756   116.49286065     0.00000000
 C      4   3   2     2.644851063168   121.77909396     0.02725077
 C      5   4   3     2.694226290706   120.88827881   359.95955092
 C      2   1   3     2.624336058577    60.21615437   180.02609874
 H      4   3   2     2.060764292588   119.92063508   180.02557275
 H      7   2   1     2.061389927248   118.64161893   180.02237247
 C      3   2   1     2.680752249164   120.87812455   179.96915985
 H     10   3   2     2.070661666582   117.14382204   359.91111501
 C     10   3   2     2.832040196244   125.04376550   179.95634114
 H     12  10   3     2.097963891118   109.95934982   302.60075887
 H     12  10   3     2.098001656526   109.95624550    57.20736408
 C     12  10   3     2.898532650348   113.65401130   179.89868341
 H     15  12  10     2.089652595839   108.99520001   302.33424331
 H     15  12  10     2.089784691600   109.00006495    57.64859023
 C     15  12  10     2.890498472107   113.15831049   179.99880232
 H     18  15  12     2.086127182972   111.29908444    59.88439486
 H     18  15  12     2.086054137296   111.29930041   300.19483087
 C      6   5   4     2.862873040646   119.74116451   179.97078398
 H     21   6   5     2.091390101581   108.33233630   303.06009153
 H     21   6   5     2.091008560152   108.32480061    55.61689592
 C     21   6   5     2.892978445916   116.85339960   179.32952790
 H     24  21   6     2.090480654739   109.84379918   301.99565798
 H     24  21   6     2.090401685281   109.88107071    58.47976894
 C     24  21   6     2.897095314623   112.65855577   180.22092330
 H     27  24  21     2.090558095148   109.21457012   302.36145006
 H     27  24  21     2.090449649146   109.20882160    57.69891632
 C     27  24  21     2.891733619834   113.16942378   180.02119511
 H     30  27  24     2.086308265820   111.31370642    59.91239594
 H     30  27  24     2.086371122372   111.30973629   300.19645147
 C      1   2   3     2.297441379317   178.98256342     3.27836756
 H     33   1   5     2.026737374676   179.68479541    19.74837674
 H     18  15  12     2.082186548029   111.44110119   180.03267647
 H     30  27  24     2.082442116243   111.52185837   180.05557325
 H      2   1   3     2.067139914018   179.80117721   170.17897041

---------------------
BASIS SET INFORMATION
---------------------
There are 2 groups of distinct atoms

 Group   1 Type C   : 17s4p1d contracted to 3s2p1d pattern {881/31/1}
 Group   2 Type H   : 4s1p contracted to 2s1p pattern {31/1}

Atom   0C    basis set group =>   1
Atom   1C    basis set group =>   1
Atom   2C    basis set group =>   1
Atom   3C    basis set group =>   1
Atom   4C    basis set group =>   1
Atom   5C    basis set group =>   1
Atom   6C    basis set group =>   1
Atom   7H    basis set group =>   2
Atom   8H    basis set group =>   2
Atom   9C    basis set group =>   1
Atom  10H    basis set group =>   2
Atom  11C    basis set group =>   1
Atom  12H    basis set group =>   2
Atom  13H    basis set group =>   2
Atom  14C    basis set group =>   1
Atom  15H    basis set group =>   2
Atom  16H    basis set group =>   2
Atom  17C    basis set group =>   1
Atom  18H    basis set group =>   2
Atom  19H    basis set group =>   2
Atom  20C    basis set group =>   1
Atom  21H    basis set group =>   2
Atom  22H    basis set group =>   2
Atom  23C    basis set group =>   1
Atom  24H    basis set group =>   2
Atom  25H    basis set group =>   2
Atom  26C    basis set group =>   1
Atom  27H    basis set group =>   2
Atom  28H    basis set group =>   2
Atom  29C    basis set group =>   1
Atom  30H    basis set group =>   2
Atom  31H    basis set group =>   2
Atom  32C    basis set group =>   1
Atom  33H    basis set group =>   2
Atom  34H    basis set group =>   2
Atom  35H    basis set group =>   2
Atom  36H    basis set group =>   2
---------------------------------
AUXILIARY/J BASIS SET INFORMATION
---------------------------------
There are 2 groups of distinct atoms

 Group   1 Type C   : 12s5p4d2f1g contracted to 6s4p3d1f1g pattern {711111/2111/211/2/1}
 Group   2 Type H   : 5s2p1d contracted to 3s1p1d pattern {311/2/1}

Atom   0C    basis set group =>   1
Atom   1C    basis set group =>   1
Atom   2C    basis set group =>   1
Atom   3C    basis set group =>   1
Atom   4C    basis set group =>   1
Atom   5C    basis set group =>   1
Atom   6C    basis set group =>   1
Atom   7H    basis set group =>   2
Atom   8H    basis set group =>   2
Atom   9C    basis set group =>   1
Atom  10H    basis set group =>   2
Atom  11C    basis set group =>   1
Atom  12H    basis set group =>   2
Atom  13H    basis set group =>   2
Atom  14C    basis set group =>   1
Atom  15H    basis set group =>   2
Atom  16H    basis set group =>   2
Atom  17C    basis set group =>   1
Atom  18H    basis set group =>   2
Atom  19H    basis set group =>   2
Atom  20C    basis set group =>   1
Atom  21H    basis set group =>   2
Atom  22H    basis set group =>   2
Atom  23C    basis set group =>   1
Atom  24H    basis set group =>   2
Atom  25H    basis set group =>   2
Atom  26C    basis set group =>   1
Atom  27H    basis set group =>   2
Atom  28H    basis set group =>   2
Atom  29C    basis set group =>   1
Atom  30H    basis set group =>   2
Atom  31H    basis set group =>   2
Atom  32C    basis set group =>   1
Atom  33H    basis set group =>   2
Atom  34H    basis set group =>   2
Atom  35H    basis set group =>   2
Atom  36H    basis set group =>   2


           ************************************************************
           *        Program running with 16 parallel MPI-processes    *
           *              working on a common directory               *
           ************************************************************
------------------------------------------------------------------------------
                           ORCA GTO INTEGRAL CALCULATION
                           -- RI-GTO INTEGRALS CHOSEN --
------------------------------------------------------------------------------
------------------------------------------------------------------------------
                   ___                                                        
                  /   \      - P O W E R E D   B Y -                         
                 /     \                                                     
                 |  |  |   _    _      __       _____    __    __             
                 |  |  |  | |  | |    /  \     |  _  \  |  |  /  |          
                  \  \/   | |  | |   /    \    | | | |  |  | /  /          
                 / \  \   | |__| |  /  /\  \   | |_| |  |  |/  /          
                |  |  |   |  __  | /  /__\  \  |    /   |      \           
                |  |  |   | |  | | |   __   |  |    \   |  |\   \          
                \     /   | |  | | |  |  |  |  | |\  \  |  | \   \       
                 \___/    |_|  |_| |__|  |__|  |_| \__\ |__|  \__/        
                                                                              
                      - O R C A' S   B I G   F R I E N D -                    
                                      &                                       
                       - I N T E G R A L  F E E D E R -                       
                                                                              
 v1 FN, 2020, v2 2021                                                         
------------------------------------------------------------------------------


Reading SHARK input file opt.SHARKINP.tmp ... ok
----------------------
SHARK INTEGRAL PACKAGE
----------------------

Number of atoms                             ...     37
Number of basis functions                   ...    425
Number of shells                            ...    255
Maximum angular momentum                    ...      2
Integral batch strategy                     ... SHARK/LIBINT Hybrid
RI-J (if used) integral strategy            ... SPLIT-RIJ (Revised 2003 algorithm where possible)
Printlevel                                  ...      1
Contraction scheme used                     ... PARTIAL GENERAL contraction
Coulomb Range Separation                    ... NOT USED
Exchange Range Separation                   ... NOT USED
Finite Nucleus Model                        ... NOT USED
Auxiliary Coulomb fitting basis             ... AVAILABLE
   # of basis functions in Aux-J            ...   1015
   # of shells in Aux-J                     ...    345
   Maximum angular momentum in Aux-J        ...      4
Auxiliary J/K fitting basis                 ... NOT available
Auxiliary Correlation fitting basis         ... NOT available
Auxiliary 'external' fitting basis          ... NOT available
Integral threshold                          ...     2.500000e-11
Primitive cut-off                           ...     2.500000e-12
Primitive pair pre-selection threshold      ...     2.500000e-12

Calculating pre-screening integrals         ... done (  0.0 sec) Dimension = 255
Calculating pre-screening integrals (ORCA)  ... done (  0.1 sec) Dimension = 159
Organizing shell pair data                  ... done (  0.1 sec)
Shell pair information
Total number of shell pairs                 ...     32640
Shell pairs after pre-screening             ...     16632
Total number of primitive shell pairs       ...     54396
Primitive shell pairs kept                  ...     23355
          la=0 lb=0:   7436 shell pairs
          la=1 lb=0:   5781 shell pairs
          la=1 lb=1:   1014 shell pairs
          la=2 lb=0:   1709 shell pairs
          la=2 lb=1:    593 shell pairs
          la=2 lb=2:     99 shell pairs

Calculating one electron integrals          ... done (  0.0 sec)
Calculating RI/J V-Matrix + Cholesky decomp.... done (  0.1 sec)
Calculating Nuclear repulsion               ... done (  0.0 sec) ENN=    969.297659821522 Eh

SHARK setup successfully completed in   0.6 seconds

Maximum memory used throughout the entire GTOINT-calculation: 25.9 MB


           ************************************************************
           *        Program running with 16 parallel MPI-processes    *
           *              working on a common directory               *
           ************************************************************
-------------------------------------------------------------------------------
                                 ORCA SCF
-------------------------------------------------------------------------------

------------
SCF SETTINGS
------------
Hamiltonian:
 Density Functional     Method          .... DFT(GTOs)
 Exchange Functional    Exchange        .... B88
   X-Alpha parameter    XAlpha          ....  0.666667
   Becke's b parameter  XBeta           ....  0.004200
 Correlation Functional Correlation     .... LYP
 LDA part of GGA corr.  LDAOpt          .... VWN-5
 Gradients option       PostSCFGGA      .... off
 Hybrid DFT is turned on
   Fraction HF Exchange ScalHFX         ....  0.200000
   Scaling of DF-GGA-X  ScalDFX         ....  0.720000
   Scaling of DF-GGA-C  ScalDFC         ....  0.810000
   Scaling of DF-LDA-C  ScalLDAC        ....  1.000000
   Perturbative correction              ....  0.000000
   Density functional embedding theory  .... OFF
   NL short-range parameter             ....  4.800000
 RI-approximation to the Coulomb term is turned on
   Number of AuxJ basis functions       .... 1015
   RIJ-COSX (HFX calculated with COS-X)).... on


General Settings:
 Integral files         IntName         .... opt
 Hartree-Fock type      HFTyp           .... UHF
 Total Charge           Charge          ....    0
 Multiplicity           Mult            ....    2
 Number of Electrons    NEL             ....  117
 Basis Dimension        Dim             ....  329
 Nuclear Repulsion      ENuc            ....    969.2976598215 Eh

Convergence Acceleration:
 DIIS                   CNVDIIS         .... on
   Start iteration      DIISMaxIt       ....    12
   Startup error        DIISStart       ....  0.200000
   # of expansion vecs  DIISMaxEq       ....     5
   Bias factor          DIISBfac        ....   1.050
   Max. coefficient     DIISMaxC        ....  10.000
 Trust-Rad. Augm. Hess. CNVTRAH         .... auto
   Auto Start mean grad. ratio tolernc. ....  1.125000
   Auto Start start iteration           ....    20
   Auto Start num. interpolation iter.  ....    10
   Max. Number of Micro iterations      ....    16
   Max. Number of Macro iterations      .... Maxiter - #DIIS iter
   Number of Davidson start vectors     ....     2
   Converg. threshold I  (grad. norm)   ....   1.000e-05
   Converg. threshold II (energy diff.) ....   1.000e-08
   Grad. Scal. Fac. for Micro threshold ....   0.100
   Minimum threshold for Micro iter.    ....   0.010
   NR start threshold (gradient norm)   ....   0.001
   Initial trust radius                 ....   0.400
   Minimum AH scaling param. (alpha)    ....   1.000
   Maximum AH scaling param. (alpha)    .... 1000.000
   Orbital update algorithm             .... Taylor
   White noise on init. David. guess    .... on
   Maximum white noise                  ....   0.010
   Quad. conv. algorithm                .... NR
 SOSCF                  CNVSOSCF        .... off
 Level Shifting         CNVShift        .... on
   Level shift para.    LevelShift      ....    0.2500
   Turn off err/grad.   ShiftErr        ....    0.0010
 Zerner damping         CNVZerner       .... off
 Static damping         CNVDamp         .... on
   Fraction old density DampFac         ....    0.7000
   Max. Damping (<1)    DampMax         ....    0.9800
   Min. Damping (>=0)   DampMin         ....    0.0000
   Turn off err/grad.   DampErr         ....    0.1000
 Fernandez-Rico         CNVRico         .... off

SCF Procedure:
 Maximum # iterations   MaxIter         ....   125
 SCF integral mode      SCFMode         .... Direct
   Integral package                     .... SHARK and LIBINT hybrid scheme
 Reset frequency        DirectResetFreq ....    20
 Integral Threshold     Thresh          ....  2.500e-11 Eh
 Primitive CutOff       TCut            ....  2.500e-12 Eh

Convergence Tolerance:
 Convergence Check Mode ConvCheckMode   .... Total+1el-Energy
 Convergence forced     ConvForced      .... 0
 Energy Change          TolE            ....  1.000e-08 Eh
 1-El. energy change                    ....  1.000e-05 Eh
 DIIS Error             TolErr          ....  5.000e-07


Diagonalization of the overlap matrix:
Smallest eigenvalue                        ... 1.556e-04
Time for diagonalization                   ...    0.029 sec
Threshold for overlap eigenvalues          ... 1.000e-08
Number of eigenvalues below threshold      ... 0
Time for construction of square roots      ...    0.032 sec
Total time needed                          ...    0.062 sec

Time for model grid setup =    0.205 sec

------------------------------
INITIAL GUESS: MODEL POTENTIAL
------------------------------
Loading Hartree-Fock densities                     ... done
Calculating cut-offs                               ... done
Initializing the effective Hamiltonian             ... done
Setting up the integral package (SHARK)            ... done
Starting the Coulomb interaction                   ... done (   0.2 sec)
Reading the grid                                   ... done
Mapping shells                                     ... done
Starting the XC term evaluation                    ... done (   0.1 sec)
  promolecular density results
     # of electrons  =    116.988195847
     EX              =    -88.402227194
     EC              =     -3.812505555
     EX+EC           =    -92.214732749
Transforming the Hamiltonian                       ... done (   0.0 sec)
Diagonalizing the Hamiltonian                      ... done (   0.0 sec)
Back transforming the eigenvectors                 ... done (   0.0 sec)
Now organizing SCF variables                       ... done
                      ------------------
                      INITIAL GUESS DONE (   0.7 sec)
                      ------------------
-------------------
DFT GRID GENERATION
-------------------

General Integration Accuracy     IntAcc      ... 4.388
Radial Grid Type                 RadialGrid  ... OptM3 with GC (2021)
Angular Grid (max. ang.)         AngularGrid ... 4 (Lebedev-302)
Angular grid pruning method      GridPruning ... 4 (adaptive)
Weight generation scheme         WeightScheme... Becke
Basis function cutoff            BFCut       ... 1.0000e-11
Integration weight cutoff        WCut        ... 1.0000e-14
Angular grids for H and He will be reduced by one unit
Partially contracted basis set               ... off
Rotationally invariant grid construction     ... off

Total number of grid points                  ...   162767
Total number of batches                      ...     2562
Average number of points per batch           ...       63
Average number of grid points per atom       ...     4399
Time for grid setup =    0.808 sec

--------------------
COSX GRID GENERATION
--------------------

GRIDX 1
-------
General Integration Accuracy     IntAcc      ... 3.816
Radial Grid Type                 RadialGrid  ... OptM3 with GC (2021)
Angular Grid (max. ang.)         AngularGrid ... 1 (Lebedev-50)
Angular grid pruning method      GridPruning ... 4 (adaptive)
Weight generation scheme         WeightScheme... Becke
Basis function cutoff            BFCut       ... 1.0000e-11
Integration weight cutoff        WCut        ... 1.0000e-14
Angular grids for H and He will be reduced by one unit
Partially contracted basis set               ... on
Rotationally invariant grid construction     ... off

Total number of grid points                  ...    20778
Total number of batches                      ...      346
Average number of points per batch           ...       60
Average number of grid points per atom       ...      562
UseSFitting                                  ... on

GRIDX 2
-------
General Integration Accuracy     IntAcc      ... 4.020
Radial Grid Type                 RadialGrid  ... OptM3 with GC (2021)
Angular Grid (max. ang.)         AngularGrid ... 2 (Lebedev-110)
Angular grid pruning method      GridPruning ... 4 (adaptive)
Weight generation scheme         WeightScheme... Becke
Basis function cutoff            BFCut       ... 1.0000e-11
Integration weight cutoff        WCut        ... 1.0000e-14
Angular grids for H and He will be reduced by one unit
Partially contracted basis set               ... on
Rotationally invariant grid construction     ... off

Total number of grid points                  ...    43892
Total number of batches                      ...      706
Average number of points per batch           ...       62
Average number of grid points per atom       ...     1186
UseSFitting                                  ... on

GRIDX 3
-------
General Integration Accuracy     IntAcc      ... 4.338
Radial Grid Type                 RadialGrid  ... OptM3 with GC (2021)
Angular Grid (max. ang.)         AngularGrid ... 3 (Lebedev-194)
Angular grid pruning method      GridPruning ... 4 (adaptive)
Weight generation scheme         WeightScheme... Becke
Basis function cutoff            BFCut       ... 1.0000e-11
Integration weight cutoff        WCut        ... 1.0000e-14
Angular grids for H and He will be reduced by one unit
Partially contracted basis set               ... on
Rotationally invariant grid construction     ... off

Total number of grid points                  ...    95910
Total number of batches                      ...     1517
Average number of points per batch           ...       63
Average number of grid points per atom       ...     2592
UseSFitting                                  ... on

Time for X-Grid setup             =    1.605 sec

 re-compute Schwartz prescreening matrix in partically contracted basis (1) ...done (   0.117 sec)
--------------
SCF ITERATIONS
--------------
ITER       Energy         Delta-E        Max-DP      RMS-DP      [F,P]     Damp
               ***  Starting incremental Fock matrix formation  ***
  0   -621.4398656735   0.000000000000 0.06493697  0.00092876  0.0869919 0.7000
  1   -621.6268456235  -0.186979950074 0.04761264  0.00068509  0.0458495 0.7000
                               ***Turning on DIIS***
  2   -621.7097466290  -0.082901005443 0.09269495  0.00128965  0.0175621 0.0000
  3   -621.8254633690  -0.115716740016 0.01896874  0.00037123  0.0249309 0.0000
  4   -621.8573864907  -0.031923121702 0.00859592  0.00012965  0.0064676 0.0000
  5   -621.8594096266  -0.002023135864 0.00334274  0.00004601  0.0032330 0.0000
  6   -621.8597066446  -0.000297018077 0.00329328  0.00002694  0.0018863 0.0000
  7   -621.8598112211  -0.000104576443 0.00153670  0.00001678  0.0013105 0.0000
  8   -621.8598587356  -0.000047514461 0.00205503  0.00002596  0.0007868 0.0000
               *** Restarting incremental Fock matrix formation ***
                                   *** Resetting DIIS ***
  9   -621.8601715217  -0.000312786157 0.00108866  0.00001258  0.0006222 0.0000
 10   -621.8601698458   0.000001675873 0.00038014  0.00000406  0.0012133 0.0000
 11   -621.8601774469  -0.000007601062 0.00037809  0.00000395  0.0004392 0.0000
 12   -621.8601795037  -0.000002056799 0.00047078  0.00000472  0.0001349 0.0000
 13   -621.8601806368  -0.000001133144 0.00017570  0.00000154  0.0001051 0.0000
 14   -621.8601808035  -0.000000166670 0.00011851  0.00000119  0.0000611 0.0000
 15   -621.8601808871  -0.000000083567 0.00003434  0.00000037  0.0000118 0.0000
 16   -621.8601808877  -0.000000000615 0.00002178  0.00000025  0.0000113 0.0000
 17   -621.8601809016  -0.000000013875 0.00001130  0.00000012  0.0000080 0.0000
 18   -621.8601809128  -0.000000011199 0.00000866  0.00000007  0.0000068 0.0000
                 **** Energy Check signals convergence ****

               *****************************************************
               *                     SUCCESS                       *
               *           SCF CONVERGED AFTER  19 CYCLES          *
               *****************************************************

Old exchange energy                            =    -18.068918697 Eh
New exchange energy                            =    -18.069011144 Eh
Exchange energy change after final integration =     -0.000092447 Eh
Total energy after final integration           =   -621.860273357 Eh
Final COS-X integration done in                =     3.821 sec

----------------
TOTAL SCF ENERGY
----------------

Total Energy       :         -621.86027336 Eh          -16921.67832 eV

Components:
Nuclear Repulsion  :          969.29765982 Eh           26375.93025 eV
Electronic Energy  :        -1591.15793318 Eh          -43297.60857 eV
One Electron Energy:        -2760.80729864 Eh          -75125.38590 eV
Two Electron Energy:         1169.64936546 Eh           31827.77733 eV
Max COSX asymmetry :            0.00000043 Eh               0.00001 eV

Virial components:
Potential Energy   :        -1239.23676556 Eh          -33721.34675 eV
Kinetic Energy     :          617.37649220 Eh           16799.66843 eV
Virial Ratio       :            2.00726264


DFT components:
N(Alpha)           :       59.000109411643 electrons
N(Beta)            :       58.000103480993 electrons
N(Total)           :      117.000212892636 electrons
E(X)               :      -71.621968121137 Eh       
E(C)               :       -4.507449745955 Eh       
E(XC)              :      -76.129417867092 Eh       
DFET-embed. en.    :        0.000000000000 Eh       

---------------
SCF CONVERGENCE
---------------

  Last Energy change         ...    2.8617e-09  Tolerance :   1.0000e-08
  Last MAX-Density change    ...    0.0000e+00  Tolerance :   1.0000e-07
  Last RMS-Density change    ...    0.0000e+00  Tolerance :   5.0000e-09
  Last DIIS Error            ...    2.5538e-06  Tolerance :   5.0000e-07

             **** THE GBW FILE WAS UPDATED (opt.gbw) ****
             **** DENSITY opt.scfp WAS UPDATED ****
             **** ENERGY FILE WAS UPDATED (opt.en.tmp) ****
----------------------
UHF SPIN CONTAMINATION
----------------------

Warning: in a DFT calculation there is little theoretical justification to 
         calculate <S**2> as in Hartree-Fock theory. We will do it anyways
         but you should keep in mind that the values have only limited relevance

Expectation value of <S**2>     :     0.781642
Ideal value S*(S+1) for S=0.5   :     0.750000
Deviation                       :     0.031642

             **** THE GBW FILE WAS UPDATED (opt.gbw) ****
             **** DENSITY opt.scfp WAS UPDATED ****
----------------
ORBITAL ENERGIES
----------------
                 SPIN UP ORBITALS
  NO   OCC          E(Eh)            E(eV) 
   0   1.0000     -10.207403      -277.7576 
   1   1.0000     -10.199218      -277.5348 
   2   1.0000     -10.192031      -277.3393 
   3   1.0000     -10.191473      -277.3241 
   4   1.0000     -10.190748      -277.3044 
   5   1.0000     -10.189371      -277.2669 
   6   1.0000     -10.188398      -277.2404 
   7   1.0000     -10.187081      -277.2046 
   8   1.0000     -10.184276      -277.1282 
   9   1.0000     -10.184263      -277.1279 
  10   1.0000     -10.184016      -277.1212 
  11   1.0000     -10.182568      -277.0818 
  12   1.0000     -10.180777      -277.0330 
  13   1.0000     -10.180568      -277.0273 
  14   1.0000     -10.176962      -276.9292 
  15   1.0000     -10.175090      -276.8783 
  16   1.0000      -0.865768       -23.5587 
  17   1.0000      -0.814459       -22.1626 
  18   1.0000      -0.794924       -21.6310 
  19   1.0000      -0.780045       -21.2261 
  20   1.0000      -0.763650       -20.7800 
  21   1.0000      -0.730572       -19.8799 
  22   1.0000      -0.723542       -19.6886 
  23   1.0000      -0.696217       -18.9450 
  24   1.0000      -0.653513       -17.7830 
  25   1.0000      -0.622603       -16.9419 
  26   1.0000      -0.612849       -16.6765 
  27   1.0000      -0.588235       -16.0067 
  28   1.0000      -0.578596       -15.7444 
  29   1.0000      -0.559054       -15.2126 
  30   1.0000      -0.525772       -14.3070 
  31   1.0000      -0.494628       -13.4595 
  32   1.0000      -0.472561       -12.8590 
  33   1.0000      -0.469152       -12.7663 
  34   1.0000      -0.462229       -12.5779 
  35   1.0000      -0.461722       -12.5641 
  36   1.0000      -0.428521       -11.6606 
  37   1.0000      -0.426173       -11.5968 
  38   1.0000      -0.422525       -11.4975 
  39   1.0000      -0.419419       -11.4130 
  40   1.0000      -0.410260       -11.1637 
  41   1.0000      -0.395315       -10.7571 
  42   1.0000      -0.387693       -10.5497 
  43   1.0000      -0.375314       -10.2128 
  44   1.0000      -0.374319       -10.1857 
  45   1.0000      -0.362867        -9.8741 
  46   1.0000      -0.347988        -9.4692 
  47   1.0000      -0.347632        -9.4595 
  48   1.0000      -0.338187        -9.2025 
  49   1.0000      -0.331272        -9.0144 
  50   1.0000      -0.330458        -8.9922 
  51   1.0000      -0.324924        -8.8416 
  52   1.0000      -0.322393        -8.7728 
  53   1.0000      -0.321180        -8.7398 
  54   1.0000      -0.307959        -8.3800 
  55   1.0000      -0.271987        -7.4012 
  56   1.0000      -0.267920        -7.2905 
  57   1.0000      -0.236276        -6.4294 
  58   1.0000      -0.171307        -4.6615 
  59   0.0000      -0.031430        -0.8552 
  60   0.0000       0.015210         0.4139 
  61   0.0000       0.048176         1.3109 
  62   0.0000       0.063140         1.7181 
  63   0.0000       0.063779         1.7355 
  64   0.0000       0.077405         2.1063 
  65   0.0000       0.083922         2.2836 
  66   0.0000       0.088615         2.4113 
  67   0.0000       0.088864         2.4181 
  68   0.0000       0.094410         2.5690 
  69   0.0000       0.097090         2.6420 
  70   0.0000       0.098538         2.6813 
  71   0.0000       0.104235         2.8364 
  72   0.0000       0.111968         3.0468 
  73   0.0000       0.129546         3.5251 
  74   0.0000       0.132602         3.6083 
  75   0.0000       0.147111         4.0031 
  76   0.0000       0.149259         4.0615 
  77   0.0000       0.149394         4.0652 
  78   0.0000       0.160115         4.3569 
  79   0.0000       0.162969         4.4346 
  80   0.0000       0.167916         4.5692 
  81   0.0000       0.169478         4.6117 
  82   0.0000       0.171981         4.6798 
  83   0.0000       0.181021         4.9258 
  84   0.0000       0.191842         5.2203 
  85   0.0000       0.206245         5.6122 
  86   0.0000       0.213031         5.7969 
  87   0.0000       0.224746         6.1156 
  88   0.0000       0.229143         6.2353 
  89   0.0000       0.238995         6.5034 
  90   0.0000       0.255375         6.9491 
  91   0.0000       0.262505         7.1431 
  92   0.0000       0.283285         7.7086 
  93   0.0000       0.301118         8.1938 
  94   0.0000       0.319230         8.6867 
  95   0.0000       0.341780         9.3003 
  96   0.0000       0.346891         9.4394 
  97   0.0000       0.363685         9.8964 
  98   0.0000       0.368721        10.0334 
  99   0.0000       0.403079        10.9683 
 100   0.0000       0.411063        11.1856 
 101   0.0000       0.413206        11.2439 
 102   0.0000       0.413483        11.2514 
 103   0.0000       0.421528        11.4704 
 104   0.0000       0.431087        11.7305 
 105   0.0000       0.445465        12.1217 
 106   0.0000       0.454122        12.3573 
 107   0.0000       0.466076        12.6826 
 108   0.0000       0.466433        12.6923 
 109   0.0000       0.479903        13.0588 
 110   0.0000       0.482209        13.1216 
 111   0.0000       0.485891        13.2218 
 112   0.0000       0.492953        13.4139 
 113   0.0000       0.509146        13.8546 
 114   0.0000       0.513478        13.9724 
 115   0.0000       0.518690        14.1143 
 116   0.0000       0.522881        14.2283 
 117   0.0000       0.527808        14.3624 
 118   0.0000       0.535386        14.5686 
 119   0.0000       0.545563        14.8455 
 120   0.0000       0.554592        15.0912 
 121   0.0000       0.560560        15.2536 
 122   0.0000       0.569606        15.4998 
 123   0.0000       0.592309        16.1176 
 124   0.0000       0.595651        16.2085 
 125   0.0000       0.605647        16.4805 
 126   0.0000       0.616298        16.7703 
 127   0.0000       0.616625        16.7792 
 128   0.0000       0.620743        16.8913 
 129   0.0000       0.621455        16.9107 
 130   0.0000       0.640255        17.4222 
 131   0.0000       0.641157        17.4468 
 132   0.0000       0.644494        17.5376 
 133   0.0000       0.645131        17.5549 
 134   0.0000       0.652607        17.7583 
 135   0.0000       0.654655        17.8141 
 136   0.0000       0.658827        17.9276 
 137   0.0000       0.660574        17.9751 
 138   0.0000       0.662155        18.0182 
 139   0.0000       0.663514        18.0551 
 140   0.0000       0.668400        18.1881 
 141   0.0000       0.671802        18.2807 
 142   0.0000       0.683885        18.6095 
 143   0.0000       0.688952        18.7473 
 144   0.0000       0.690754        18.7964 
 145   0.0000       0.694862        18.9081 
 146   0.0000       0.696319        18.9478 
 147   0.0000       0.704845        19.1798 
 148   0.0000       0.711397        19.3581 
 149   0.0000       0.714198        19.4343 
 150   0.0000       0.729739        19.8572 
 151   0.0000       0.733293        19.9539 
 152   0.0000       0.733733        19.9659 
 153   0.0000       0.743222        20.2241 
 154   0.0000       0.747649        20.3446 
 155   0.0000       0.753381        20.5006 
 156   0.0000       0.764361        20.7993 
 157   0.0000       0.785394        21.3717 
 158   0.0000       0.814056        22.1516 
 159   0.0000       0.819516        22.3002 
 160   0.0000       0.832966        22.6661 
 161   0.0000       0.837058        22.7775 
 162   0.0000       0.842643        22.9295 
 163   0.0000       0.871794        23.7227 
 164   0.0000       0.888258        24.1707 
 165   0.0000       0.904834        24.6218 
 166   0.0000       0.920645        25.0520 
 167   0.0000       0.923834        25.1388 
 168   0.0000       0.941049        25.6072 
 169   0.0000       0.950881        25.8748 
 170   0.0000       0.958686        26.0872 
 171   0.0000       0.994643        27.0656 
 172   0.0000       0.995295        27.0833 
 173   0.0000       1.012041        27.5390 
 174   0.0000       1.018759        27.7218 
 175   0.0000       1.037893        28.2425 
 176   0.0000       1.040540        28.3145 
 177   0.0000       1.053546        28.6685 
 178   0.0000       1.061247        28.8780 
 179   0.0000       1.069188        29.0941 
 180   0.0000       1.082084        29.4450 
 181   0.0000       1.082867        29.4663 
 182   0.0000       1.134616        30.8745 
 183   0.0000       1.160570        31.5807 
 184   0.0000       1.186465        32.2854 
 185   0.0000       1.205872        32.8134 
 186   0.0000       1.209464        32.9112 
 187   0.0000       1.211064        32.9547 
 188   0.0000       1.218395        33.1542 
 189   0.0000       1.219315        33.1793 
 190   0.0000       1.224602        33.3231 
 191   0.0000       1.227202        33.3939 
 192   0.0000       1.233738        33.5717 
 193   0.0000       1.253661        34.1139 
 194   0.0000       1.286203        34.9994 
 195   0.0000       1.294878        35.2354 
 196   0.0000       1.311897        35.6985 
 197   0.0000       1.323226        36.0068 
 198   0.0000       1.340454        36.4756 
 199   0.0000       1.342400        36.5286 
 200   0.0000       1.346142        36.6304 
 201   0.0000       1.374552        37.4035 
 202   0.0000       1.379380        37.5348 
 203   0.0000       1.392811        37.9003 
 204   0.0000       1.414760        38.4976 
 205   0.0000       1.425359        38.7860 
 206   0.0000       1.426981        38.8301 
 207   0.0000       1.427197        38.8360 
 208   0.0000       1.433791        39.0154 
 209   0.0000       1.445060        39.3221 
 210   0.0000       1.465426        39.8763 
 211   0.0000       1.469174        39.9782 
 212   0.0000       1.470849        40.0238 
 213   0.0000       1.492286        40.6072 
 214   0.0000       1.500074        40.8191 
 215   0.0000       1.523068        41.4448 
 216   0.0000       1.531698        41.6796 
 217   0.0000       1.546250        42.0756 
 218   0.0000       1.573011        42.8038 
 219   0.0000       1.579085        42.9691 
 220   0.0000       1.591940        43.3189 
 221   0.0000       1.596197        43.4347 
 222   0.0000       1.602675        43.6110 
 223   0.0000       1.616933        43.9990 
 224   0.0000       1.623523        44.1783 
 225   0.0000       1.627236        44.2794 
 226   0.0000       1.630493        44.3680 
 227   0.0000       1.632751        44.4294 
 228   0.0000       1.635633        44.5078 
 229   0.0000       1.640356        44.6364 
 230   0.0000       1.645590        44.7788 
 231   0.0000       1.652827        44.9757 
 232   0.0000       1.658266        45.1237 
 233   0.0000       1.671235        45.4766 
 234   0.0000       1.678602        45.6771 
 235   0.0000       1.683831        45.8194 
 236   0.0000       1.686316        45.8870 
 237   0.0000       1.693474        46.0818 
 238   0.0000       1.696173        46.1552 
 239   0.0000       1.701924        46.3117 
 240   0.0000       1.704553        46.3833 
 241   0.0000       1.709315        46.5128 
 242   0.0000       1.713648        46.6307 
 243   0.0000       1.724030        46.9132 
 244   0.0000       1.732789        47.1516 
 245   0.0000       1.741932        47.4004 
 246   0.0000       1.751898        47.6716 
 247   0.0000       1.755757        47.7766 
 248   0.0000       1.760298        47.9001 
 249   0.0000       1.776357        48.3371 
 250   0.0000       1.780484        48.4494 
 251   0.0000       1.791610        48.7522 
 252   0.0000       1.797258        48.9059 
 253   0.0000       1.798321        48.9348 
 254   0.0000       1.817406        49.4541 
 255   0.0000       1.821057        49.5535 
 256   0.0000       1.824438        49.6455 
 257   0.0000       1.837494        50.0008 
 258   0.0000       1.859977        50.6125 
 259   0.0000       1.878454        51.1153 
 260   0.0000       1.878821        51.1253 
 261   0.0000       1.894338        51.5476 
 262   0.0000       1.910776        51.9949 
 263   0.0000       1.920827        52.2684 
 264   0.0000       1.929230        52.4970 
 265   0.0000       1.938523        52.7499 
 266   0.0000       1.941712        52.8367 
 267   0.0000       1.950401        53.0731 
 268   0.0000       1.971343        53.6430 
 269   0.0000       1.997083        54.3434 
 270   0.0000       2.001828        54.4725 
 271   0.0000       2.011340        54.7313 
 272   0.0000       2.030948        55.2649 
 273   0.0000       2.043827        55.6154 
 274   0.0000       2.063530        56.1515 
 275   0.0000       2.076853        56.5140 
 276   0.0000       2.090712        56.8912 
 277   0.0000       2.091156        56.9032 
 278   0.0000       2.116015        57.5797 
 279   0.0000       2.135916        58.1212 
 280   0.0000       2.153842        58.6090 
 281   0.0000       2.158912        58.7470 
 282   0.0000       2.170194        59.0540 
 283   0.0000       2.180475        59.3337 
 284   0.0000       2.184638        59.4470 
 285   0.0000       2.202588        59.9355 
 286   0.0000       2.207626        60.0726 
 287   0.0000       2.221430        60.4482 
 288   0.0000       2.224494        60.5316 
 289   0.0000       2.227206        60.6054 
 290   0.0000       2.263462        61.5919 
 291   0.0000       2.279315        62.0233 
 292   0.0000       2.287894        62.2568 
 293   0.0000       2.294623        62.4399 
 294   0.0000       2.298677        62.5502 
 295   0.0000       2.302928        62.6659 
 296   0.0000       2.321318        63.1663 
 297   0.0000       2.334242        63.5179 
 298   0.0000       2.352894        64.0255 
 299   0.0000       2.355469        64.0956 
 300   0.0000       2.405634        65.4606 
 301   0.0000       2.410103        65.5822 
 302   0.0000       2.412229        65.6401 
 303   0.0000       2.413062        65.6628 
 304   0.0000       2.413178        65.6659 
 305   0.0000       2.426646        66.0324 
 306   0.0000       2.445891        66.5561 
 307   0.0000       2.466059        67.1049 
 308   0.0000       2.474780        67.3422 
 309   0.0000       2.506918        68.2167 
 310   0.0000       2.535812        69.0030 
 311   0.0000       2.536609        69.0246 
 312   0.0000       2.557147        69.5835 
 313   0.0000       2.596511        70.6547 
 314   0.0000       2.597133        70.6716 
 315   0.0000       2.626849        71.4802 
 316   0.0000       2.641612        71.8819 
 317   0.0000       2.680392        72.9372 
 318   0.0000       2.688726        73.1640 
 319   0.0000       2.714289        73.8595 
 320   0.0000       2.722717        74.0889 
 321   0.0000       2.742051        74.6150 
 322   0.0000       2.771225        75.4089 
 323   0.0000       2.820106        76.7390 
 324   0.0000       2.837231        77.2050 
 325   0.0000       2.930914        79.7542 
 326   0.0000       2.989760        81.3555 
 327   0.0000       3.195993        86.9674 
 328   0.0000       3.434856        93.4672 

                 SPIN DOWN ORBITALS
  NO   OCC          E(Eh)            E(eV) 
   0   1.0000     -10.208930      -277.7991 
   1   1.0000     -10.195683      -277.4386 
   2   1.0000     -10.194340      -277.4021 
   3   1.0000     -10.188025      -277.2302 
   4   1.0000     -10.187802      -277.2242 
   5   1.0000     -10.187617      -277.2192 
   6   1.0000     -10.186285      -277.1829 
   7   1.0000     -10.185692      -277.1668 
   8   1.0000     -10.184485      -277.1339 
   9   1.0000     -10.183973      -277.1200 
  10   1.0000     -10.183148      -277.0976 
  11   1.0000     -10.181045      -277.0403 
  12   1.0000     -10.180777      -277.0330 
  13   1.0000     -10.180566      -277.0273 
  14   1.0000     -10.176970      -276.9294 
  15   1.0000     -10.175091      -276.8783 
  16   1.0000      -0.862269       -23.4635 
  17   1.0000      -0.808596       -22.0030 
  18   1.0000      -0.793324       -21.5874 
  19   1.0000      -0.779337       -21.2068 
  20   1.0000      -0.761469       -20.7206 
  21   1.0000      -0.726453       -19.7678 
  22   1.0000      -0.721476       -19.6324 
  23   1.0000      -0.693912       -18.8823 
  24   1.0000      -0.650355       -17.6970 
  25   1.0000      -0.619927       -16.8691 
  26   1.0000      -0.607224       -16.5234 
  27   1.0000      -0.587129       -15.9766 
  28   1.0000      -0.576397       -15.6846 
  29   1.0000      -0.556405       -15.1406 
  30   1.0000      -0.524072       -14.2607 
  31   1.0000      -0.492226       -13.3941 
  32   1.0000      -0.470450       -12.8016 
  33   1.0000      -0.468332       -12.7440 
  34   1.0000      -0.460390       -12.5279 
  35   1.0000      -0.458232       -12.4691 
  36   1.0000      -0.426239       -11.5985 
  37   1.0000      -0.425015       -11.5652 
  38   1.0000      -0.421550       -11.4709 
  39   1.0000      -0.416919       -11.3449 
  40   1.0000      -0.409760       -11.1501 
  41   1.0000      -0.387463       -10.5434 
  42   1.0000      -0.386434       -10.5154 
  43   1.0000      -0.372236       -10.1291 
  44   1.0000      -0.370717       -10.0877 
  45   1.0000      -0.361849        -9.8464 
  46   1.0000      -0.346602        -9.4315 
  47   1.0000      -0.344946        -9.3865 
  48   1.0000      -0.336096        -9.1456 
  49   1.0000      -0.330624        -8.9967 
  50   1.0000      -0.328465        -8.9380 
  51   1.0000      -0.324418        -8.8279 
  52   1.0000      -0.321811        -8.7569 
  53   1.0000      -0.320270        -8.7150 
  54   1.0000      -0.305560        -8.3147 
  55   1.0000      -0.271904        -7.3989 
  56   1.0000      -0.252789        -6.8787 
  57   1.0000      -0.228054        -6.2057 
  58   0.0000      -0.074586        -2.0296 
  59   0.0000      -0.022338        -0.6078 
  60   0.0000       0.033025         0.8987 
  61   0.0000       0.048600         1.3225 
  62   0.0000       0.063744         1.7345 
  63   0.0000       0.063945         1.7400 
  64   0.0000       0.078660         2.1404 
  65   0.0000       0.084642         2.3032 
  66   0.0000       0.089359         2.4316 
  67   0.0000       0.091926         2.5014 
  68   0.0000       0.094316         2.5665 
  69   0.0000       0.098104         2.6696 
  70   0.0000       0.098959         2.6928 
  71   0.0000       0.105014         2.8576 
  72   0.0000       0.112472         3.0605 
  73   0.0000       0.130379         3.5478 
  74   0.0000       0.133049         3.6205 
  75   0.0000       0.147331         4.0091 
  76   0.0000       0.150439         4.0937 
  77   0.0000       0.151088         4.1113 
  78   0.0000       0.160746         4.3741 
  79   0.0000       0.163205         4.4410 
  80   0.0000       0.168958         4.5976 
  81   0.0000       0.171128         4.6566 
  82   0.0000       0.175641         4.7794 
  83   0.0000       0.181335         4.9344 
  84   0.0000       0.196105         5.3363 
  85   0.0000       0.207294         5.6407 
  86   0.0000       0.213678         5.8145 
  87   0.0000       0.224961         6.1215 
  88   0.0000       0.232114         6.3161 
  89   0.0000       0.240670         6.5490 
  90   0.0000       0.255956         6.9649 
  91   0.0000       0.265618         7.2278 
  92   0.0000       0.283466         7.7135 
  93   0.0000       0.303535         8.2596 
  94   0.0000       0.319564         8.6958 
  95   0.0000       0.343451         9.3458 
  96   0.0000       0.348387         9.4801 
  97   0.0000       0.364958         9.9310 
  98   0.0000       0.370418        10.0796 
  99   0.0000       0.404708        11.0127 
 100   0.0000       0.411292        11.1918 
 101   0.0000       0.413627        11.2554 
 102   0.0000       0.414007        11.2657 
 103   0.0000       0.422097        11.4858 
 104   0.0000       0.434691        11.8285 
 105   0.0000       0.457036        12.4366 
 106   0.0000       0.461223        12.5505 
 107   0.0000       0.466889        12.7047 
 108   0.0000       0.470295        12.7974 
 109   0.0000       0.482457        13.1283 
 110   0.0000       0.488553        13.2942 
 111   0.0000       0.491091        13.3633 
 112   0.0000       0.495658        13.4875 
 113   0.0000       0.510554        13.8929 
 114   0.0000       0.514514        14.0006 
 115   0.0000       0.523803        14.2534 
 116   0.0000       0.525355        14.2956 
 117   0.0000       0.538054        14.6412 
 118   0.0000       0.539042        14.6681 
 119   0.0000       0.546419        14.8688 
 120   0.0000       0.555798        15.1240 
 121   0.0000       0.571263        15.5449 
 122   0.0000       0.573792        15.6137 
 123   0.0000       0.594192        16.1688 
 124   0.0000       0.597157        16.2495 
 125   0.0000       0.606530        16.5045 
 126   0.0000       0.617186        16.7945 
 127   0.0000       0.618427        16.8283 
 128   0.0000       0.621920        16.9233 
 129   0.0000       0.626468        17.0471 
 130   0.0000       0.640724        17.4350 
 131   0.0000       0.641298        17.4506 
 132   0.0000       0.645291        17.5593 
 133   0.0000       0.648020        17.6335 
 134   0.0000       0.653342        17.7783 
 135   0.0000       0.656158        17.8550 
 136   0.0000       0.659171        17.9370 
 137   0.0000       0.661393        17.9974 
 138   0.0000       0.662441        18.0259 
 139   0.0000       0.666484        18.1359 
 140   0.0000       0.670096        18.2342 
 141   0.0000       0.673267        18.3205 
 142   0.0000       0.685549        18.6547 
 143   0.0000       0.689355        18.7583 
 144   0.0000       0.691664        18.8211 
 145   0.0000       0.695937        18.9374 
 146   0.0000       0.697434        18.9782 
 147   0.0000       0.705781        19.2053 
 148   0.0000       0.712761        19.3952 
 149   0.0000       0.716468        19.4961 
 150   0.0000       0.730539        19.8790 
[...]
      pz      :     0.033984  p :     0.076146
      px      :     0.026113
      py      :     0.016048
 19 H s       :     0.898202  s :     0.898202
      pz      :     0.035187  p :     0.076145
      px      :     0.024954
      py      :     0.016004
 20 C s       :     2.791230  s :     2.791230
      pz      :     1.046080  p :     3.053123
      px      :     1.021971
      py      :     0.985071
      dz2     :     0.026841  d :     0.191928
      dxz     :     0.053798
      dyz     :     0.020899
      dx2y2   :     0.042581
      dxy     :     0.047809
 21 H s       :     0.883123  s :     0.883123
      pz      :     0.034248  p :     0.077636
      px      :     0.028050
      py      :     0.015338
 22 H s       :     0.883150  s :     0.883150
      pz      :     0.034812  p :     0.077691
      px      :     0.027552
      py      :     0.015327
 23 C s       :     2.799169  s :     2.799169
      pz      :     1.040496  p :     3.053753
      px      :     1.022664
      py      :     0.990592
      dz2     :     0.027570  d :     0.190832
      dxz     :     0.058223
      dyz     :     0.018481
      dx2y2   :     0.038430
      dxy     :     0.048128
 24 H s       :     0.899606  s :     0.899606
      pz      :     0.034132  p :     0.076873
      px      :     0.026893
      py      :     0.015849
 25 H s       :     0.899645  s :     0.899645
      pz      :     0.034819  p :     0.076884
      px      :     0.026194
      py      :     0.015870
 26 C s       :     2.799258  s :     2.799258
      pz      :     1.042014  p :     3.055840
      px      :     1.021316
      py      :     0.992509
      dz2     :     0.027826  d :     0.191952
      dxz     :     0.057227
      dyz     :     0.018597
      dx2y2   :     0.039577
      dxy     :     0.048724
 27 H s       :     0.900037  s :     0.900037
      pz      :     0.033564  p :     0.075824
      px      :     0.026693
      py      :     0.015567
 28 H s       :     0.900038  s :     0.900038
      pz      :     0.034271  p :     0.075820
      px      :     0.025986
      py      :     0.015563
 29 C s       :     2.806603  s :     2.806603
      pz      :     1.053806  p :     3.115026
      px      :     1.041587
      py      :     1.019634
      dz2     :     0.026066  d :     0.146135
      dxz     :     0.045794
      dyz     :     0.009373
      dx2y2   :     0.024417
      dxy     :     0.040486
 30 H s       :     0.899086  s :     0.899086
      pz      :     0.034909  p :     0.076077
      px      :     0.025536
      py      :     0.015632
 31 H s       :     0.899065  s :     0.899065
      pz      :     0.034175  p :     0.076081
      px      :     0.026280
      py      :     0.015625
 32 C s       :     2.908273  s :     2.908273
      pz      :     0.980095  p :     3.047241
      px      :     1.085761
      py      :     0.981384
      dz2     :     0.012584  d :     0.099765
      dxz     :     0.024852
      dyz     :     0.000016
      dx2y2   :     0.037740
      dxy     :     0.024573
 33 H s       :     0.883897  s :     0.883897
      pz      :     0.020074  p :     0.094371
      px      :     0.054704
      py      :     0.019593
 34 H s       :     0.895516  s :     0.895516
      pz      :     0.015532  p :     0.076431
      px      :     0.029008
      py      :     0.031891
 35 H s       :     0.896261  s :     0.896261
      pz      :     0.015507  p :     0.076382
      px      :     0.025588
      py      :     0.035287
 36 H s       :     0.894943  s :     0.894943
      pz      :     0.018128  p :     0.080394
      px      :     0.047735
      py      :     0.014530

SPIN
  0 C s       :     0.001278  s :     0.001278
      pz      :     0.013332  p :     0.018317
      px      :     0.000938
      py      :     0.004047
      dz2     :    -0.000079  d :    -0.006599
      dxz     :    -0.005800
      dyz     :     0.000048
      dx2y2   :    -0.000234
      dxy     :    -0.000535
  1 C s       :     0.005777  s :     0.005777
      pz      :     0.161269  p :     0.169727
      px      :     0.004056
      py      :     0.004401
      dz2     :    -0.000697  d :    -0.007668
      dxz     :    -0.000663
      dyz     :    -0.004671
      dx2y2   :    -0.000978
      dxy     :    -0.000659
  2 C s       :    -0.006542  s :    -0.006542
      pz      :    -0.086045  p :    -0.101583
      px      :    -0.006548
      py      :    -0.008989
      dz2     :     0.000521  d :     0.040395
      dxz     :     0.011002
      dyz     :     0.025878
      dx2y2   :     0.001381
      dxy     :     0.001612
  3 C s       :     0.005738  s :     0.005738
      pz      :     0.163747  p :     0.172340
      px      :     0.004565
      py      :     0.004028
      dz2     :    -0.000678  d :    -0.007575
      dxz     :    -0.003638
      dyz     :    -0.001611
      dx2y2   :    -0.000610
      dxy     :    -0.001038
  4 C s       :    -0.003576  s :    -0.003576
      pz      :    -0.060785  p :    -0.068174
      px      :    -0.002772
      py      :    -0.004617
      dz2     :     0.000330  d :     0.016940
      dxz     :     0.001592
      dyz     :     0.013454
      dx2y2   :     0.000619
      dxy     :     0.000945
  5 C s       :     0.006272  s :     0.006272
      pz      :     0.170881  p :     0.180066
      px      :     0.004684
      py      :     0.004501
      dz2     :    -0.000719  d :    -0.005954
      dxz     :    -0.002741
      dyz     :    -0.001357
      dx2y2   :    -0.000572
      dxy     :    -0.000565
  6 C s       :    -0.003732  s :    -0.003732
      pz      :    -0.068598  p :    -0.076296
      px      :    -0.004363
      py      :    -0.003335
      dz2     :     0.000343  d :     0.017286
      dxz     :     0.010534
      dyz     :     0.005044
      dx2y2   :     0.000721
      dxy     :     0.000643
  7 H s       :    -0.004969  s :    -0.004969
      pz      :     0.005021  p :     0.005828
      px      :     0.000306
      py      :     0.000502
  8 H s       :     0.002068  s :     0.002068
      pz      :    -0.002045  p :    -0.002517
      px      :    -0.000205
      py      :    -0.000267
  9 C s       :     0.019010  s :     0.019010
      pz      :     0.569492  p :     0.594192
      px      :     0.012650
      py      :     0.012050
      dz2     :    -0.002181  d :    -0.006389
      dxz     :    -0.000214
      dyz     :    -0.001682
      dx2y2   :    -0.001283
      dxy     :    -0.001029
 10 H s       :    -0.016476  s :    -0.016476
      pz      :     0.016888  p :     0.019442
      px      :     0.002346
      py      :     0.000208
 11 C s       :    -0.003621  s :    -0.003621
      pz      :    -0.004290  p :    -0.018895
      px      :    -0.005230
      py      :    -0.009375
      dz2     :     0.000453  d :     0.028412
      dxz     :     0.013049
      dyz     :     0.013333
      dx2y2   :     0.000704
      dxy     :     0.000872
 12 H s       :     0.026690  s :     0.026690
      pz      :    -0.000187  p :    -0.000603
      px      :    -0.000349
      py      :    -0.000067
 13 H s       :     0.026599  s :     0.026599
      pz      :    -0.000180  p :    -0.000602
      px      :    -0.000356
      py      :    -0.000066
 14 C s       :     0.000154  s :     0.000154
      pz      :     0.001135  p :     0.001677
      px      :     0.000346
      py      :     0.000196
      dz2     :    -0.000063  d :    -0.000541
      dxz     :     0.000160
      dyz     :    -0.000137
      dx2y2   :    -0.000428
      dxy     :    -0.000073
 15 H s       :     0.000161  s :     0.000161
      pz      :     0.000038  p :     0.000184
      px      :     0.000084
      py      :     0.000061
 16 H s       :     0.000155  s :     0.000155
      pz      :     0.000034  p :     0.000182
      px      :     0.000086
      py      :     0.000062
 17 C s       :    -0.000184  s :    -0.000184
      pz      :     0.000418  p :     0.000026
      px      :    -0.000063
      py      :    -0.000329
      dz2     :    -0.000004  d :     0.000124
      dxz     :     0.000014
      dyz     :     0.000125
      dx2y2   :     0.000009
      dxy     :    -0.000019
 18 H s       :     0.000226  s :     0.000226
      pz      :     0.000001  p :     0.000040
      px      :     0.000019
      py      :     0.000021
 19 H s       :     0.000225  s :     0.000225
      pz      :     0.000001  p :     0.000041
      px      :     0.000018
      py      :     0.000021
 20 C s       :    -0.001216  s :    -0.001216
      pz      :    -0.000341  p :    -0.005390
      px      :    -0.002191
      py      :    -0.002858
      dz2     :     0.000155  d :     0.008868
      dxz     :     0.004777
      dyz     :     0.003402
      dx2y2   :     0.000229
      dxy     :     0.000305
 21 H s       :     0.008451  s :     0.008451
      pz      :    -0.000078  p :    -0.000195
      px      :    -0.000148
      py      :     0.000031
 22 H s       :     0.008256  s :     0.008256
      pz      :    -0.000078  p :    -0.000196
      px      :    -0.000147
      py      :     0.000029
 23 C s       :     0.000035  s :     0.000035
      pz      :     0.000009  p :     0.000181
      px      :     0.000099
      py      :     0.000073
      dz2     :    -0.000015  d :    -0.000065
      dxz     :     0.000131
      dyz     :    -0.000024
      dx2y2   :    -0.000111
      dxy     :    -0.000046
 24 H s       :     0.000038  s :     0.000038
      pz      :     0.000007  p :     0.000018
      px      :     0.000009
      py      :     0.000002
 25 H s       :     0.000032  s :     0.000032
      pz      :     0.000007  p :     0.000017
      px      :     0.000008
      py      :     0.000003
 26 C s       :    -0.000049  s :    -0.000049
      pz      :     0.000178  p :     0.000063
      px      :    -0.000024
      py      :    -0.000090
      dz2     :    -0.000002  d :    -0.000002
      dxz     :    -0.000004
      dyz     :     0.000012
      dx2y2   :    -0.000001
      dxy     :    -0.000008
 27 H s       :     0.000071  s :     0.000071
      pz      :     0.000001  p :     0.000021
      px      :     0.000006
      py      :     0.000013
 28 H s       :     0.000071  s :     0.000071
      pz      :     0.000001  p :     0.000020
      px      :     0.000006
      py      :     0.000013
 29 C s       :    -0.000010  s :    -0.000010
      pz      :    -0.000000  p :    -0.000047
      px      :    -0.000014
      py      :    -0.000032
      dz2     :    -0.000000  d :     0.000017
      dxz     :     0.000012
      dyz     :     0.000007
      dx2y2   :    -0.000004
      dxy     :     0.000001
 30 H s       :     0.000017  s :     0.000017
      pz      :    -0.000000  p :    -0.000001
      px      :    -0.000000
      py      :    -0.000001
 31 H s       :     0.000018  s :     0.000018
      pz      :    -0.000000  p :    -0.000002
      px      :    -0.000000
      py      :    -0.000001
 32 C s       :    -0.001139  s :    -0.001139
      pz      :    -0.030675  p :    -0.036026
      px      :    -0.000489
      py      :    -0.004862
      dz2     :     0.000129  d :     0.001205
      dxz     :     0.000716
      dyz     :     0.000000
      dx2y2   :     0.000137
      dxy     :     0.000223
 33 H s       :     0.001153  s :     0.001153
      pz      :    -0.000901  p :    -0.001215
      px      :    -0.000181
      py      :    -0.000133
 34 H s       :    -0.000137  s :    -0.000137
      pz      :     0.000034  p :     0.000022
      px      :     0.000004
      py      :    -0.000016
 35 H s       :    -0.000004  s :    -0.000004
      pz      :    -0.000000  p :    -0.000003
      px      :    -0.000001
      py      :    -0.000002
 36 H s       :    -0.005165  s :    -0.005165
      pz      :     0.004423  p :     0.005208
      px      :     0.000679
      py      :     0.000106


                      *****************************
                      * MAYER POPULATION ANALYSIS *
                      *****************************

  NA   - Mulliken gross atomic population
  ZA   - Total nuclear charge
  QA   - Mulliken gross atomic charge
  VA   - Mayer's total valence
  BVA  - Mayer's bonded valence
  FA   - Mayer's free valence

  ATOM       NA         ZA         QA         VA         BVA        FA
  0 C      5.3793     6.0000     0.6207     2.9128     2.9124     0.0004
  1 C      5.9718     6.0000     0.0282     3.9070     3.8722     0.0348
  2 C      5.9160     6.0000     0.0840     4.0919     4.0778     0.0141
  3 C      6.0028     6.0000    -0.0028     3.8787     3.8431     0.0356
  4 C      6.0434     6.0000    -0.0434     3.8465     3.8401     0.0064
  5 C      6.0855     6.0000    -0.0855     4.1583     4.1181     0.0402
  6 C      5.9726     6.0000     0.0274     3.9811     3.9734     0.0077
  7 H      1.0533     1.0000    -0.0533     1.0003     1.0002     0.0001
  8 H      1.0438     1.0000    -0.0438     0.9849     0.9848     0.0000
  9 C      6.0727     6.0000    -0.0727     3.9303     3.5224     0.4079
 10 H      1.0384     1.0000    -0.0384     0.9907     0.9893     0.0014
 11 C      5.9705     6.0000     0.0295     4.0141     4.0125     0.0016
 12 H      0.9722     1.0000     0.0278     0.9631     0.9619     0.0012
 13 H      0.9722     1.0000     0.0278     0.9631     0.9619     0.0012
 14 C      6.0400     6.0000    -0.0400     4.1296     4.1296     0.0000
 15 H      0.9886     1.0000     0.0114     0.9638     0.9638     0.0000
 16 H      0.9886     1.0000     0.0114     0.9638     0.9638     0.0000
 17 C      5.9959     6.0000     0.0041     4.0180     4.0180     0.0000
 18 H      0.9824     1.0000     0.0176     0.9776     0.9776     0.0000
 19 H      0.9823     1.0000     0.0177     0.9776     0.9776     0.0000
 20 C      5.9567     6.0000     0.0433     4.0242     4.0239     0.0003
 21 H      0.9692     1.0000     0.0308     0.9694     0.9693     0.0001
 22 H      0.9693     1.0000     0.0307     0.9699     0.9698     0.0001
 23 C      6.0348     6.0000    -0.0348     4.1125     4.1125     0.0000
 24 H      0.9860     1.0000     0.0140     0.9632     0.9632     0.0000
 25 H      0.9858     1.0000     0.0142     0.9629     0.9629     0.0000
 26 C      6.0248     6.0000    -0.0248     4.1190     4.1190     0.0000
 27 H      0.9942     1.0000     0.0058     0.9676     0.9676     0.0000
 28 H      0.9942     1.0000     0.0058     0.9676     0.9676     0.0000
 29 C      5.9963     6.0000     0.0037     4.0166     4.0166     0.0000
 30 H      0.9838     1.0000     0.0162     0.9772     0.9772     0.0000
 31 H      0.9838     1.0000     0.0162     0.9772     0.9772     0.0000
 32 C      6.5938     6.0000    -0.5938     3.4048     3.4035     0.0013
 33 H      1.0312     1.0000    -0.0312     1.0298     1.0298     0.0000
 34 H      0.9870     1.0000     0.0130     0.9733     0.9733     0.0000
 35 H      0.9876     1.0000     0.0124     0.9734     0.9734     0.0000
 36 H      1.0494     1.0000    -0.0494     0.9757     0.9756     0.0001

  Mayer bond orders larger than 0.100000
B(  0-C ,  4-C ) :   0.9023 B(  0-C , 32-C ) :   2.1424 B(  1-C ,  2-C ) :   1.2935 
B(  1-C ,  6-C ) :   1.4705 B(  1-C , 36-H ) :   0.9317 B(  2-C ,  3-C ) :   1.3033 
B(  2-C ,  9-C ) :   1.3059 B(  3-C ,  4-C ) :   1.4466 B(  3-C ,  7-H ) :   0.9260 
B(  4-C ,  5-C ) :   1.3645 B(  5-C ,  6-C ) :   1.4097 B(  5-C , 20-C ) :   1.0923 
B(  6-C ,  8-H ) :   0.9185 B(  9-C , 10-H ) :   0.9301 B(  9-C , 11-C ) :   1.0817 
B( 11-C , 12-H ) :   0.9135 B( 11-C , 13-H ) :   0.9134 B( 11-C , 14-C ) :   1.0709 
B( 14-C , 15-H ) :   0.9442 B( 14-C , 16-H ) :   0.9442 B( 14-C , 17-C ) :   1.1064 
B( 17-C , 18-H ) :   0.9657 B( 17-C , 19-H ) :   0.9657 B( 17-C , 34-H ) :   0.9613 
B( 20-C , 21-H ) :   0.8982 B( 20-C , 22-H ) :   0.8982 B( 20-C , 23-C ) :   1.1004 
B( 23-C , 24-H ) :   0.9301 B( 23-C , 25-H ) :   0.9297 B( 23-C , 26-C ) :   1.0762 
B( 26-C , 27-H ) :   0.9412 B( 26-C , 28-H ) :   0.9412 B( 26-C , 29-C ) :   1.1059 
B( 29-C , 30-H ) :   0.9662 B( 29-C , 31-H ) :   0.9662 B( 29-C , 35-H ) :   0.9618 
B( 32-C , 33-H ) :   1.1169 

-------
TIMINGS
-------

Total SCF time: 0 days 0 hours 0 min 37 sec 

Total time                  ....      37.406 sec
Sum of individual times     ....      35.070 sec  ( 93.8%)

Fock matrix formation       ....      31.231 sec  ( 83.5%)
  Split-RI-J                ....       2.555 sec  (  8.2% of F)
  Chain of spheres X        ....      18.241 sec  ( 58.4% of F)
  XC integration            ....       7.715 sec  ( 24.7% of F)
    Basis function eval.    ....       0.692 sec  (  9.0% of XC)
    Density eval.           ....       0.728 sec  (  9.4% of XC)
    XC-Functional eval.     ....       0.188 sec  (  2.4% of XC)
    XC-Potential eval.      ....       0.451 sec  (  5.8% of XC)
Diagonalization             ....       0.592 sec  (  1.6%)
Density matrix formation    ....       0.051 sec  (  0.1%)
Population analysis         ....       0.240 sec  (  0.6%)
Initial guess               ....       0.065 sec  (  0.2%)
Orbital Transformation      ....       0.000 sec  (  0.0%)
Orbital Orthonormalization  ....       0.043 sec  (  0.1%)
DIIS solution               ....       0.450 sec  (  1.2%)
Grid generation             ....       2.441 sec  (  6.5%)

Maximum memory used throughout the entire SCF-calculation: 88.0 MB

-------------------------   --------------------
FINAL SINGLE POINT ENERGY      -621.860275734810
-------------------------   --------------------

                                *** OPTIMIZATION RUN DONE ***

                            ***************************************
                            *     ORCA property calculations      *
                            ***************************************

                                    ---------------------
                                    Active property flags
                                    ---------------------
   (+) Dipole Moment


------------------------------------------------------------------------------
                       ORCA ELECTRIC PROPERTIES CALCULATION
------------------------------------------------------------------------------

Dipole Moment Calculation                       ... on
Quadrupole Moment Calculation                   ... off
Polarizability Calculation                      ... off
GBWName                                         ... opt.gbw
Electron density                                ... opt.scfp
The origin for moment calculation is the CENTER OF MASS  = (-0.843546, -0.005300  0.015917)

-------------
DIPOLE MOMENT
-------------
                                X             Y             Z
Electronic contribution:     -4.83051       2.15061      -0.05958
Nuclear contribution   :      4.97690      -2.15001       0.06175
                        -----------------------------------------
Total Dipole Moment    :      0.14639       0.00061       0.00217
                        -----------------------------------------
Magnitude (a.u.)       :      0.14641
Magnitude (Debye)      :      0.37214



--------------------
Rotational spectrum 
--------------------
 
Rotational constants in cm-1:     0.039573     0.005999     0.005245 
Rotational constants in MHz :  1186.357256   179.855377   157.247625 

 Dipole components along the rotational axes: 
x,y,z [a.u.] :    -0.035942     0.141927    -0.000356 
x,y,z [Debye]:    -0.091357     0.360751    -0.000906 

 

Timings for individual modules:

Sum of individual times         ...      129.347 sec (=   2.156 min)
GTO integral calculation        ...        5.569 sec (=   0.093 min)   4.3 %
SCF iterations                  ...      111.558 sec (=   1.859 min)  86.2 %
SCF Gradient evaluation         ...       11.955 sec (=   0.199 min)   9.2 %
Geometry relaxation             ...        0.265 sec (=   0.004 min)   0.2 %
                             ****ORCA TERMINATED NORMALLY****
TOTAL RUN TIME: 0 days 0 hours 2 minutes 13 seconds 259 msec
