
                                 *****************
                                 * O   R   C   A *
                                 *****************

           --- An Ab Initio, DFT and Semiempirical electronic structure package ---

                  #######################################################
                  #                        -***-                        #
                  #          Department of theory and spectroscopy      #
                  #               Directorship: Frank Neese             #
                  #        Max Planck Institute fuer Kohlenforschung    #
                  #                Kaiser Wilhelm Platz 1               #
                  #                 D-45470 Muelheim/Ruhr               #
                  #                      Germany                        #
                  #                                                     #
                  #                  All rights reserved                #
                  #                        -***-                        #
                  #######################################################


                         Program Version 4.2.1 -  RELEASE  -


 With contributions from (in alphabetic order):
   Daniel Aravena         : Magnetic Suceptibility
   Michael Atanasov       : Ab Initio Ligand Field Theory (pilot matlab implementation)
   Alexander A. Auer      : GIAO ZORA, VPT2
   Ute Becker             : Parallelization
   Giovanni Bistoni       : ED, misc. LED, open-shell LED, HFLD
   Martin Brehm           : Molecular dynamics
   Dmytro Bykov           : SCF Hessian
   Vijay G. Chilkuri      : MRCI spin determinant printing, contributions to CSF-ICE
   Dipayan Datta          : RHF DLPNO-CCSD density
   Achintya Kumar Dutta   : EOM-CC, STEOM-CC
   Dmitry Ganyushin       : Spin-Orbit,Spin-Spin,Magnetic field MRCI
   Miquel Garcia          : C-PCM Hessian, Gaussian charge scheme
   Yang Guo               : DLPNO-NEVPT2, CIM, IAO-localization
   Andreas Hansen         : Spin unrestricted coupled pair/coupled cluster methods
   Benjamin Helmich-Paris : CASSCF linear response (MC-RPA)
   Lee Huntington         : MR-EOM, pCC
   Robert Izsak           : Overlap fitted RIJCOSX, COSX-SCS-MP3, EOM
   Christian Kollmar      : KDIIS, OOCD, Brueckner-CCSD(T), CCSD density
   Simone Kossmann        : Meta GGA functionals, TD-DFT gradient, OOMP2, MP2 Hessian
   Martin Krupicka        : AUTO-CI
   Lucas Lang             : DCDCAS
   Dagmar Lenk            : GEPOL surface, SMD
   Dimitrios Liakos       : Extrapolation schemes; Compound Job, initial MDCI parallelization
   Dimitrios Manganas     : Further ROCIS development; embedding schemes
   Dimitrios Pantazis     : SARC Basis sets
   Taras Petrenko         : DFT Hessian,TD-DFT gradient, ASA, ECA, R-Raman, ABS, FL, XAS/XES, NRVS
   Peter Pinski           : DLPNO-MP2, DLPNO-MP2 Gradient
   Christoph Reimann      : Effective Core Potentials
   Marius Retegan         : Local ZFS, SOC
   Christoph Riplinger    : Optimizer, TS searches, QM/MM, DLPNO-CCSD(T), (RO)-DLPNO pert. Triples
   Tobias Risthaus        : Range-separated hybrids, TD-DFT gradient, RPA, STAB
   Michael Roemelt        : Original ROCIS implementation
   Masaaki Saitow         : Open-shell DLPNO-CCSD energy and density
   Barbara Sandhoefer     : DKH picture change effects
   Avijit Sen             : IP-ROCIS
   Kantharuban Sivalingam : CASSCF convergence, NEVPT2, FIC-MRCI
   Bernardo de Souza      : ESD, SOC TD-DFT
   Georgi Stoychev        : AutoAux, RI-MP2 NMR
   Willem Van den Heuvel  : Paramagnetic NMR
   Boris Wezisla          : Elementary symmetry handling
   Frank Wennmohs         : Technical directorship


 We gratefully acknowledge several colleagues who have allowed us to
 interface, adapt or use parts of their codes:
   Stefan Grimme, W. Hujo, H. Kruse,             : VdW corrections, initial TS optimization,
                  C. Bannwarth                     DFT functionals, gCP, sTDA/sTD-DF
   Ed Valeev, F. Pavosevic, A. Kumar             : LibInt (2-el integral package), F12 methods
   Garnet Chan, S. Sharma, J. Yang, R. Olivares  : DMRG
   Ulf Ekstrom                                   : XCFun DFT Library
   Mihaly Kallay                                 : mrcc  (arbitrary order and MRCC methods)
   Andreas Klamt, Michael Diedenhofen            : otool_cosmo (COSMO solvation model)
   Jiri Pittner, Ondrej Demel                    : Mk-CCSD
   Frank Weinhold                                : gennbo (NPA and NBO analysis)
   Christopher J. Cramer and Donald G. Truhlar   : smd solvation model
   Lars Goerigk                                  : TD-DFT with DH, B97 family of functionals
   V. Asgeirsson, H. Jonsson                     : NEB implementation
   FAccTs GmbH                                   : IRC, NEB, NEB-TS, Multilevel, MM, QM/MM, CI optimization
   S Lehtola, MJT Oliveira, MAL Marques          : LibXC Library


 Your calculation uses the libint2 library for the computation of 2-el integrals
 For citations please refer to: http://libint.valeyev.net

 Your ORCA version has been built with support for libXC version: 4.2.3
 For citations please refer to: https://tddft.org/programs/libxc/

 This ORCA versions uses:
   CBLAS   interface :  Fast vector & matrix operations
   LAPACKE interface :  Fast linear algebra routines
   SCALAPACK package :  Parallel linear algebra routines




***************************************
The coordinates will be read from file: opt.xyz
***************************************


----- Orbital basis set information -----
Your calculation utilizes the basis: cc-pVDZ 
       H, B-Ne : Obtained from the ccRepo (grant-hill.group.shef.ac.uk/ccrepo) Feb. 2017
                 T. H. Dunning, Jr., J. Chem. Phys. 90, 1007 (1989)
            He : Obtained from the ccRepo (grant-hill.group.shef.ac.uk/ccrepo) Feb. 2017
                 D. E. Woon, T. H. Dunning, Jr., J. Chem. Phys. 100, 2975 (1994)
  Li-Be, Na-Mg : Obtained from the ccRepo (grant-hill.group.shef.ac.uk/ccrepo) Feb. 2017
                 B. P. Prascher, D. E. Woon, K. A. Peterson, T. H. Dunning, Jr., A. K. Wilson, Theor. Chem. Acc. 128, 69 (2011)
         Al-Ar : Obtained from the ccRepo (grant-hill.group.shef.ac.uk/ccrepo) Feb. 2017
                 D. E. Woon, T. H. Dunning, Jr., J. Chem. Phys. 98, 1358 (1993)
            Ca : Obtained from the Peterson Research Group Website (tyr0.chem.wsu.edu/~kipeters) Feb. 2017
                 J. Koput, K. A. Peterson, J. Phys. Chem. 106, 9595 (2002)
         Sc-Zn : Obtained from the ccRepo (grant-hill.group.shef.ac.uk/ccrepo) Feb. 2017
                 N. B. Balabanov, K. A. Peterson, J. Chem. Phys. 123, 064107 (2005)
                 N. B. Balabanov, K. A. Peterson, J. Chem. Phys. 125, 074110 (2006)
         Ga-Kr : Obtained from the ccRepo (grant-hill.group.shef.ac.uk/ccrepo) Feb. 2017
                 A. K. Wilson, D. E. Woon, K. A. Peterson, T. H. Dunning, Jr., J. Chem. Phys. 110, 7667 (1999)

----- AuxJ basis set information -----
Your calculation utilizes the AutoAux generation procedure.
  G. L. Stoychev, A. A. Auer, F. Neese, J. Chem. Theory Comput. 13, 554 (2017)

----- AuxC basis set information -----
Your calculation utilizes the AutoAux generation procedure.
  G. L. Stoychev, A. A. Auer, F. Neese, J. Chem. Theory Comput. 13, 554 (2017)

----- AuxJK basis set information -----
Your calculation utilizes the AutoAux generation procedure.
  G. L. Stoychev, A. A. Auer, F. Neese, J. Chem. Theory Comput. 13, 554 (2017)

================================================================================
                                        WARNINGS
                       Please study these warnings very carefully!
================================================================================


WARNING: your system is open-shell and RHF/RKS was chosen
  ===> : WILL SWITCH to UHF/UKS


INFO   : the flag for use of LIBINT has been found!

================================================================================
                                       INPUT FILE
================================================================================
NAME = g-tensor_cc-pVDZ.inp
|  1> ! B3LYP cc-pVDZ AUTOAUX
|  2> %pal nprocs 16 end
|  3> *XYZFile 0 2 opt.xyz
|  4> %EPRNMR
|  5>         GTENSOR   TRUE
|  6>         NUCLEI    = ALL H {AISO, ADIP, AORB}
|  7> END
|  8> 
|  9>                          ****END OF INPUT****
================================================================================

                       ****************************
                       * Single Point Calculation *
                       ****************************

---------------------------------
CARTESIAN COORDINATES (ANGSTROEM)
---------------------------------
  C     -4.052050    0.116927   -0.001125
  C     -2.836378    0.052264   -0.003127
  C      2.843071   -0.006518   -0.002320
  C     -1.409806    0.001811   -0.003079
  C     -0.708557   -1.259257   -0.002689
  C      0.712795   -1.194669   -0.002375
  C      1.414315    0.014456   -0.002569
  C      0.706927    1.258607   -0.003039
  C     -0.688672    1.208330   -0.003353
  H      1.286848   -2.121389   -0.002022
  H     -1.261464    2.135496   -0.003754
  C     -1.398412   -2.492570   -0.002619
  H     -2.491323   -2.454264   -0.003073
  C     -0.743848   -3.841327   -0.002185
  H     -0.072555   -3.937857   -0.880844
  H     -0.071512   -3.936811    0.875776
  C     -1.742531   -5.005541   -0.000908
  H     -2.400810   -4.913594    0.882641
  H     -2.401935   -4.914599   -0.883727
  C     -1.066225   -6.377387   -0.000559
  H     -0.425031   -6.508405    0.888511
  H     -0.426089   -6.509376   -0.890245
  C      1.481771    2.560040   -0.003221
  H      2.159651    2.558698    0.871462
  H      2.160200    2.558136   -0.877478
  C      0.663517    3.853786   -0.003865
  H      0.000268    3.878256   -0.888605
  H     -0.000091    3.878895    0.880590
  C      1.543910    5.108858   -0.004150
  H      2.210188    5.086501    0.878769
  H      2.210174    5.086092   -0.887068
  C      0.737630    6.409502   -0.004451
  H      0.087385    6.478415    0.885008
  H      0.087250    6.477923   -0.893850
  C      4.064880   -0.030315   -0.003350
  H     -5.122667    0.179487    0.003014
  H     -1.808152   -7.191937    0.000335
  H      1.396204    7.293024   -0.004749
  C      5.492863   -0.057907   -0.002944
  C      6.188621   -1.286555   -0.002980
  C      7.583011   -1.307878   -0.002498
  C      8.308696   -0.111219   -0.002036
  C      7.628959    1.112211   -0.002076
  C      6.234984    1.143496   -0.002546
  H      9.401235   -0.132014   -0.001654
  H      8.189556    2.049849   -0.001725
  H      5.620265   -2.218262   -0.003355
  H      5.702728    2.096660   -0.002574
  H      8.108553   -2.265886   -0.002490

----------------------------
CARTESIAN COORDINATES (A.U.)
----------------------------
  NO LB      ZA    FRAG     MASS         X           Y           Z
   0 C     6.0000    0    12.011   -7.657266    0.220960   -0.002127
   1 C     6.0000    0    12.011   -5.359978    0.098764   -0.005910
   2 C     6.0000    0    12.011    5.372625   -0.012317   -0.004383
   3 C     6.0000    0    12.011   -2.664146    0.003422   -0.005818
   4 C     6.0000    0    12.011   -1.338979   -2.379651   -0.005082
   5 C     6.0000    0    12.011    1.346987   -2.257597   -0.004488
   6 C     6.0000    0    12.011    2.672669    0.027318   -0.004854
   7 C     6.0000    0    12.011    1.335898    2.378423   -0.005743
   8 C     6.0000    0    12.011   -1.301402    2.283412   -0.006337
   9 H     1.0000    0     1.008    2.431790   -4.008845   -0.003822
  10 H     1.0000    0     1.008   -2.383821    4.035503   -0.007094
  11 C     6.0000    0    12.011   -2.642616   -4.710274   -0.004950
  12 H     1.0000    0     1.008   -4.707918   -4.637886   -0.005806
  13 C     6.0000    0    12.011   -1.405670   -7.259057   -0.004128
  14 H     1.0000    0     1.008   -0.137109   -7.441471   -1.664555
  15 H     1.0000    0     1.008   -0.135139   -7.439494    1.654978
  16 C     6.0000    0    12.011   -3.292906   -9.459101   -0.001715
  17 H     1.0000    0     1.008   -4.536874   -9.285347    1.667950
  18 H     1.0000    0     1.008   -4.538999   -9.287246   -1.670002
  19 C     6.0000    0    12.011   -2.014872  -12.051514   -0.001055
  20 H     1.0000    0     1.008   -0.803192  -12.299104    1.679042
  21 H     1.0000    0     1.008   -0.805191  -12.300938   -1.682320
  22 C     6.0000    0    12.011    2.800141    4.837774   -0.006088
  23 H     1.0000    0     1.008    4.081150    4.835239    1.646824
  24 H     1.0000    0     1.008    4.082186    4.834177   -1.658193
  25 C     6.0000    0    12.011    1.253866    7.282601   -0.007304
  26 H     1.0000    0     1.008    0.000506    7.328841   -1.679220
  27 H     1.0000    0     1.008   -0.000171    7.330050    1.664074
  28 C     6.0000    0    12.011    2.917568    9.654343   -0.007842
  29 H     1.0000    0     1.008    4.176651    9.612093    1.660632
  30 H     1.0000    0     1.008    4.176624    9.611321   -1.676315
  31 C     6.0000    0    12.011    1.393919   12.112204   -0.008411
  32 H     1.0000    0     1.008    0.165134   12.242430    1.672423
  33 H     1.0000    0     1.008    0.164879   12.241500   -1.689132
  34 C     6.0000    0    12.011    7.681511   -0.057286   -0.006330
  35 H     1.0000    0     1.008   -9.680438    0.339180    0.005696
  36 H     1.0000    0     1.008   -3.416912  -13.590791    0.000633
  37 H     1.0000    0     1.008    2.638443   13.781818   -0.008974
  38 C     6.0000    0    12.011   10.380006   -0.109429   -0.005563
  39 C     6.0000    0    12.011   11.694799   -2.431236   -0.005631
  40 C     6.0000    0    12.011   14.329813   -2.471531   -0.004721
  41 C     6.0000    0    12.011   15.701161   -0.210173   -0.003847
  42 C     6.0000    0    12.011   14.416642    2.101774   -0.003923
  43 C     6.0000    0    12.011   11.782412    2.160894   -0.004811
  44 H     1.0000    0     1.008   17.765759   -0.249470   -0.003125
  45 H     1.0000    0     1.008   15.476017    3.873654   -0.003261
  46 H     1.0000    0     1.008   10.620762   -4.191907   -0.006340
  47 H     1.0000    0     1.008   10.776594    3.962114   -0.004864
  48 H     1.0000    0     1.008   15.322945   -4.281903   -0.004706

--------------------------------
INTERNAL COORDINATES (ANGSTROEM)
--------------------------------
 C      0   0   0     0.000000000000     0.00000000     0.00000000
 C      1   0   0     1.217392463402     0.00000000     0.00000000
 C      2   1   0     5.679752967333   177.54607745     0.00000000
 C      2   1   3     1.427464507844   178.97621835     2.99963735
 C      4   2   1     1.442928072681   121.10286574   174.59303150
 C      5   4   2     1.422818818095   116.47555857   180.01351862
 C      6   5   4     1.397896705323   122.72360118     0.00000000
 C      7   6   5     1.431192191456   120.25686941     0.00000000
 C      8   7   6     1.396504372313   117.55808612     0.00000000
 H      6   5   4     1.090113555167   119.17417606   179.99683386
 H      9   8   7     1.089829170978   119.64399652   180.00238616
 C      5   4   2     1.413138540800   121.70211242     0.00000000
 H     12   5   4     1.093581926460   117.21314781     0.00000000
 C     12   5   4     1.499200212954   124.89176181   180.00185957
 H     14  12   5     1.109953046002   110.00297251   302.58205182
 H     14  12   5     1.109940542124   110.00449967    57.30995082
 C     14  12   5     1.533871093628   113.48874361   179.94709893
 H     17  14  12     1.105642329404   108.97709710   302.35515742
 H     17  14  12     1.105646450357   108.97838878    57.63698762
 C     17  14  12     1.529493708470   113.13361820   179.99645651
 H     20  17  14     1.103965442474   111.31232746    59.85716274
 H     20  17  14     1.103964317510   111.31214955   300.14658950
 C      8   7   6     1.514632031446   119.61003540   179.99900754
 H     23   8   7     1.106614017851   108.19417346   303.70774145
 H     23   8   7     1.106613647898   108.19460158    56.27794367
 C     23   8   7     1.530790479478   116.91930285   179.99422215
 H     26  23   8     1.106012204731   109.85126413   301.75776385
 H     26  23   8     1.106014029284   109.85058089    58.25398954
 C     26  23   8     1.533068073999   112.63950750   180.00598017
 H     29  26  23     1.106332312690   109.21751814   302.32623354
 H     29  26  23     1.106331719220   109.21671286    57.70277628
 C     29  26  23     1.530281896808   113.15643723   180.01397685
 H     32  29  26     1.103949500289   111.29937649    59.85893786
 H     32  29  26     1.103950466015   111.29950519   300.15162688
 C      3   2   1     1.222042071308   179.47413880   183.77203682
 H      1   2   4     1.072450931048   179.67479455   342.41662336
 H     20  17  14     1.101793813071   111.42857475   180.00149974
 H     32  29  26     1.101966715990   111.50416404   180.00547969
 C     35   3   7     1.428248903248   179.93479586   250.24672649
 C     39  35   3     1.411968106084   120.62899535    97.78516240
 C     40  39  35     1.394552495566   120.39812521   180.00399064
 C     41  40  39     1.399504885731   120.35761788     0.00000000
 C     42  41  40     1.399579435644   119.70970085     0.00000000
 C     43  42  41     1.394325697236   120.34224050     0.00000000
 H     42  41  40     1.092736122162   120.14328880   179.99965750
 H     43  42  41     1.092444700176   120.06899553   180.00053576
 H     40  39  35     1.091378457992   119.09412098     0.00000000
 H     44  43  42     1.091704795595   120.46505926   179.99973754
 H     41  40  39     1.092691214875   119.62435666   179.99746342

---------------------------
INTERNAL COORDINATES (A.U.)
---------------------------
 C      0   0   0     0.000000000000     0.00000000     0.00000000
 C      1   0   0     2.300538353329     0.00000000     0.00000000
 C      2   1   0    10.733177616585   177.54607745     0.00000000
 C      2   1   3     2.697516985717   178.97621835     2.99963735
 C      4   2   1     2.726738888315   121.10286574   174.59303150
 C      5   4   2     2.688737904389   116.47555857   180.01351862
 C      6   5   4     2.641641936572   122.72360118     0.00000000
 C      7   6   5     2.704561286858   120.25686941     0.00000000
 C      8   7   6     2.639010808494   117.55808612     0.00000000
 H      6   5   4     2.060016074140   119.17417606   179.99683386
 H      9   8   7     2.059478665907   119.64399652   180.00238616
 C      5   4   2     2.670444831400   121.70211242     0.00000000
 H     12   5   4     2.066570346016   117.21314781     0.00000000
 C     12   5   4     2.833077822400   124.89176181   180.00185957
 H     14  12   5     2.097507278455   110.00297251   302.58205182
 H     14  12   5     2.097483649550   110.00449967    57.30995082
 C     14  12   5     2.898596291696   113.48874361   179.94709893
 H     17  14  12     2.089361204645   108.97709710   302.35515742
 H     17  14  12     2.089368992118   108.97838878    57.63698762
 C     17  14  12     2.890324232564   113.13361820   179.99645651
 H     20  17  14     2.086192347589   111.31232746    59.85716274
 H     20  17  14     2.086190221716   111.31214955   300.14658950
 C      8   7   6     2.862239733097   119.61003540   179.99900754
 H     23   8   7     2.091197429696   108.19417346   303.70774145
 H     23   8   7     2.091196730586   108.19460158    56.27794367
 C     23   8   7     2.892774774627   116.91930285   179.99422215
 H     26  23   8     2.090060167717   109.85126413   301.75776385
 H     26  23   8     2.090063615621   109.85058089    58.25398954
 C     26  23   8     2.897078804516   112.63950750   180.00598017
 H     29  26  23     2.090665084092   109.21751814   302.32623354
 H     29  26  23     2.090663962595   109.21671286    57.70277628
 C     29  26  23     2.891813692665   113.15643723   180.01397685
 H     32  29  26     2.086162221226   111.29937649    59.85893786
 H     32  29  26     2.086164046183   111.29950519   300.15162688
 C      3   2   1     2.309324838903   179.47413880   183.77203682
 H      1   2   4     2.026638551750   179.67479455   342.41662336
 H     20  17  14     2.082088562752   111.42857475   180.00149974
 H     32  29  26     2.082415301918   111.50416404   180.00547969
 C     35   3   7     2.698999278212   179.93479586   250.24672649
 C     39  35   3     2.668233030330   120.62899535    97.78516240
 C     40  39  35     2.635322295996   120.39812521   180.00399064
 C     41  40  39     2.644680957116   120.35761788     0.00000000
 C     42  41  40     2.644821836036   119.70970085     0.00000000
 C     43  42  41     2.634893709264   120.34224050     0.00000000
 H     42  41  40     2.064972007529   120.14328880   179.99965750
 H     43  42  41     2.064421299786   120.06899553   180.00053576
 H     40  39  35     2.062406394066   119.09412098     0.00000000
 H     44  43  42     2.063023082763   120.46505926   179.99973754
 H     41  40  39     2.064887145055   119.62435666   179.99746342

---------------------
BASIS SET INFORMATION
---------------------
There are 2 groups of distinct atoms

 Group   1 Type C   : 17s4p1d contracted to 3s2p1d pattern {881/31/1}
 Group   2 Type H   : 4s1p contracted to 2s1p pattern {31/1}

Atom   0C    basis set group =>   1
Atom   1C    basis set group =>   1
Atom   2C    basis set group =>   1
Atom   3C    basis set group =>   1
Atom   4C    basis set group =>   1
Atom   5C    basis set group =>   1
Atom   6C    basis set group =>   1
Atom   7C    basis set group =>   1
Atom   8C    basis set group =>   1
Atom   9H    basis set group =>   2
Atom  10H    basis set group =>   2
Atom  11C    basis set group =>   1
Atom  12H    basis set group =>   2
Atom  13C    basis set group =>   1
Atom  14H    basis set group =>   2
Atom  15H    basis set group =>   2
Atom  16C    basis set group =>   1
Atom  17H    basis set group =>   2
Atom  18H    basis set group =>   2
Atom  19C    basis set group =>   1
Atom  20H    basis set group =>   2
Atom  21H    basis set group =>   2
Atom  22C    basis set group =>   1
Atom  23H    basis set group =>   2
Atom  24H    basis set group =>   2
Atom  25C    basis set group =>   1
Atom  26H    basis set group =>   2
Atom  27H    basis set group =>   2
Atom  28C    basis set group =>   1
Atom  29H    basis set group =>   2
Atom  30H    basis set group =>   2
Atom  31C    basis set group =>   1
Atom  32H    basis set group =>   2
Atom  33H    basis set group =>   2
Atom  34C    basis set group =>   1
Atom  35H    basis set group =>   2
Atom  36H    basis set group =>   2
Atom  37H    basis set group =>   2
Atom  38C    basis set group =>   1
Atom  39C    basis set group =>   1
Atom  40C    basis set group =>   1
Atom  41C    basis set group =>   1
Atom  42C    basis set group =>   1
Atom  43C    basis set group =>   1
Atom  44H    basis set group =>   2
Atom  45H    basis set group =>   2
Atom  46H    basis set group =>   2
Atom  47H    basis set group =>   2
Atom  48H    basis set group =>   2
---------------------------------
AUXILIARY/J BASIS SET INFORMATION
---------------------------------
There are 2 groups of distinct atoms

 Group   1 Type C   : 14s11p10d2f contracted to 14s11p10d2f pattern {11111111111111/11111111111/1111111111/11}
 Group   2 Type H   : 9s2p1d contracted to 9s2p1d pattern {111111111/11/1}

Atom   0C    basis set group =>   1
Atom   1C    basis set group =>   1
Atom   2C    basis set group =>   1
Atom   3C    basis set group =>   1
Atom   4C    basis set group =>   1
Atom   5C    basis set group =>   1
Atom   6C    basis set group =>   1
Atom   7C    basis set group =>   1
Atom   8C    basis set group =>   1
Atom   9H    basis set group =>   2
Atom  10H    basis set group =>   2
Atom  11C    basis set group =>   1
Atom  12H    basis set group =>   2
Atom  13C    basis set group =>   1
Atom  14H    basis set group =>   2
Atom  15H    basis set group =>   2
Atom  16C    basis set group =>   1
Atom  17H    basis set group =>   2
Atom  18H    basis set group =>   2
Atom  19C    basis set group =>   1
Atom  20H    basis set group =>   2
Atom  21H    basis set group =>   2
Atom  22C    basis set group =>   1
Atom  23H    basis set group =>   2
Atom  24H    basis set group =>   2
Atom  25C    basis set group =>   1
Atom  26H    basis set group =>   2
Atom  27H    basis set group =>   2
Atom  28C    basis set group =>   1
Atom  29H    basis set group =>   2
Atom  30H    basis set group =>   2
Atom  31C    basis set group =>   1
Atom  32H    basis set group =>   2
Atom  33H    basis set group =>   2
Atom  34C    basis set group =>   1
Atom  35H    basis set group =>   2
Atom  36H    basis set group =>   2
Atom  37H    basis set group =>   2
Atom  38C    basis set group =>   1
Atom  39C    basis set group =>   1
Atom  40C    basis set group =>   1
Atom  41C    basis set group =>   1
Atom  42C    basis set group =>   1
Atom  43C    basis set group =>   1
Atom  44H    basis set group =>   2
Atom  45H    basis set group =>   2
Atom  46H    basis set group =>   2
Atom  47H    basis set group =>   2
Atom  48H    basis set group =>   2
---------------------------------
AUXILIARY/C BASIS SET INFORMATION
---------------------------------
There are 2 groups of distinct atoms

 Group   1 Type C   : 14s11p10d2f contracted to 14s11p10d2f pattern {11111111111111/11111111111/1111111111/11}
 Group   2 Type H   : 9s2p1d contracted to 9s2p1d pattern {111111111/11/1}

Atom   0C    basis set group =>   1
Atom   1C    basis set group =>   1
Atom   2C    basis set group =>   1
Atom   3C    basis set group =>   1
Atom   4C    basis set group =>   1
Atom   5C    basis set group =>   1
Atom   6C    basis set group =>   1
Atom   7C    basis set group =>   1
Atom   8C    basis set group =>   1
Atom   9H    basis set group =>   2
Atom  10H    basis set group =>   2
Atom  11C    basis set group =>   1
Atom  12H    basis set group =>   2
Atom  13C    basis set group =>   1
Atom  14H    basis set group =>   2
Atom  15H    basis set group =>   2
Atom  16C    basis set group =>   1
Atom  17H    basis set group =>   2
Atom  18H    basis set group =>   2
Atom  19C    basis set group =>   1
Atom  20H    basis set group =>   2
Atom  21H    basis set group =>   2
Atom  22C    basis set group =>   1
Atom  23H    basis set group =>   2
Atom  24H    basis set group =>   2
Atom  25C    basis set group =>   1
Atom  26H    basis set group =>   2
Atom  27H    basis set group =>   2
Atom  28C    basis set group =>   1
Atom  29H    basis set group =>   2
Atom  30H    basis set group =>   2
Atom  31C    basis set group =>   1
Atom  32H    basis set group =>   2
Atom  33H    basis set group =>   2
Atom  34C    basis set group =>   1
Atom  35H    basis set group =>   2
Atom  36H    basis set group =>   2
Atom  37H    basis set group =>   2
Atom  38C    basis set group =>   1
Atom  39C    basis set group =>   1
Atom  40C    basis set group =>   1
Atom  41C    basis set group =>   1
Atom  42C    basis set group =>   1
Atom  43C    basis set group =>   1
Atom  44H    basis set group =>   2
Atom  45H    basis set group =>   2
Atom  46H    basis set group =>   2
Atom  47H    basis set group =>   2
Atom  48H    basis set group =>   2
----------------------------------
AUXILIARY/JK BASIS SET INFORMATION
----------------------------------
There are 2 groups of distinct atoms

 Group   1 Type C   : 14s11p10d2f contracted to 14s11p10d2f pattern {11111111111111/11111111111/1111111111/11}
 Group   2 Type H   : 9s2p1d contracted to 9s2p1d pattern {111111111/11/1}

Atom   0C    basis set group =>   1
Atom   1C    basis set group =>   1
Atom   2C    basis set group =>   1
Atom   3C    basis set group =>   1
Atom   4C    basis set group =>   1
Atom   5C    basis set group =>   1
Atom   6C    basis set group =>   1
Atom   7C    basis set group =>   1
Atom   8C    basis set group =>   1
Atom   9H    basis set group =>   2
Atom  10H    basis set group =>   2
Atom  11C    basis set group =>   1
Atom  12H    basis set group =>   2
Atom  13C    basis set group =>   1
Atom  14H    basis set group =>   2
Atom  15H    basis set group =>   2
Atom  16C    basis set group =>   1
Atom  17H    basis set group =>   2
Atom  18H    basis set group =>   2
Atom  19C    basis set group =>   1
Atom  20H    basis set group =>   2
Atom  21H    basis set group =>   2
Atom  22C    basis set group =>   1
Atom  23H    basis set group =>   2
Atom  24H    basis set group =>   2
Atom  25C    basis set group =>   1
Atom  26H    basis set group =>   2
Atom  27H    basis set group =>   2
Atom  28C    basis set group =>   1
Atom  29H    basis set group =>   2
Atom  30H    basis set group =>   2
Atom  31C    basis set group =>   1
Atom  32H    basis set group =>   2
Atom  33H    basis set group =>   2
Atom  34C    basis set group =>   1
Atom  35H    basis set group =>   2
Atom  36H    basis set group =>   2
Atom  37H    basis set group =>   2
Atom  38C    basis set group =>   1
Atom  39C    basis set group =>   1
Atom  40C    basis set group =>   1
Atom  41C    basis set group =>   1
Atom  42C    basis set group =>   1
Atom  43C    basis set group =>   1
Atom  44H    basis set group =>   2
Atom  45H    basis set group =>   2
Atom  46H    basis set group =>   2
Atom  47H    basis set group =>   2
Atom  48H    basis set group =>   2


           ************************************************************
           *        Program running with 16 parallel MPI-processes    *
           *              working on a common directory               *
           ************************************************************
------------------------------------------------------------------------------
                           ORCA GTO INTEGRAL CALCULATION
------------------------------------------------------------------------------

                         BASIS SET STATISTICS AND STARTUP INFO

 # of primitive gaussian shells          ...  653
 # of primitive gaussian functions       ...  991
 # of contracted shells                  ...  219
 # of contracted basis functions         ...  461
 Highest angular momentum                ...    2
 Maximum contraction depth               ...    8
 Integral package used                   ... LIBINT
 Integral threshhold            Thresh   ...  1.000e-10
 Primitive cut-off              TCut     ...  1.000e-11


------------------------------ INTEGRAL EVALUATION ----------------------------


 * One electron integrals 
 Pre-screening matrix                    ... done
 Shell pair data                         ... done (   0.009 sec)



           ************************************************************
           *        Program running with 16 parallel MPI-processes    *
           *              working on a common directory               *
           ************************************************************
-------------------------------------------------------------------------------
                                 ORCA SCF
-------------------------------------------------------------------------------

------------
SCF SETTINGS
------------
Hamiltonian:
 Density Functional     Method          .... DFT(GTOs)
 Exchange Functional    Exchange        .... B88
   X-Alpha parameter    XAlpha          ....  0.666667
   Becke's b parameter  XBeta           ....  0.004200
 Correlation Functional Correlation     .... LYP
 LDA part of GGA corr.  LDAOpt          .... VWN-5
 Gradients option       PostSCFGGA      .... off
 Hybrid DFT is turned on
   Fraction HF Exchange ScalHFX         ....  0.200000
   Scaling of DF-GGA-X  ScalDFX         ....  0.720000
   Scaling of DF-GGA-C  ScalDFC         ....  0.810000
   Scaling of DF-LDA-C  ScalLDAC        ....  1.000000
   Perturbative correction              ....  0.000000
   Density functional embedding theory  .... OFF
   NL short-range parameter             ....  4.800000


General Settings:
 Integral files         IntName         .... g-tensor_cc-pVDZ
 Hartree-Fock type      HFTyp           .... UHF
 Total Charge           Charge          ....    0
 Multiplicity           Mult            ....    2
 Number of Electrons    NEL             ....  169
 Basis Dimension        Dim             ....  461
 Nuclear Repulsion      ENuc            ....   1724.1135441193 Eh

Convergence Acceleration:
 DIIS                   CNVDIIS         .... on
   Start iteration      DIISMaxIt       ....    12
   Startup error        DIISStart       ....  0.200000
   # of expansion vecs  DIISMaxEq       ....     5
   Bias factor          DIISBfac        ....   1.050
   Max. coefficient     DIISMaxC        ....  10.000
 Newton-Raphson         CNVNR           .... off
 SOSCF                  CNVSOSCF        .... off
 Level Shifting         CNVShift        .... on
   Level shift para.    LevelShift      ....    0.2500
   Turn off err/grad.   ShiftErr        ....    0.0010
 Zerner damping         CNVZerner       .... off
 Static damping         CNVDamp         .... on
   Fraction old density DampFac         ....    0.7000
   Max. Damping (<1)    DampMax         ....    0.9800
   Min. Damping (>=0)   DampMin         ....    0.0000
   Turn off err/grad.   DampErr         ....    0.1000
 Fernandez-Rico         CNVRico         .... off

SCF Procedure:
 Maximum # iterations   MaxIter         ....   125
 SCF integral mode      SCFMode         .... Direct
   Integral package                     .... LIBINT
 Reset frequency        DirectResetFreq ....    20
 Integral Threshold     Thresh          ....  1.000e-10 Eh
 Primitive CutOff       TCut            ....  1.000e-11 Eh

Convergence Tolerance:
 Convergence Check Mode ConvCheckMode   .... Total+1el-Energy
 Convergence forced     ConvForced      .... 0
 Energy Change          TolE            ....  1.000e-06 Eh
 1-El. energy change                    ....  1.000e-03 Eh
 DIIS Error             TolErr          ....  1.000e-06


Diagonalization of the overlap matrix:
Smallest eigenvalue                        ... 5.125e-05
Time for diagonalization                   ...    0.052 sec
Threshold for overlap eigenvalues          ... 1.000e-08
Number of eigenvalues below threshold      ... 0
Time for construction of square roots      ...    0.038 sec
Total time needed                          ...    0.091 sec

-------------------
DFT GRID GENERATION
-------------------

General Integration Accuracy     IntAcc      ...  4.340
Radial Grid Type                 RadialGrid  ... Gauss-Chebyshev
Angular Grid (max. acc.)         AngularGrid ... Lebedev-110
Angular grid pruning method      GridPruning ... 3 (G Style)
Weight generation scheme         WeightScheme... Becke
Basis function cutoff            BFCut       ...    1.0000e-10
Integration weight cutoff        WCut        ...    1.0000e-14
Grids for H and He will be reduced by one unit

# of grid points (after initial pruning)     ...  59594 (   0.0 sec)
# of grid points (after weights+screening)   ...  53213 (   0.2 sec)
nearest neighbour list constructed           ...    0.0 sec
Grid point re-assignment to atoms done       ...    0.0 sec
Grid point division into batches done        ...    0.1 sec
Reduced shell lists constructed in    0.2 sec

Total number of grid points                  ...    53213
Total number of batches                      ...      854
Average number of points per batch           ...       62
Average number of grid points per atom       ...     1086
Average number of shells per batch           ...    87.07 (39.76%)
Average number of basis functions per batch  ...   174.85 (37.93%)
Average number of large shells per batch     ...    50.65 (58.17%)
Average number of large basis fcns per batch ...   106.51 (60.91%)
Maximum spatial batch extension              ...  15.68, 11.40, 20.28 au
Average spatial batch extension              ...   0.15,  0.19,  0.29 au

Time for grid setup =    0.362 sec

------------------------------
INITIAL GUESS: MODEL POTENTIAL
------------------------------
Loading Hartree-Fock densities                     ... done
Calculating cut-offs                               ... done
Setting up the integral package                    ... done
Initializing the effective Hamiltonian             ... done
Starting the Coulomb interaction                   ... done (   0.2 sec)
Reading the grid                                   ... done
Mapping shells                                     ... done
Starting the XC term evaluation                    ... done (   0.1 sec)
  promolecular density results
     # of electrons  =    169.019514935
     EX              =   -130.680439569
     EC              =     -5.564642614
     EX+EC           =   -136.245082183
Transforming the Hamiltonian                       ... done (   0.0 sec)
Diagonalizing the Hamiltonian                      ... done (   0.0 sec)
Back transforming the eigenvectors                 ... done (   0.0 sec)
Now organizing SCF variables                       ... done
                      ------------------
                      INITIAL GUESS DONE (   0.9 sec)
                      ------------------
--------------
SCF ITERATIONS
--------------
ITER       Energy         Delta-E        Max-DP      RMS-DP      [F,P]     Damp
               ***  Starting incremental Fock matrix formation  ***
  0   -928.3619228499   0.000000000000 0.06701945  0.00090235  0.1734697 0.7000
  1   -928.5993475865  -0.237424736652 0.05726932  0.00070209  0.0913263 0.7000
                               ***Turning on DIIS***
  2   -928.7072063697  -0.107858783209 0.12092385  0.00137009  0.0349296 0.0000
  3   -928.8607411433  -0.153534773578 0.02608148  0.00036025  0.0497112 0.0000
  4   -928.8995212947  -0.038780151423 0.01724056  0.00015253  0.0117092 0.0000
  5   -928.9019490692  -0.002427774494 0.00409983  0.00003723  0.0026041 0.0000
  6   -928.9022829647  -0.000333895463 0.00275960  0.00001952  0.0013799 0.0000
  7   -928.9024041341  -0.000121169421 0.00183404  0.00001236  0.0010050 0.0000
  8   -928.9024676263  -0.000063492186 0.00282457  0.00002232  0.0007399 0.0000
  9   -928.9025418524  -0.000074226150 0.00093762  0.00000792  0.0004912 0.0000
 10   -928.9025566395  -0.000014787090 0.00095984  0.00000683  0.0002075 0.0000
 11   -928.9025646535  -0.000008013936 0.00034593  0.00000259  0.0000969 0.0000
 12   -928.9025666685  -0.000002015083 0.00024777  0.00000180  0.0000892 0.0000
 13   -928.9025677627  -0.000001094103 0.00015416  0.00000123  0.0000473 0.0000
                 **** Energy Check signals convergence ****

               *****************************************************
               *                     SUCCESS                       *
               *           SCF CONVERGED AFTER  14 CYCLES          *
               *****************************************************

Setting up the final grid:

General Integration Accuracy     IntAcc      ...  4.670
Radial Grid Type                 RadialGrid  ... Gauss-Chebyshev
Angular Grid (max. acc.)         AngularGrid ... Lebedev-302
Angular grid pruning method      GridPruning ... 3 (G Style)
Weight generation scheme         WeightScheme... Becke
Basis function cutoff            BFCut       ...    1.0000e-10
Integration weight cutoff        WCut        ...    1.0000e-14
Grids for H and He will be reduced by one unit

# of grid points (after initial pruning)     ... 233938 (   0.0 sec)
# of grid points (after weights+screening)   ... 205185 (   0.6 sec)
nearest neighbour list constructed           ...    0.0 sec
Grid point re-assignment to atoms done       ...    0.0 sec
Grid point division into batches done        ...    0.8 sec
Reduced shell lists constructed in    1.0 sec

Total number of grid points                  ...   205185
Total number of batches                      ...     3230
Average number of points per batch           ...       63
Average number of grid points per atom       ...     4187
Average number of shells per batch           ...    81.75 (37.33%)
Average number of basis functions per batch  ...   164.10 (35.60%)
Average number of large shells per batch     ...    46.57 (56.96%)
Average number of large basis fcns per batch ...    98.26 (59.88%)
Maximum spatial batch extension              ...  16.61, 13.32, 23.20 au
Average spatial batch extension              ...   0.12,  0.13,  0.14 au

Final grid set up in    1.8 sec
Final integration                            ... done (   0.6 sec)
Change in XC energy                          ...     0.001548197
Integrated number of electrons               ...   169.000108657
Previous integrated no of electrons          ...   169.016808006

----------------
TOTAL SCF ENERGY
----------------

Total Energy       :         -928.90102015 Eh          -25276.68180 eV

Components:
Nuclear Repulsion  :         1724.11354412 Eh           46915.51467 eV
Electronic Energy  :        -2653.01456427 Eh          -72192.19647 eV
One Electron Energy:        -4677.20054766 Eh         -127273.09734 eV
Two Electron Energy:         2024.18598339 Eh           55080.90087 eV

Virial components:
Potential Energy   :        -1851.36029004 Eh          -50378.07466 eV
Kinetic Energy     :          922.45926989 Eh           25101.39286 eV
Virial Ratio       :            2.00698324


DFT components:
N(Alpha)           :       85.000061309392 electrons
N(Beta)            :       84.000047347252 electrons
N(Total)           :      169.000108656644 electrons
E(X)               :     -105.657119233311 Eh       
E(C)               :       -6.575416099072 Eh       
E(XC)              :     -112.232535332383 Eh       
DFET-embed. en.    :        0.000000000000 Eh       

---------------
SCF CONVERGENCE
---------------

  Last Energy change         ...   -5.8246e-07  Tolerance :   1.0000e-06
  Last MAX-Density change    ...    2.1673e-04  Tolerance :   1.0000e-05
  Last RMS-Density change    ...    1.7343e-06  Tolerance :   1.0000e-06
  Last DIIS Error            ...    2.9035e-05  Tolerance :   1.0000e-06

             **** THE GBW FILE WAS UPDATED (g-tensor_cc-pVDZ.gbw) ****
             **** DENSITY FILE WAS UPDATED (g-tensor_cc-pVDZ.scfp) ****
             **** ENERGY FILE WAS UPDATED (g-tensor_cc-pVDZ.en.tmp) ****
----------------------
UHF SPIN CONTAMINATION
----------------------

Warning: in a DFT calculation there is little theoretical justification to 
         calculate <S**2> as in Hartree-Fock theory. We will do it anyways
         but you should keep in mind that the values have only limited relevance

Expectation value of <S**2>     :     0.785614
Ideal value S*(S+1) for S=0.5   :     0.750000
Deviation                       :     0.035614

             **** THE GBW FILE WAS UPDATED (g-tensor_cc-pVDZ.gbw) ****
             **** DENSITY FILE WAS UPDATED (g-tensor_cc-pVDZ.scfp) ****
----------------
ORBITAL ENERGIES
----------------
                 SPIN UP ORBITALS
  NO   OCC          E(Eh)            E(eV) 
   0   1.0000     -10.216521      -278.0057 
   1   1.0000     -10.213217      -277.9158 
   2   1.0000     -10.211868      -277.8791 
   3   1.0000     -10.202151      -277.6146 
   4   1.0000     -10.198244      -277.5083 
   5   1.0000     -10.197291      -277.4824 
   6   1.0000     -10.197120      -277.4777 
   7   1.0000     -10.196253      -277.4542 
   8   1.0000     -10.195632      -277.4373 
   9   1.0000     -10.195466      -277.4327 
  10   1.0000     -10.194153      -277.3970 
  11   1.0000     -10.192354      -277.3481 
  12   1.0000     -10.189974      -277.2833 
  13   1.0000     -10.189678      -277.2752 
  14   1.0000     -10.189427      -277.2684 
  15   1.0000     -10.188023      -277.2302 
  16   1.0000     -10.187682      -277.2209 
  17   1.0000     -10.187223      -277.2084 
  18   1.0000     -10.185231      -277.1542 
  19   1.0000     -10.183824      -277.1159 
  20   1.0000     -10.182298      -277.0744 
  21   1.0000     -10.181991      -277.0661 
  22   1.0000     -10.177033      -276.9312 
  23   1.0000     -10.175911      -276.9006 
  24   1.0000      -0.873783       -23.7768 
  25   1.0000      -0.863483       -23.4966 
  26   1.0000      -0.820033       -22.3142 
  27   1.0000      -0.797990       -21.7144 
  28   1.0000      -0.796819       -21.6825 
  29   1.0000      -0.778346       -21.1799 
  30   1.0000      -0.767938       -20.8967 
  31   1.0000      -0.751179       -20.4406 
  32   1.0000      -0.744255       -20.2522 
  33   1.0000      -0.730128       -19.8678 
  34   1.0000      -0.713914       -19.4266 
  35   1.0000      -0.697836       -18.9891 
  36   1.0000      -0.656668       -17.8688 
  37   1.0000      -0.643564       -17.5123 
  38   1.0000      -0.620198       -16.8765 
  39   1.0000      -0.611610       -16.6427 
  40   1.0000      -0.609262       -16.5789 
  41   1.0000      -0.592520       -16.1233 
  42   1.0000      -0.580099       -15.7853 
  43   1.0000      -0.561814       -15.2877 
  44   1.0000      -0.541232       -14.7277 
  45   1.0000      -0.529788       -14.4163 
  46   1.0000      -0.507142       -13.8000 
  47   1.0000      -0.489901       -13.3309 
  48   1.0000      -0.480628       -13.0785 
  49   1.0000      -0.476072       -12.9546 
  50   1.0000      -0.471082       -12.8188 
  51   1.0000      -0.462188       -12.5768 
  52   1.0000      -0.457957       -12.4616 
  53   1.0000      -0.437291       -11.8993 
  54   1.0000      -0.431806       -11.7500 
  55   1.0000      -0.429237       -11.6801 
  56   1.0000      -0.426254       -11.5990 
  57   1.0000      -0.424502       -11.5513 
  58   1.0000      -0.422162       -11.4876 
  59   1.0000      -0.411991       -11.2109 
  60   1.0000      -0.398214       -10.8359 
  61   1.0000      -0.397917       -10.8279 
  62   1.0000      -0.383647       -10.4396 
  63   1.0000      -0.378585       -10.3018 
  64   1.0000      -0.377371       -10.2688 
  65   1.0000      -0.365317        -9.9408 
  66   1.0000      -0.361708        -9.8426 
  67   1.0000      -0.356607        -9.7038 
  68   1.0000      -0.354371        -9.6429 
  69   1.0000      -0.350739        -9.5441 
  70   1.0000      -0.340423        -9.2634 
  71   1.0000      -0.332653        -9.0519 
  72   1.0000      -0.332123        -9.0375 
  73   1.0000      -0.330468        -8.9925 
  74   1.0000      -0.328055        -8.9268 
  75   1.0000      -0.324395        -8.8272 
  76   1.0000      -0.322052        -8.7635 
  77   1.0000      -0.297263        -8.0889 
  78   1.0000      -0.275234        -7.4895 
  79   1.0000      -0.273459        -7.4412 
  80   1.0000      -0.268580        -7.3084 
  81   1.0000      -0.258794        -7.0422 
  82   1.0000      -0.255614        -6.9556 
  83   1.0000      -0.214538        -5.8379 
  84   1.0000      -0.173092        -4.7101 
  85   0.0000      -0.060282        -1.6404 
  86   0.0000      -0.010413        -0.2833 
  87   0.0000      -0.009040        -0.2460 
  88   0.0000       0.016486         0.4486 
  89   0.0000       0.041780         1.1369 
  90   0.0000       0.050881         1.3845 
  91   0.0000       0.054043         1.4706 
  92   0.0000       0.062063         1.6888 
  93   0.0000       0.063541         1.7290 
  94   0.0000       0.065458         1.7812 
  95   0.0000       0.078752         2.1430 
  96   0.0000       0.084415         2.2970 
  97   0.0000       0.088939         2.4202 
  98   0.0000       0.093988         2.5575 
  99   0.0000       0.096235         2.6187 
 100   0.0000       0.098881         2.6907 
 101   0.0000       0.101822         2.7707 
 102   0.0000       0.103607         2.8193 
 103   0.0000       0.113729         3.0947 
 104   0.0000       0.120181         3.2703 
 105   0.0000       0.125762         3.4222 
 106   0.0000       0.130352         3.5471 
 107   0.0000       0.138347         3.7646 
 108   0.0000       0.143408         3.9023 
 109   0.0000       0.147377         4.0103 
 110   0.0000       0.151174         4.1137 
 111   0.0000       0.155553         4.2328 
 112   0.0000       0.157391         4.2828 
 113   0.0000       0.160396         4.3646 
 114   0.0000       0.161339         4.3902 
 115   0.0000       0.165198         4.4953 
 116   0.0000       0.173295         4.7156 
 117   0.0000       0.175689         4.7807 
 118   0.0000       0.183077         4.9818 
 119   0.0000       0.204300         5.5593 
 120   0.0000       0.211771         5.7626 
 121   0.0000       0.212254         5.7757 
 122   0.0000       0.217528         5.9192 
 123   0.0000       0.222070         6.0428 
 124   0.0000       0.224342         6.1047 
 125   0.0000       0.243286         6.6201 
 126   0.0000       0.249755         6.7962 
 127   0.0000       0.265668         7.2292 
 128   0.0000       0.267885         7.2895 
 129   0.0000       0.278523         7.5790 
 130   0.0000       0.286246         7.7892 
 131   0.0000       0.292445         7.9578 
 132   0.0000       0.306527         8.3410 
 133   0.0000       0.314235         8.5508 
 134   0.0000       0.318803         8.6751 
 135   0.0000       0.332376         9.0444 
 136   0.0000       0.348702         9.4887 
 137   0.0000       0.361297         9.8314 
 138   0.0000       0.365479         9.9452 
 139   0.0000       0.378807        10.3079 
 140   0.0000       0.391074        10.6417 
 141   0.0000       0.406080        11.0500 
 142   0.0000       0.411044        11.1851 
 143   0.0000       0.412637        11.2284 
 144   0.0000       0.418552        11.3894 
 145   0.0000       0.421788        11.4774 
 146   0.0000       0.430169        11.7055 
 147   0.0000       0.440527        11.9874 
 148   0.0000       0.440955        11.9990 
 149   0.0000       0.450044        12.2463 
 150   0.0000       0.451957        12.2984 
 151   0.0000       0.454261        12.3611 
 152   0.0000       0.462164        12.5761 
 153   0.0000       0.472375        12.8540 
 154   0.0000       0.473507        12.8848 
 155   0.0000       0.475542        12.9401 
 156   0.0000       0.476530        12.9670 
 157   0.0000       0.481051        13.0901 
 158   0.0000       0.490919        13.3586 
 159   0.0000       0.499561        13.5938 
 160   0.0000       0.499686        13.5972 
 161   0.0000       0.503028        13.6881 
 162   0.0000       0.506837        13.7917 
 163   0.0000       0.508700        13.8424 
 164   0.0000       0.513684        13.9780 
 165   0.0000       0.516067        14.0429 
 166   0.0000       0.516520        14.0552 
 167   0.0000       0.521764        14.1979 
 168   0.0000       0.525347        14.2954 
 169   0.0000       0.529564        14.4102 
 170   0.0000       0.534140        14.5347 
 171   0.0000       0.550875        14.9901 
 172   0.0000       0.551471        15.0063 
 173   0.0000       0.557674        15.1751 
 174   0.0000       0.568411        15.4672 
 175   0.0000       0.575829        15.6691 
 176   0.0000       0.584548        15.9064 
 177   0.0000       0.588884        16.0243 
 178   0.0000       0.591698        16.1009 
 179   0.0000       0.598656        16.2903 
 180   0.0000       0.600804        16.3487 
 181   0.0000       0.607325        16.5262 
 182   0.0000       0.609411        16.5829 
 183   0.0000       0.623762        16.9734 
 184   0.0000       0.625786        17.0285 
 185   0.0000       0.632711        17.2169 
 186   0.0000       0.636812        17.3285 
 187   0.0000       0.638279        17.3684 
 188   0.0000       0.642379        17.4800 
 189   0.0000       0.643651        17.5146 
 190   0.0000       0.645288        17.5592 
 191   0.0000       0.651202        17.7201 
 192   0.0000       0.654784        17.8176 
 193   0.0000       0.654918        17.8212 
 194   0.0000       0.660136        17.9632 
 195   0.0000       0.661347        17.9962 
 196   0.0000       0.664668        18.0865 
 197   0.0000       0.665816        18.1178 
 198   0.0000       0.666157        18.1271 
 199   0.0000       0.669206        18.2100 
 200   0.0000       0.676521        18.4091 
 201   0.0000       0.677907        18.4468 
 202   0.0000       0.683207        18.5910 
 203   0.0000       0.686347        18.6765 
 204   0.0000       0.691124        18.8064 
 205   0.0000       0.693576        18.8732 
 206   0.0000       0.694775        18.9058 
 207   0.0000       0.704428        19.1685 
 208   0.0000       0.711445        19.3594 
 209   0.0000       0.714051        19.4303 
 210   0.0000       0.723410        19.6850 
 211   0.0000       0.727321        19.7914 
 212   0.0000       0.732630        19.9359 
 213   0.0000       0.733138        19.9497 
 214   0.0000       0.736054        20.0291 
 215   0.0000       0.750366        20.4185 
 216   0.0000       0.754616        20.5342 
 217   0.0000       0.759734        20.6734 
 218   0.0000       0.768912        20.9232 
 219   0.0000       0.774307        21.0700 
 220   0.0000       0.779877        21.2215 
 221   0.0000       0.795150        21.6371 
 222   0.0000       0.801750        21.8167 
 223   0.0000       0.818803        22.2808 
 224   0.0000       0.829218        22.5642 
 225   0.0000       0.833187        22.6722 
 226   0.0000       0.848734        23.0952 
 227   0.0000       0.853721        23.2309 
 228   0.0000       0.863456        23.4958 
 229   0.0000       0.869461        23.6592 
 230   0.0000       0.875188        23.8151 
 231   0.0000       0.881958        23.9993 
 232   0.0000       0.900563        24.5056 
 233   0.0000       0.908281        24.7156 
 234   0.0000       0.911011        24.7899 
 235   0.0000       0.915665        24.9165 
 236   0.0000       0.935233        25.4490 
 237   0.0000       0.935458        25.4551 
 238   0.0000       0.945935        25.7402 
 239   0.0000       0.954934        25.9851 
 240   0.0000       0.975820        26.5534 
 241   0.0000       0.976949        26.5841 
 242   0.0000       0.979005        26.6401 
 243   0.0000       0.982994        26.7486 
 244   0.0000       0.992728        27.0135 
 245   0.0000       0.995723        27.0950 
 246   0.0000       1.001529        27.2530 
 247   0.0000       1.008431        27.4408 
 248   0.0000       1.028800        27.9951 
 249   0.0000       1.030293        28.0357 
 250   0.0000       1.030465        28.0404 
 251   0.0000       1.037704        28.2374 
 252   0.0000       1.038580        28.2612 
 253   0.0000       1.052693        28.6452 
 254   0.0000       1.058327        28.7985 
 255   0.0000       1.062936        28.9240 
 256   0.0000       1.065653        28.9979 
 257   0.0000       1.079039        29.3621 
 258   0.0000       1.096793        29.8452 
 259   0.0000       1.106384        30.1062 
 260   0.0000       1.115073        30.3427 
 261   0.0000       1.127942        30.6929 
 262   0.0000       1.142413        31.0866 
 263   0.0000       1.149259        31.2729 
 264   0.0000       1.167248        31.7624 
 265   0.0000       1.186193        32.2779 
 266   0.0000       1.199163        32.6309 
 267   0.0000       1.205616        32.8065 
 268   0.0000       1.208160        32.8757 
 269   0.0000       1.212842        33.0031 
 270   0.0000       1.214431        33.0464 
 271   0.0000       1.219968        33.1970 
 272   0.0000       1.222802        33.2741 
 273   0.0000       1.230257        33.4770 
 274   0.0000       1.232210        33.5301 
 275   0.0000       1.254430        34.1348 
 276   0.0000       1.276441        34.7337 
 277   0.0000       1.292523        35.1713 
 278   0.0000       1.292919        35.1821 
 279   0.0000       1.296681        35.2845 
 280   0.0000       1.311088        35.6765 
 281   0.0000       1.319498        35.9054 
 282   0.0000       1.327493        36.1229 
 283   0.0000       1.340268        36.4706 
 284   0.0000       1.344272        36.5795 
 285   0.0000       1.362496        37.0754 
 286   0.0000       1.376275        37.4503 
 287   0.0000       1.381477        37.5919 
 288   0.0000       1.393486        37.9187 
 289   0.0000       1.395911        37.9847 
 290   0.0000       1.400954        38.1219 
 291   0.0000       1.423746        38.7421 
 292   0.0000       1.425104        38.7791 
 293   0.0000       1.425425        38.7878 
 294   0.0000       1.426618        38.8202 
 295   0.0000       1.430208        38.9180 
 296   0.0000       1.442798        39.2605 
 297   0.0000       1.452839        39.5338 
 298   0.0000       1.464512        39.8514 
 299   0.0000       1.474173        40.1143 
 300   0.0000       1.475262        40.1439 
 301   0.0000       1.481298        40.3082 
 302   0.0000       1.483390        40.3651 
 303   0.0000       1.486301        40.4443 
 304   0.0000       1.498645        40.7802 
 305   0.0000       1.504449        40.9381 
 306   0.0000       1.509874        41.0858 
 307   0.0000       1.521316        41.3971 
 308   0.0000       1.532344        41.6972 
 309   0.0000       1.541354        41.9424 
 310   0.0000       1.556463        42.3535 
 311   0.0000       1.569538        42.7093 
 312   0.0000       1.581345        43.0306 
 313   0.0000       1.586487        43.1705 
 314   0.0000       1.596187        43.4344 
 315   0.0000       1.597960        43.4827 
 316   0.0000       1.598115        43.4869 
 317   0.0000       1.608224        43.7620 
 318   0.0000       1.611197        43.8429 
 319   0.0000       1.616431        43.9853 
 320   0.0000       1.624084        44.1936 
 321   0.0000       1.627136        44.2766 
 322   0.0000       1.630597        44.3708 
 323   0.0000       1.635221        44.4966 
 324   0.0000       1.639125        44.6029 
 325   0.0000       1.639523        44.6137 
 326   0.0000       1.646129        44.7934 
 327   0.0000       1.646726        44.8097 
 328   0.0000       1.650796        44.9204 
 329   0.0000       1.651638        44.9433 
 330   0.0000       1.660317        45.1795 
 331   0.0000       1.670344        45.4524 
 332   0.0000       1.671070        45.4721 
 333   0.0000       1.677263        45.6406 
 334   0.0000       1.681904        45.7669 
 335   0.0000       1.685795        45.8728 
 336   0.0000       1.687730        45.9255 
 337   0.0000       1.692453        46.0540 
 338   0.0000       1.697153        46.1819 
 339   0.0000       1.701805        46.3085 
 340   0.0000       1.704200        46.3736 
 341   0.0000       1.705557        46.4106 
 342   0.0000       1.709473        46.5171 
 343   0.0000       1.717034        46.7229 
 344   0.0000       1.723167        46.8898 
 345   0.0000       1.734980        47.2112 
 346   0.0000       1.739292        47.3285 
 347   0.0000       1.740267        47.3551 
 348   0.0000       1.744620        47.4735 
 349   0.0000       1.760824        47.9145 
 350   0.0000       1.770418        48.1755 
 351   0.0000       1.771834        48.2140 
 352   0.0000       1.780531        48.4507 
 353   0.0000       1.784287        48.5529 
 354   0.0000       1.788882        48.6780 
 355   0.0000       1.794373        48.8274 
 356   0.0000       1.797619        48.9157 
 357   0.0000       1.803185        49.0672 
 358   0.0000       1.806561        49.1590 
 359   0.0000       1.817942        49.4687 
 360   0.0000       1.825826        49.6833 
 361   0.0000       1.826712        49.7074 
 362   0.0000       1.835772        49.9539 
 363   0.0000       1.841413        50.1074 
 364   0.0000       1.847998        50.2866 
 365   0.0000       1.848721        50.3063 
 366   0.0000       1.852751        50.4159 
 367   0.0000       1.862615        50.6843 
 368   0.0000       1.873883        50.9910 
 369   0.0000       1.884673        51.2846 
 370   0.0000       1.892408        51.4950 
 371   0.0000       1.901610        51.7454 
 372   0.0000       1.911324        52.0098 
 373   0.0000       1.922451        52.3125 
 374   0.0000       1.925427        52.3935 
 375   0.0000       1.932690        52.5912 
 376   0.0000       1.949946        53.0607 
 377   0.0000       1.957270        53.2600 
 378   0.0000       1.964177        53.4480 
 379   0.0000       1.972724        53.6805 
 380   0.0000       1.978941        53.8497 
 381   0.0000       1.988949        54.1221 
 382   0.0000       1.993875        54.2561 
 383   0.0000       1.994515        54.2735 
 384   0.0000       2.018987        54.9394 
 385   0.0000       2.034433        55.3597 
 386   0.0000       2.040733        55.5312 
 387   0.0000       2.051256        55.8175 
 388   0.0000       2.066527        56.2331 
 389   0.0000       2.075783        56.4849 
 390   0.0000       2.078018        56.5457 
 391   0.0000       2.087941        56.8158 
 392   0.0000       2.107569        57.3499 
 393   0.0000       2.118380        57.6441 
 394   0.0000       2.130036        57.9612 
 395   0.0000       2.139940        58.2307 
 396   0.0000       2.155161        58.6449 
 397   0.0000       2.155856        58.6638 
 398   0.0000       2.172648        59.1207 
 399   0.0000       2.192123        59.6507 
 400   0.0000       2.192266        59.6546 
 401   0.0000       2.197964        59.8096 
 402   0.0000       2.209689        60.1287 
 403   0.0000       2.226515        60.5866 
 404   0.0000       2.229947        60.6799 
 405   0.0000       2.231578        60.7243 
 406   0.0000       2.235388        60.8280 
 407   0.0000       2.247879        61.1679 
 408   0.0000       2.273545        61.8663 
 409   0.0000       2.281773        62.0902 
 410   0.0000       2.301293        62.6214 
 411   0.0000       2.303541        62.6825 
 412   0.0000       2.304737        62.7151 
 413   0.0000       2.321194        63.1629 
 414   0.0000       2.329175        63.3801 
 415   0.0000       2.342368        63.7391 
 416   0.0000       2.359649        64.2093 
 417   0.0000       2.370914        64.5158 
 418   0.0000       2.377892        64.7057 
 419   0.0000       2.407588        65.5138 
 420   0.0000       2.408190        65.5302 
 421   0.0000       2.410570        65.5949 
 422   0.0000       2.413720        65.6807 
 423   0.0000       2.413761        65.6818 
 424   0.0000       2.418404        65.8081 
 425   0.0000       2.419863        65.8478 
 426   0.0000       2.428845        66.0922 
 427   0.0000       2.437466        66.3268 
 428   0.0000       2.449671        66.6589 
 429   0.0000       2.452178        66.7272 
 430   0.0000       2.484024        67.5937 
 431   0.0000       2.505751        68.1849 
 432   0.0000       2.521814        68.6220 
 433   0.0000       2.544413        69.2370 
 434   0.0000       2.547973        69.3339 
 435   0.0000       2.559354        69.6436 
 436   0.0000       2.580679        70.2238 
 437   0.0000       2.601090        70.7793 
 438   0.0000       2.616015        71.1854 
 439   0.0000       2.625434        71.4417 
 440   0.0000       2.637431        71.7681 
 441   0.0000       2.641694        71.8842 
 442   0.0000       2.653506        72.2056 
 443   0.0000       2.680490        72.9398 
 444   0.0000       2.712144        73.8012 
 445   0.0000       2.713345        73.8339 
 446   0.0000       2.720209        74.0206 
 447   0.0000       2.722068        74.0712 
 448   0.0000       2.733872        74.3924 
 449   0.0000       2.781478        75.6879 
 450   0.0000       2.806894        76.3795 
 451   0.0000       2.844831        77.4118 
 452   0.0000       2.864288        77.9412 
 453   0.0000       2.876672        78.2782 
 454   0.0000       2.893092        78.7250 
 455   0.0000       2.997170        81.5571 
 456   0.0000       3.074342        83.6571 
 457   0.0000       3.095977        84.2458 
 458   0.0000       3.203586        87.1740 
 459   0.0000       3.395620        92.3995 
 460   0.0000       3.583889        97.5226 

                 SPIN DOWN ORBITALS
  NO   OCC          E(Eh)            E(eV) 
   0   1.0000     -10.216401      -278.0024 
   1   1.0000     -10.213393      -277.9206 
   2   1.0000     -10.209834      -277.8237 
   3   1.0000     -10.200656      -277.5740 
   4   1.0000     -10.198749      -277.5221 
   5   1.0000     -10.197416      -277.4858 
   6   1.0000     -10.197244      -277.4811 
   7   1.0000     -10.196352      -277.4568 
   8   1.0000     -10.195584      -277.4359 
   9   1.0000     -10.195448      -277.4322 
  10   1.0000     -10.191515      -277.3252 
  11   1.0000     -10.191109      -277.3142 
  12   1.0000     -10.190150      -277.2881 
  13   1.0000     -10.189896      -277.2812 
  14   1.0000     -10.188705      -277.2488 
  15   1.0000     -10.187638      -277.2197 
  16   1.0000     -10.187424      -277.2139 
  17   1.0000     -10.183992      -277.1205 
  18   1.0000     -10.183784      -277.1149 
  19   1.0000     -10.182323      -277.0751 
  20   1.0000     -10.182298      -277.0744 
  21   1.0000     -10.181987      -277.0660 
  22   1.0000     -10.177041      -276.9314 
  23   1.0000     -10.175913      -276.9007 
  24   1.0000      -0.870421       -23.6854 
  25   1.0000      -0.863543       -23.4982 
  26   1.0000      -0.815094       -22.1798 
  27   1.0000      -0.796792       -21.6818 
  28   1.0000      -0.794319       -21.6145 
  29   1.0000      -0.777963       -21.1694 
  30   1.0000      -0.765810       -20.8387 
  31   1.0000      -0.751313       -20.4443 
  32   1.0000      -0.743012       -20.2184 
  33   1.0000      -0.726542       -19.7702 
  34   1.0000      -0.712226       -19.3807 
  35   1.0000      -0.695524       -18.9262 
  36   1.0000      -0.653670       -17.7873 
  37   1.0000      -0.641835       -17.4652 
  38   1.0000      -0.617171       -16.7941 
  39   1.0000      -0.609364       -16.5816 
  40   1.0000      -0.608834       -16.5672 
  41   1.0000      -0.591595       -16.0981 
  42   1.0000      -0.578510       -15.7421 
  43   1.0000      -0.558784       -15.2053 
  44   1.0000      -0.540589       -14.7102 
  45   1.0000      -0.528065       -14.3694 
  46   1.0000      -0.504134       -13.7182 
  47   1.0000      -0.488321       -13.2879 
  48   1.0000      -0.479837       -13.0570 
  49   1.0000      -0.475181       -12.9303 
  50   1.0000      -0.470241       -12.7959 
  51   1.0000      -0.458704       -12.4820 
  52   1.0000      -0.458011       -12.4631 
  53   1.0000      -0.436862       -11.8876 
  54   1.0000      -0.429974       -11.7002 
  55   1.0000      -0.428005       -11.6466 
  56   1.0000      -0.425119       -11.5681 
  57   1.0000      -0.424511       -11.5515 
  58   1.0000      -0.419563       -11.4169 
  59   1.0000      -0.411467       -11.1966 
  60   1.0000      -0.396804       -10.7976 
  61   1.0000      -0.390562       -10.6277 
  62   1.0000      -0.383061       -10.4236 
  63   1.0000      -0.376260       -10.2385 
  64   1.0000      -0.374165       -10.1815 
  65   1.0000      -0.364185        -9.9100 
  66   1.0000      -0.361641        -9.8408 
  67   1.0000      -0.355781        -9.6813 
  68   1.0000      -0.351282        -9.5589 
  69   1.0000      -0.350768        -9.5449 
  70   1.0000      -0.338170        -9.2021 
  71   1.0000      -0.332114        -9.0373 
  72   1.0000      -0.330730        -8.9996 
  73   1.0000      -0.328203        -8.9309 
  74   1.0000      -0.327691        -8.9169 
  75   1.0000      -0.323569        -8.8047 
  76   1.0000      -0.321679        -8.7533 
  77   1.0000      -0.294110        -8.0031 
  78   1.0000      -0.272840        -7.4243 
  79   1.0000      -0.268405        -7.3037 
  80   1.0000      -0.261318        -7.1108 
  81   1.0000      -0.259172        -7.0524 
  82   1.0000      -0.252279        -6.8649 
  83   1.0000      -0.207291        -5.6407 
  84   0.0000      -0.082937        -2.2568 
  85   0.0000      -0.052462        -1.4276 
  86   0.0000      -0.010742        -0.2923 
  87   0.0000      -0.007367        -0.2005 
  88   0.0000       0.034133         0.9288 
  89   0.0000       0.042199         1.1483 
  90   0.0000       0.051228         1.3940 
  91   0.0000       0.054060         1.4710 
  92   0.0000       0.062247         1.6938 
  93   0.0000       0.063899         1.7388 
  94   0.0000       0.070569         1.9203 
  95   0.0000       0.078861         2.1459 
  96   0.0000       0.085283         2.3207 
  97   0.0000       0.089648         2.4394 
  98   0.0000       0.094508         2.5717 
  99   0.0000       0.096330         2.6213 
 100   0.0000       0.099236         2.7003 
 101   0.0000       0.102512         2.7895 
 102   0.0000       0.104697         2.8489 
 103   0.0000       0.113851         3.0981 
 104   0.0000       0.121596         3.3088 
 105   0.0000       0.126155         3.4328 
 106   0.0000       0.130447         3.5496 
 107   0.0000       0.138393         3.7659 
 108   0.0000       0.143542         3.9060 
 109   0.0000       0.149872         4.0782 
 110   0.0000       0.152104         4.1390 
 111   0.0000       0.155772         4.2388 
 112   0.0000       0.158689         4.3181 
 113   0.0000       0.161042         4.3822 
 114   0.0000       0.161944         4.4067 
 115   0.0000       0.166848         4.5402 
 116   0.0000       0.174136         4.7385 
 117   0.0000       0.176224         4.7953 
 118   0.0000       0.188386         5.1263 
 119   0.0000       0.205287         5.5861 
 120   0.0000       0.213081         5.7982 
 121   0.0000       0.215089         5.8529 
 122   0.0000       0.218433         5.9439 
 123   0.0000       0.222252         6.0478 
 124   0.0000       0.225623         6.1395 
 125   0.0000       0.244624         6.6566 
 126   0.0000       0.252267         6.8645 
 127   0.0000       0.268279         7.3002 
 128   0.0000       0.269111         7.3229 
 129   0.0000       0.278504         7.5785 
 130   0.0000       0.286728         7.8023 
 131   0.0000       0.292996         7.9728 
 132   0.0000       0.307748         8.3742 
 133   0.0000       0.314846         8.5674 
 134   0.0000       0.321903         8.7594 
 135   0.0000       0.333310         9.0698 
 136   0.0000       0.349144         9.5007 
 137   0.0000       0.361836         9.8460 
 138   0.0000       0.367020         9.9871 
 139   0.0000       0.378986        10.3127 
 140   0.0000       0.392312        10.6754 
 141   0.0000       0.406291        11.0558 
 142   0.0000       0.411456        11.1963 
 143   0.0000       0.413154        11.2425 
 144   0.0000       0.418959        11.4005 
 145   0.0000       0.422582        11.4990 
 146   0.0000       0.432035        11.7563 
 147   0.0000       0.442509        12.0413 
 148   0.0000       0.450504        12.2588 
 149   0.0000       0.450947        12.2709 
 150   0.0000       0.455667        12.3993 
 151   0.0000       0.457238        12.4421 
 152   0.0000       0.466707        12.6997 
 153   0.0000       0.473638        12.8883 
 154   0.0000       0.475413        12.9366 
 155   0.0000       0.476237        12.9591 
 156   0.0000       0.480420        13.0729 
 157   0.0000       0.484361        13.1801 
 158   0.0000       0.492931        13.4133 
 159   0.0000       0.501130        13.6364 
 160   0.0000       0.501387        13.6434 
 161   0.0000       0.503434        13.6991 
 162   0.0000       0.507397        13.8070 
 163   0.0000       0.508935        13.8488 
 164   0.0000       0.514138        13.9904 
 165   0.0000       0.516212        14.0468 
 166   0.0000       0.520446        14.1620 
 167   0.0000       0.523019        14.2321 
 168   0.0000       0.528609        14.3842 
 169   0.0000       0.531544        14.4640 
 170   0.0000       0.536094        14.5879 
 171   0.0000       0.553099        15.0506 
 172   0.0000       0.559051        15.2125 
 173   0.0000       0.566824        15.4241 
 174   0.0000       0.571447        15.5499 
 175   0.0000       0.576430        15.6855 
 176   0.0000       0.585518        15.9328 
 177   0.0000       0.591810        16.1040 
 178   0.0000       0.593713        16.1558 
 179   0.0000       0.600109        16.3298 
 180   0.0000       0.601568        16.3695 
 181   0.0000       0.608439        16.5565 
 182   0.0000       0.610234        16.6053 
 183   0.0000       0.626430        17.0460 
 184   0.0000       0.627606        17.0780 
 185   0.0000       0.633070        17.2267 
 186   0.0000       0.637158        17.3379 
 187   0.0000       0.638480        17.3739 
 188   0.0000       0.643378        17.5072 
 189   0.0000       0.645938        17.5769 
 190   0.0000       0.646325        17.5874 
 191   0.0000       0.651609        17.7312 
 192   0.0000       0.655522        17.8377 
 193   0.0000       0.656414        17.8619 
 194   0.0000       0.660465        17.9722 
 195   0.0000       0.661748        18.0071 
 196   0.0000       0.665260        18.1027 
 197   0.0000       0.667176        18.1548 
 198   0.0000       0.668047        18.1785 
 199   0.0000       0.670381        18.2420 
 200   0.0000       0.676971        18.4213 
 201   0.0000       0.679127        18.4800 
 202   0.0000       0.684735        18.6326 
 203   0.0000       0.686514        18.6810 
 204   0.0000       0.691670        18.8213 
 205   0.0000       0.694005        18.8848 
 206   0.0000       0.695695        18.9308 
 207   0.0000       0.704723        19.1765 
 208   0.0000       0.711567        19.3627 
 209   0.0000       0.714295        19.4370 
 210   0.0000       0.723613        19.6905 
 211   0.0000       0.728534        19.8244 
 212   0.0000       0.734153        19.9773 
 213   0.0000       0.738465        20.0947 
 214   0.0000       0.739117        20.1124 
 215   0.0000       0.752190        20.4681 
 216   0.0000       0.755606        20.5611 
 217   0.0000       0.760864        20.7042 
 218   0.0000       0.770266        20.9600 
 219   0.0000       0.779054        21.1991 
 220   0.0000       0.782116        21.2825 
 221   0.0000       0.795432        21.6448 
 222   0.0000       0.802430        21.8352 
 223   0.0000       0.820767        22.3342 
 224   0.0000       0.830599        22.6018 
 225   0.0000       0.834917        22.7192 
 226   0.0000       0.849321        23.1112 
 227   0.0000       0.854131        23.2421 
 228   0.0000       0.863656        23.5013 
 229   0.0000       0.871214        23.7069 
 230   0.0000       0.876362        23.8470 
 231   0.0000       0.885570        24.0976 
 232   0.0000       0.900585        24.5062 
 233   0.0000       0.908585        24.7239 
 234   0.0000       0.915235        24.9048 
 235   0.0000       0.916949        24.9514 
 236   0.0000       0.938117        25.5275 
 237   0.0000       0.938231        25.5306 
 238   0.0000       0.952357        25.9149 
 239   0.0000       0.954608        25.9762 
 240   0.0000       0.976305        26.5666 
 241   0.0000       0.977527        26.5999 
 242   0.0000       0.979912        26.6647 
 243   0.0000       0.989381        26.9224 
 244   0.0000       0.993911        27.0457 
 245   0.0000       0.998031        27.1578 
 246   0.0000       1.003108        27.2960 
 247   0.0000       1.008730        27.4489 
 248   0.0000       1.029267        28.0078 
 249   0.0000       1.030772        28.0487 
 250   0.0000       1.031706        28.0741 
 251   0.0000       1.038638        28.2628 
 252   0.0000       1.044712        28.4281 
 253   0.0000       1.054710        28.7001 
 254   0.0000       1.058074        28.7917 
 255   0.0000       1.064154        28.9571 
 256   0.0000       1.067337        29.0437 
 257   0.0000       1.081912        29.4403 
 258   0.0000       1.098328        29.8870 
 259   0.0000       1.107805        30.1449 
 260   0.0000       1.115191        30.3459 
 261   0.0000       1.128582        30.7103 
 262   0.0000       1.143907        31.1273 
 263   0.0000       1.150188        31.2982 
 264   0.0000       1.168474        31.7958 
 265   0.0000       1.186320        32.2814 
 266   0.0000       1.199797        32.6481 
 267   0.0000       1.206126        32.8204 
 268   0.0000       1.208802        32.8932 
 269   0.0000       1.213136        33.0111 
 270   0.0000       1.214686        33.0533 
 271   0.0000       1.221266        33.2323 
 272   0.0000       1.223560        33.2948 
 273   0.0000       1.230894        33.4943 
 274   0.0000       1.234809        33.6008 
 275   0.0000       1.255725        34.1700 
 276   0.0000       1.277064        34.7507 
 277   0.0000       1.292739        35.1772 
 278   0.0000       1.295160        35.2431 
 279   0.0000       1.297943        35.3188 
 280   0.0000       1.311613        35.6908 
 281   0.0000       1.325825        36.0775 
 282   0.0000       1.328140        36.1405 
 283   0.0000       1.341586        36.5064 
 284   0.0000       1.355313        36.8799 
 285   0.0000       1.363219        37.0951 
 286   0.0000       1.377858        37.4934 
 287   0.0000       1.384822        37.6829 
 288   0.0000       1.398215        38.0474 
 289   0.0000       1.398990        38.0685 
 290   0.0000       1.402348        38.1598 
 291   0.0000       1.424646        38.7666 
 292   0.0000       1.425747        38.7965 
 293   0.0000       1.426310        38.8119 
 294   0.0000       1.427622        38.8476 
 295   0.0000       1.431701        38.9586 
 296   0.0000       1.449669        39.4475 
 297   0.0000       1.455475        39.6055 
 298   0.0000       1.465507        39.8785 
 299   0.0000       1.474746        40.1299 
 300   0.0000       1.475803        40.1586 
 301   0.0000       1.482196        40.3326 
 302   0.0000       1.483746        40.3748 
 303   0.0000       1.486819        40.4584 
 304   0.0000       1.499838        40.8127 
 305   0.0000       1.504994        40.9530 
 306   0.0000       1.510650        41.1069 
 307   0.0000       1.522256        41.4227 
 308   0.0000       1.533444        41.7271 
 309   0.0000       1.542767        41.9808 
 310   0.0000       1.560028        42.4505 
 311   0.0000       1.570039        42.7229 
 312   0.0000       1.582219        43.0544 
 313   0.0000       1.588941        43.2373 
 314   0.0000       1.596543        43.4442 
 315   0.0000       1.597984        43.4833 
 316   0.0000       1.598833        43.5065 
 317   0.0000       1.609194        43.7884 
 318   0.0000       1.611938        43.8631 
 319   0.0000       1.617338        44.0100 
 320   0.0000       1.624589        44.2073 
 321   0.0000       1.627349        44.2824 
 322   0.0000       1.631026        44.3825 
 323   0.0000       1.635492        44.5040 
 324   0.0000       1.639927        44.6247 
 325   0.0000       1.640328        44.6356 
 326   0.0000       1.646740        44.8101 
 327   0.0000       1.647643        44.8346 
 328   0.0000       1.651276        44.9335 
 329   0.0000       1.652292        44.9611 
 330   0.0000       1.661268        45.2054 
 331   0.0000       1.673337        45.5338 
 332   0.0000       1.674374        45.5620 
 333   0.0000       1.677654        45.6513 
 334   0.0000       1.681868        45.7659 
 335   0.0000       1.686267        45.8856 
 336   0.0000       1.689715        45.9795 
 337   0.0000       1.693091        46.0713 
 338   0.0000       1.699760        46.2528 
 339   0.0000       1.702289        46.3216 
 340   0.0000       1.705465        46.4081 
 341   0.0000       1.706255        46.4296 
 342   0.0000       1.710315        46.5400 
 343   0.0000       1.717675        46.7403 
 344   0.0000       1.723324        46.8940 
 345   0.0000       1.735982        47.2385 
 346   0.0000       1.739707        47.3398 
 347   0.0000       1.743651        47.4471 
 348   0.0000       1.747470        47.5511 
 349   0.0000       1.761362        47.9291 
 350   0.0000       1.771992        48.2184 
 351   0.0000       1.772127        48.2220 
 352   0.0000       1.783652        48.5356 
 353   0.0000       1.786357        48.6092 
 354   0.0000       1.791510        48.7495 
 355   0.0000       1.795482        48.8575 
 356   0.0000       1.798397        48.9369 
 357   0.0000       1.805514        49.1305 
 358   0.0000       1.808857        49.2215 
 359   0.0000       1.820425        49.5363 
[...]
Orbital ranges used for CP-SCF:
 Operator 0:  Orbitals   0... 84  to  85...460
 Operator 1:  Orbitals   0... 83  to  84...460
DFT calculation                         ... on
Variables per vector in CP-SCF ... 63628
Number of vectors sought       ... 3
     CP-SCF ITERATION   0: 
     CP-SCF ITERATION   1:      0.000000512603

Forming final perturbed densities           ... done
Transforming perturbed density to AO basis  ... done

Using FinalGrid as integration grid:         ... finished setting up the grid
Time for grid setup =    0.136 sec

 Raw HFC matrix (all values in MHz): 
 ------------------------------
                -0.1192               0.0687              -0.0000
                 0.0688               0.2314              -0.0001
                -0.0000              -0.0001              -0.1311

 A(FC)          -0.0063              -0.0063              -0.0063
 A(SD)          -0.1248              -0.1259               0.2506
 A(ORB+DIA)     -0.0000              -0.0000               0.0000    A(PC) =  -0.0000
 A(ORB)          0.0000              -0.0000               0.0001    A(PC) =   0.0000
 A(DIA)         -0.0000              -0.0000              -0.0000    A(PC) =  -0.0000
             ----------           ----------           ----------
 A(Tot)         -0.1311              -0.1322               0.2444    A(iso)=   -0.0063
 Orientation: 
  X           0.0004633            0.9826060            0.1857021
  Y           0.0002038           -0.1857022            0.9826060
  Z           0.9999999           -0.0004174           -0.0002863

Notes:  (1) The A matrix conforms to the "SAI" spin Hamiltonian convention.
        (2) Tensor is right-handed.

 -----------------------------------------------------------
 Nucleus  44H : A:ISTP=    1 I=  0.5 P=533.5514 MHz/au**3
                Q:ISTP=    2 I=  1.0 Q=  0.0029 barn     
 -----------------------------------------------------------
 Solving for nuclear perturbation:
Forming RHS of the CP-SCF equations         ... 
Using LibInt in CPSCF-CP

Calculating nucleus orbit integrals         ... done

------------------------------------------------------------------------------
                           ORCA CP-SCF CALCULATION
------------------------------------------------------------------------------

Input orbitals are from        ... g-tensor_cc-pVDZ.gbw
Input Perturbation             ... g-tensor_cc-pVDZ.pin.tmp
Wavefunction output            ... g-tensor_cc-pVDZ.pout.tmp
Perturbation mode              ... Imaginary perturbation
Solver                         ... POPLE
Max. number of iterations      ... 64
Convergence tolerance          ... 1.000e-06
Integral handling              ... Direct
Number of perturbations        ... 3
Number of operators            ... 2
Orbital ranges used for CP-SCF:
 Operator 0:  Orbitals   0... 84  to  85...460
 Operator 1:  Orbitals   0... 83  to  84...460
DFT calculation                         ... on
Variables per vector in CP-SCF ... 63628
Number of vectors sought       ... 3
     CP-SCF ITERATION   0: 
     CP-SCF ITERATION   1:      0.000002542167
     CP-SCF ITERATION   2:      0.000000854714

Forming final perturbed densities           ... done
Transforming perturbed density to AO basis  ... done

Using FinalGrid as integration grid:         ... finished setting up the grid
Time for grid setup =    0.110 sec

 Raw HFC matrix (all values in MHz): 
 ------------------------------
                 0.3126               0.0355              -0.0001
                 0.0355               0.9062               0.0001
                -0.0001               0.0001               0.5145

 A(FC)           0.5779               0.5779               0.5779
 A(SD)          -0.2675              -0.0633               0.3308
 A(ORB+DIA)      0.0001              -0.0001              -0.0003    A(PC) =  -0.0001
 A(ORB)          0.0000              -0.0000              -0.0003    A(PC) =  -0.0001
 A(DIA)          0.0000              -0.0001              -0.0000    A(PC) =  -0.0000
             ----------           ----------           ----------
 A(Tot)          0.3105               0.5145               0.9084    A(iso)=    0.5778
 Orientation: 
  X          -0.9982287           -0.0005474            0.0594915
  Y           0.0594915           -0.0001394            0.9982288
  Z          -0.0005382            0.9999998            0.0001718

Notes:  (1) The A matrix conforms to the "SAI" spin Hamiltonian convention.
        (2) Tensor is right-handed.

 -----------------------------------------------------------
 Nucleus  45H : A:ISTP=    1 I=  0.5 P=533.5514 MHz/au**3
                Q:ISTP=    2 I=  1.0 Q=  0.0029 barn     
 -----------------------------------------------------------
 Solving for nuclear perturbation:
Forming RHS of the CP-SCF equations         ... 
Using LibInt in CPSCF-CP

Calculating nucleus orbit integrals         ... done

------------------------------------------------------------------------------
                           ORCA CP-SCF CALCULATION
------------------------------------------------------------------------------

Input orbitals are from        ... g-tensor_cc-pVDZ.gbw
Input Perturbation             ... g-tensor_cc-pVDZ.pin.tmp
Wavefunction output            ... g-tensor_cc-pVDZ.pout.tmp
Perturbation mode              ... Imaginary perturbation
Solver                         ... POPLE
Max. number of iterations      ... 64
Convergence tolerance          ... 1.000e-06
Integral handling              ... Direct
Number of perturbations        ... 3
Number of operators            ... 2
Orbital ranges used for CP-SCF:
 Operator 0:  Orbitals   0... 84  to  85...460
 Operator 1:  Orbitals   0... 83  to  84...460
DFT calculation                         ... on
Variables per vector in CP-SCF ... 63628
Number of vectors sought       ... 3
     CP-SCF ITERATION   0: 
     CP-SCF ITERATION   1:      0.000002817137
     CP-SCF ITERATION   2:      0.000000973763

Forming final perturbed densities           ... done
Transforming perturbed density to AO basis  ... done

Using FinalGrid as integration grid:         ... finished setting up the grid
Time for grid setup =    0.131 sec

 Raw HFC matrix (all values in MHz): 
 ------------------------------
                -0.1344               0.1356              -0.0000
                 0.1356              -0.2446               0.0000
                -0.0000               0.0000              -0.1957

 A(FC)          -0.1916              -0.1916              -0.1916
 A(SD)           0.1484              -0.0041              -0.1443
 A(ORB+DIA)      0.0000              -0.0000               0.0000    A(PC) =   0.0000
 A(ORB)          0.0000               0.0000               0.0000    A(PC) =   0.0000
 A(DIA)         -0.0000              -0.0000              -0.0000    A(PC) =  -0.0000
             ----------           ----------           ----------
 A(Tot)         -0.0431              -0.1957              -0.3359    A(iso)=   -0.1916
 Orientation: 
  X           0.8295138           -0.0000508           -0.5584862
  Y           0.5584862           -0.0002162            0.8295138
  Z          -0.0001629           -1.0000000           -0.0001510

Notes:  (1) The A matrix conforms to the "SAI" spin Hamiltonian convention.
        (2) Tensor is right-handed.

 -----------------------------------------------------------
 Nucleus  46H : A:ISTP=    1 I=  0.5 P=533.5514 MHz/au**3
                Q:ISTP=    2 I=  1.0 Q=  0.0029 barn     
 -----------------------------------------------------------
 Solving for nuclear perturbation:
Forming RHS of the CP-SCF equations         ... 
Using LibInt in CPSCF-CP

Calculating nucleus orbit integrals         ... done

------------------------------------------------------------------------------
                           ORCA CP-SCF CALCULATION
------------------------------------------------------------------------------

Input orbitals are from        ... g-tensor_cc-pVDZ.gbw
Input Perturbation             ... g-tensor_cc-pVDZ.pin.tmp
Wavefunction output            ... g-tensor_cc-pVDZ.pout.tmp
Perturbation mode              ... Imaginary perturbation
Solver                         ... POPLE
Max. number of iterations      ... 64
Convergence tolerance          ... 1.000e-06
Integral handling              ... Direct
Number of perturbations        ... 3
Number of operators            ... 2
Orbital ranges used for CP-SCF:
 Operator 0:  Orbitals   0... 84  to  85...460
 Operator 1:  Orbitals   0... 83  to  84...460
DFT calculation                         ... on
Variables per vector in CP-SCF ... 63628
Number of vectors sought       ... 3
     CP-SCF ITERATION   0: 
     CP-SCF ITERATION   1:      0.000003673832
     CP-SCF ITERATION   2:      0.000000017982

Forming final perturbed densities           ... done
Transforming perturbed density to AO basis  ... done

Using FinalGrid as integration grid:         ... finished setting up the grid
Time for grid setup =    0.119 sec

 Raw HFC matrix (all values in MHz): 
 ------------------------------
                 1.1822              -0.2662              -0.0002
                -0.2662               0.0640              -0.0000
                -0.0002              -0.0000               0.3703

 A(FC)           0.5390               0.5390               0.5390
 A(SD)          -0.5350              -0.1686               0.7036
 A(ORB+DIA)     -0.0001              -0.0001              -0.0002    A(PC) =  -0.0001
 A(ORB)         -0.0001               0.0000              -0.0001    A(PC) =  -0.0001
 A(DIA)          0.0000              -0.0001              -0.0000    A(PC) =  -0.0000
             ----------           ----------           ----------
 A(Tot)          0.0038               0.3703               1.2424    A(iso)=    0.5388
 Orientation: 
  X           0.2203880           -0.0001509           -0.9754123
  Y           0.9754123            0.0001377            0.2203880
  Z           0.0001011           -1.0000000            0.0001776

Notes:  (1) The A matrix conforms to the "SAI" spin Hamiltonian convention.
        (2) Tensor is right-handed.

 -----------------------------------------------------------
 Nucleus  47H : A:ISTP=    1 I=  0.5 P=533.5514 MHz/au**3
                Q:ISTP=    2 I=  1.0 Q=  0.0029 barn     
 -----------------------------------------------------------
 Solving for nuclear perturbation:
Forming RHS of the CP-SCF equations         ... 
Using LibInt in CPSCF-CP

Calculating nucleus orbit integrals         ... done

------------------------------------------------------------------------------
                           ORCA CP-SCF CALCULATION
------------------------------------------------------------------------------

Input orbitals are from        ... g-tensor_cc-pVDZ.gbw
Input Perturbation             ... g-tensor_cc-pVDZ.pin.tmp
Wavefunction output            ... g-tensor_cc-pVDZ.pout.tmp
Perturbation mode              ... Imaginary perturbation
Solver                         ... POPLE
Max. number of iterations      ... 64
Convergence tolerance          ... 1.000e-06
Integral handling              ... Direct
Number of perturbations        ... 3
Number of operators            ... 2
Orbital ranges used for CP-SCF:
 Operator 0:  Orbitals   0... 84  to  85...460
 Operator 1:  Orbitals   0... 83  to  84...460
DFT calculation                         ... on
Variables per vector in CP-SCF ... 63628
Number of vectors sought       ... 3
     CP-SCF ITERATION   0: 
     CP-SCF ITERATION   1:      0.000003671538
     CP-SCF ITERATION   2:      0.000000018610

Forming final perturbed densities           ... done
Transforming perturbed density to AO basis  ... done

Using FinalGrid as integration grid:         ... finished setting up the grid
Time for grid setup =    0.101 sec

 Raw HFC matrix (all values in MHz): 
 ------------------------------
                 1.0544               0.3589               0.0000
                 0.3588               0.1481               0.0000
                 0.0000               0.0000               0.4184

 A(FC)           0.5404               0.5404               0.5404
 A(SD)          -0.5172              -0.1220               0.6391
 A(ORB+DIA)     -0.0001              -0.0001              -0.0002    A(PC) =  -0.0001
 A(ORB)         -0.0001               0.0000              -0.0002    A(PC) =  -0.0001
 A(DIA)          0.0000              -0.0001              -0.0000    A(PC) =  -0.0000
             ----------           ----------           ----------
 A(Tot)          0.0232               0.4184               1.1793    A(iso)=    0.5403
 Orientation: 
  X          -0.3286945           -0.0000441            0.9444363
  Y           0.9444363            0.0000699            0.3286945
  Z          -0.0000805            1.0000000            0.0000187

Notes:  (1) The A matrix conforms to the "SAI" spin Hamiltonian convention.
        (2) Tensor is right-handed.

 -----------------------------------------------------------
 Nucleus  48H : A:ISTP=    1 I=  0.5 P=533.5514 MHz/au**3
                Q:ISTP=    2 I=  1.0 Q=  0.0029 barn     
 -----------------------------------------------------------
 Solving for nuclear perturbation:
Forming RHS of the CP-SCF equations         ... 
Using LibInt in CPSCF-CP

Calculating nucleus orbit integrals         ... done

------------------------------------------------------------------------------
                           ORCA CP-SCF CALCULATION
------------------------------------------------------------------------------

Input orbitals are from        ... g-tensor_cc-pVDZ.gbw
Input Perturbation             ... g-tensor_cc-pVDZ.pin.tmp
Wavefunction output            ... g-tensor_cc-pVDZ.pout.tmp
Perturbation mode              ... Imaginary perturbation
Solver                         ... POPLE
Max. number of iterations      ... 64
Convergence tolerance          ... 1.000e-06
Integral handling              ... Direct
Number of perturbations        ... 3
Number of operators            ... 2
Orbital ranges used for CP-SCF:
 Operator 0:  Orbitals   0... 84  to  85...460
 Operator 1:  Orbitals   0... 83  to  84...460
DFT calculation                         ... on
Variables per vector in CP-SCF ... 63628
Number of vectors sought       ... 3
     CP-SCF ITERATION   0: 
     CP-SCF ITERATION   1:      0.000002829289
     CP-SCF ITERATION   2:      0.000000958808

Forming final perturbed densities           ... done
Transforming perturbed density to AO basis  ... done

Using FinalGrid as integration grid:         ... finished setting up the grid
Time for grid setup =    0.112 sec

 Raw HFC matrix (all values in MHz): 
 ------------------------------
                -0.0925              -0.0848              -0.0001
                -0.0848              -0.2728              -0.0000
                -0.0001              -0.0000              -0.2104

 A(FC)          -0.1919              -0.1919              -0.1919
 A(SD)           0.1330              -0.0185              -0.1145
 A(ORB+DIA)      0.0000              -0.0000              -0.0000    A(PC) =   0.0000
 A(ORB)          0.0001               0.0000               0.0000    A(PC) =   0.0000
 A(DIA)         -0.0000              -0.0000              -0.0000    A(PC) =  -0.0000
             ----------           ----------           ----------
 A(Tot)         -0.0589              -0.2104              -0.3064    A(iso)=   -0.1919
 Orientation: 
  X           0.9296457           -0.0002254            0.3684546
  Y          -0.3684544            0.0007007            0.9296456
  Z          -0.0004677           -0.9999997            0.0005684

Notes:  (1) The A matrix conforms to the "SAI" spin Hamiltonian convention.
        (2) Tensor is right-handed.


------------------------------------------------------------------------------- 
----------------------------------------------------------------------------
                           ORCA EULER ANGLE PROGRAM
----------------------------------------------------------------------------

Only g-tensor available        -->  using g-tensor as reference tensor

Reference tensor               ...  g

g-tensor ordering              ...  |g_min> --> |gx>
                                    |g_mid> --> |gy>
                                    |g_max> --> |gz>

A- and EFG-tensor ordering     ...  the axes |Ax>, |Qx>, |Ay>, etc. are assigned
                                    such that the Euler rotation is minimal. You
                                    can find the respective eigenvalues as Ax,
                                    EFGx, Ay, etc. in the tables below.
                                    The relation of |Ax>, |Ay>,  etc. to Amin, Amid, etc.
                                    (as printed in the ORCA EPR/NMR CALCULATION Output)
                                    is obtained in the detailed printout.

Euler rotation around          ...  z - y - z
   First rotation              -->  by alpha around z
   Second rotation             -->  by beta around y'
   Third rotation              -->  by gamma around z''
   Positive / Negative angle   -->  clockwise / counterclockwise rotation

Plot EFG-tensors                    (-)
Plot HFC-tensors                    (-)
Detailed Printout                   (-)

-------------------------------------------------------------------------
          Euler rotation of hyperfine tensor to g-tensor
-------------------------------------------------------------------------

-------------------------------------------------------------------
 Atom  |   Alpha    Beta    Gamma   |   Ax       Ay       Az 
       |          [degrees]         |           [MHz]         
-------------------------------------------------------------------
  9H      -90.0     31.6     90.0     -15.77    -6.79   -19.15
 10H      -90.0     34.1     90.0       3.71     4.50     9.14
 12H       90.0     17.9    -90.0     -46.48   -17.52   -71.53
 14H      -93.7     30.4    114.7      57.44    67.11    58.75
 15H      -86.5     30.3     65.6      57.31    66.97    58.62
 17H     -131.0     14.7    166.6      -3.20    -3.03     3.22
 18H      -49.2     14.7     13.6      -3.19    -3.03     3.22
 20H       66.8     28.4   -111.3      -0.10     0.03     2.27
 21H      113.3     28.3    -68.7      -0.10     0.03     2.27
 23H      -10.7     31.2     55.1      20.59    20.03    23.73
 24H     -169.3     31.2    125.0      20.59    20.03    23.72
 26H      105.3     33.2   -113.0      -0.98    -0.85     1.00
 27H       74.7     33.2    -66.9      -0.98    -0.85     1.00
 29H       38.9      8.6     -3.9      -0.10    -0.15     0.81
 30H      141.1      8.6   -176.1      -0.10    -0.15     0.81
 32H       71.9     20.1    -68.0      -0.13    -0.11     0.39
 33H      108.0     20.1   -112.0      -0.13    -0.11     0.39
 35H       90.2     12.1    -90.0      -7.59    -2.15   -10.51
 36H       89.6     10.3    -90.1      -0.80    -0.82     0.77
 37H       90.0      9.2    -90.0      -0.13    -0.13     0.24
 44H       89.9     16.5    -89.9       0.51     0.31     0.91
 45H      -90.0     36.2     90.0      -0.20    -0.34    -0.04
 46H       89.8      7.1    -89.8       0.37     1.24     0.00
 47H       90.0     39.1    -90.0       0.42     1.18     0.02
 48H      -88.4      1.8     88.5      -0.21    -0.06    -0.31
-------------------------------------------------------------------


Timings for individual modules:

Sum of individual times         ...     2856.875 sec (=  47.615 min)
GTO integral calculation        ...        2.011 sec (=   0.034 min)   0.1 %
Spin-Orbit-Coupling Matrices    ...       27.339 sec (=   0.456 min)   1.0 %
SCF iterations                  ...       99.742 sec (=   1.662 min)   3.5 %
EPR/NMR calculation             ...     2727.782 sec (=  45.463 min)  95.5 %
                             ****ORCA TERMINATED NORMALLY****
TOTAL RUN TIME: 0 days 0 hours 47 minutes 37 seconds 776 msec
