
                                 *****************
                                 * O   R   C   A *
                                 *****************

           --- An Ab Initio, DFT and Semiempirical electronic structure package ---

                  #######################################################
                  #                        -***-                        #
                  #          Department of theory and spectroscopy      #
                  #               Directorship: Frank Neese             #
                  #        Max Planck Institute fuer Kohlenforschung    #
                  #                Kaiser Wilhelm Platz 1               #
                  #                 D-45470 Muelheim/Ruhr               #
                  #                      Germany                        #
                  #                                                     #
                  #                  All rights reserved                #
                  #                        -***-                        #
                  #######################################################


                         Program Version 4.2.1 -  RELEASE  -


 With contributions from (in alphabetic order):
   Daniel Aravena         : Magnetic Suceptibility
   Michael Atanasov       : Ab Initio Ligand Field Theory (pilot matlab implementation)
   Alexander A. Auer      : GIAO ZORA, VPT2
   Ute Becker             : Parallelization
   Giovanni Bistoni       : ED, misc. LED, open-shell LED, HFLD
   Martin Brehm           : Molecular dynamics
   Dmytro Bykov           : SCF Hessian
   Vijay G. Chilkuri      : MRCI spin determinant printing, contributions to CSF-ICE
   Dipayan Datta          : RHF DLPNO-CCSD density
   Achintya Kumar Dutta   : EOM-CC, STEOM-CC
   Dmitry Ganyushin       : Spin-Orbit,Spin-Spin,Magnetic field MRCI
   Miquel Garcia          : C-PCM Hessian, Gaussian charge scheme
   Yang Guo               : DLPNO-NEVPT2, CIM, IAO-localization
   Andreas Hansen         : Spin unrestricted coupled pair/coupled cluster methods
   Benjamin Helmich-Paris : CASSCF linear response (MC-RPA)
   Lee Huntington         : MR-EOM, pCC
   Robert Izsak           : Overlap fitted RIJCOSX, COSX-SCS-MP3, EOM
   Christian Kollmar      : KDIIS, OOCD, Brueckner-CCSD(T), CCSD density
   Simone Kossmann        : Meta GGA functionals, TD-DFT gradient, OOMP2, MP2 Hessian
   Martin Krupicka        : AUTO-CI
   Lucas Lang             : DCDCAS
   Dagmar Lenk            : GEPOL surface, SMD
   Dimitrios Liakos       : Extrapolation schemes; Compound Job, initial MDCI parallelization
   Dimitrios Manganas     : Further ROCIS development; embedding schemes
   Dimitrios Pantazis     : SARC Basis sets
   Taras Petrenko         : DFT Hessian,TD-DFT gradient, ASA, ECA, R-Raman, ABS, FL, XAS/XES, NRVS
   Peter Pinski           : DLPNO-MP2, DLPNO-MP2 Gradient
   Christoph Reimann      : Effective Core Potentials
   Marius Retegan         : Local ZFS, SOC
   Christoph Riplinger    : Optimizer, TS searches, QM/MM, DLPNO-CCSD(T), (RO)-DLPNO pert. Triples
   Tobias Risthaus        : Range-separated hybrids, TD-DFT gradient, RPA, STAB
   Michael Roemelt        : Original ROCIS implementation
   Masaaki Saitow         : Open-shell DLPNO-CCSD energy and density
   Barbara Sandhoefer     : DKH picture change effects
   Avijit Sen             : IP-ROCIS
   Kantharuban Sivalingam : CASSCF convergence, NEVPT2, FIC-MRCI
   Bernardo de Souza      : ESD, SOC TD-DFT
   Georgi Stoychev        : AutoAux, RI-MP2 NMR
   Willem Van den Heuvel  : Paramagnetic NMR
   Boris Wezisla          : Elementary symmetry handling
   Frank Wennmohs         : Technical directorship


 We gratefully acknowledge several colleagues who have allowed us to
 interface, adapt or use parts of their codes:
   Stefan Grimme, W. Hujo, H. Kruse,             : VdW corrections, initial TS optimization,
                  C. Bannwarth                     DFT functionals, gCP, sTDA/sTD-DF
   Ed Valeev, F. Pavosevic, A. Kumar             : LibInt (2-el integral package), F12 methods
   Garnet Chan, S. Sharma, J. Yang, R. Olivares  : DMRG
   Ulf Ekstrom                                   : XCFun DFT Library
   Mihaly Kallay                                 : mrcc  (arbitrary order and MRCC methods)
   Andreas Klamt, Michael Diedenhofen            : otool_cosmo (COSMO solvation model)
   Jiri Pittner, Ondrej Demel                    : Mk-CCSD
   Frank Weinhold                                : gennbo (NPA and NBO analysis)
   Christopher J. Cramer and Donald G. Truhlar   : smd solvation model
   Lars Goerigk                                  : TD-DFT with DH, B97 family of functionals
   V. Asgeirsson, H. Jonsson                     : NEB implementation
   FAccTs GmbH                                   : IRC, NEB, NEB-TS, Multilevel, MM, QM/MM, CI optimization
   S Lehtola, MJT Oliveira, MAL Marques          : LibXC Library


 Your calculation uses the libint2 library for the computation of 2-el integrals
 For citations please refer to: http://libint.valeyev.net

 Your ORCA version has been built with support for libXC version: 4.2.3
 For citations please refer to: https://tddft.org/programs/libxc/

 This ORCA versions uses:
   CBLAS   interface :  Fast vector & matrix operations
   LAPACKE interface :  Fast linear algebra routines
   SCALAPACK package :  Parallel linear algebra routines




***************************************
The coordinates will be read from file: opt.xyz
***************************************


----- Orbital basis set information -----
Your calculation utilizes the basis: EPR-II
   V. Barone, in Recent Advances in Density Functional Methods, Part 1 (ed. D. P. Chong), World Scientific, Singapore, 1995, p. 287.

----- AuxJ basis set information -----
Your calculation utilizes the AutoAux generation procedure.
  G. L. Stoychev, A. A. Auer, F. Neese, J. Chem. Theory Comput. 13, 554 (2017)

----- AuxC basis set information -----
Your calculation utilizes the AutoAux generation procedure.
  G. L. Stoychev, A. A. Auer, F. Neese, J. Chem. Theory Comput. 13, 554 (2017)

----- AuxJK basis set information -----
Your calculation utilizes the AutoAux generation procedure.
  G. L. Stoychev, A. A. Auer, F. Neese, J. Chem. Theory Comput. 13, 554 (2017)

================================================================================
                                        WARNINGS
                       Please study these warnings very carefully!
================================================================================


WARNING: your system is open-shell and RHF/RKS was chosen
  ===> : WILL SWITCH to UHF/UKS


INFO   : the flag for use of LIBINT has been found!

================================================================================
                                       INPUT FILE
================================================================================
NAME = g-tensor_EPRII_invariant.inp
|  1> ! B3LYP EPR-II AUTOAUX
|  2> %pal nprocs 16 end
|  3> *XYZFile 0 2 opt.xyz
|  4> %EPRNMR
|  5>         GTENSOR   TRUE
|  6>         NUCLEI    = ALL H {AISO, ADIP, AORB}
|  7>         ORI       GIAO
|  8> END
|  9> 
| 10>                          ****END OF INPUT****
================================================================================

                       ****************************
                       * Single Point Calculation *
                       ****************************

---------------------------------
CARTESIAN COORDINATES (ANGSTROEM)
---------------------------------
  C     -4.052050    0.116927   -0.001125
  C     -2.836378    0.052264   -0.003127
  C      2.843071   -0.006518   -0.002320
  C     -1.409806    0.001811   -0.003079
  C     -0.708557   -1.259257   -0.002689
  C      0.712795   -1.194669   -0.002375
  C      1.414315    0.014456   -0.002569
  C      0.706927    1.258607   -0.003039
  C     -0.688672    1.208330   -0.003353
  H      1.286848   -2.121389   -0.002022
  H     -1.261464    2.135496   -0.003754
  C     -1.398412   -2.492570   -0.002619
  H     -2.491323   -2.454264   -0.003073
  C     -0.743848   -3.841327   -0.002185
  H     -0.072555   -3.937857   -0.880844
  H     -0.071512   -3.936811    0.875776
  C     -1.742531   -5.005541   -0.000908
  H     -2.400810   -4.913594    0.882641
  H     -2.401935   -4.914599   -0.883727
  C     -1.066225   -6.377387   -0.000559
  H     -0.425031   -6.508405    0.888511
  H     -0.426089   -6.509376   -0.890245
  C      1.481771    2.560040   -0.003221
  H      2.159651    2.558698    0.871462
  H      2.160200    2.558136   -0.877478
  C      0.663517    3.853786   -0.003865
  H      0.000268    3.878256   -0.888605
  H     -0.000091    3.878895    0.880590
  C      1.543910    5.108858   -0.004150
  H      2.210188    5.086501    0.878769
  H      2.210174    5.086092   -0.887068
  C      0.737630    6.409502   -0.004451
  H      0.087385    6.478415    0.885008
  H      0.087250    6.477923   -0.893850
  C      4.064880   -0.030315   -0.003350
  H     -5.122667    0.179487    0.003014
  H     -1.808152   -7.191937    0.000335
  H      1.396204    7.293024   -0.004749
  C      5.492863   -0.057907   -0.002944
  C      6.188621   -1.286555   -0.002980
  C      7.583011   -1.307878   -0.002498
  C      8.308696   -0.111219   -0.002036
  C      7.628959    1.112211   -0.002076
  C      6.234984    1.143496   -0.002546
  H      9.401235   -0.132014   -0.001654
  H      8.189556    2.049849   -0.001725
  H      5.620265   -2.218262   -0.003355
  H      5.702728    2.096660   -0.002574
  H      8.108553   -2.265886   -0.002490

----------------------------
CARTESIAN COORDINATES (A.U.)
----------------------------
  NO LB      ZA    FRAG     MASS         X           Y           Z
   0 C     6.0000    0    12.011   -7.657266    0.220960   -0.002127
   1 C     6.0000    0    12.011   -5.359978    0.098764   -0.005910
   2 C     6.0000    0    12.011    5.372625   -0.012317   -0.004383
   3 C     6.0000    0    12.011   -2.664146    0.003422   -0.005818
   4 C     6.0000    0    12.011   -1.338979   -2.379651   -0.005082
   5 C     6.0000    0    12.011    1.346987   -2.257597   -0.004488
   6 C     6.0000    0    12.011    2.672669    0.027318   -0.004854
   7 C     6.0000    0    12.011    1.335898    2.378423   -0.005743
   8 C     6.0000    0    12.011   -1.301402    2.283412   -0.006337
   9 H     1.0000    0     1.008    2.431790   -4.008845   -0.003822
  10 H     1.0000    0     1.008   -2.383821    4.035503   -0.007094
  11 C     6.0000    0    12.011   -2.642616   -4.710274   -0.004950
  12 H     1.0000    0     1.008   -4.707918   -4.637886   -0.005806
  13 C     6.0000    0    12.011   -1.405670   -7.259057   -0.004128
  14 H     1.0000    0     1.008   -0.137109   -7.441471   -1.664555
  15 H     1.0000    0     1.008   -0.135139   -7.439494    1.654978
  16 C     6.0000    0    12.011   -3.292906   -9.459101   -0.001715
  17 H     1.0000    0     1.008   -4.536874   -9.285347    1.667950
  18 H     1.0000    0     1.008   -4.538999   -9.287246   -1.670002
  19 C     6.0000    0    12.011   -2.014872  -12.051514   -0.001055
  20 H     1.0000    0     1.008   -0.803192  -12.299104    1.679042
  21 H     1.0000    0     1.008   -0.805191  -12.300938   -1.682320
  22 C     6.0000    0    12.011    2.800141    4.837774   -0.006088
  23 H     1.0000    0     1.008    4.081150    4.835239    1.646824
  24 H     1.0000    0     1.008    4.082186    4.834177   -1.658193
  25 C     6.0000    0    12.011    1.253866    7.282601   -0.007304
  26 H     1.0000    0     1.008    0.000506    7.328841   -1.679220
  27 H     1.0000    0     1.008   -0.000171    7.330050    1.664074
  28 C     6.0000    0    12.011    2.917568    9.654343   -0.007842
  29 H     1.0000    0     1.008    4.176651    9.612093    1.660632
  30 H     1.0000    0     1.008    4.176624    9.611321   -1.676315
  31 C     6.0000    0    12.011    1.393919   12.112204   -0.008411
  32 H     1.0000    0     1.008    0.165134   12.242430    1.672423
  33 H     1.0000    0     1.008    0.164879   12.241500   -1.689132
  34 C     6.0000    0    12.011    7.681511   -0.057286   -0.006330
  35 H     1.0000    0     1.008   -9.680438    0.339180    0.005696
  36 H     1.0000    0     1.008   -3.416912  -13.590791    0.000633
  37 H     1.0000    0     1.008    2.638443   13.781818   -0.008974
  38 C     6.0000    0    12.011   10.380006   -0.109429   -0.005563
  39 C     6.0000    0    12.011   11.694799   -2.431236   -0.005631
  40 C     6.0000    0    12.011   14.329813   -2.471531   -0.004721
  41 C     6.0000    0    12.011   15.701161   -0.210173   -0.003847
  42 C     6.0000    0    12.011   14.416642    2.101774   -0.003923
  43 C     6.0000    0    12.011   11.782412    2.160894   -0.004811
  44 H     1.0000    0     1.008   17.765759   -0.249470   -0.003125
  45 H     1.0000    0     1.008   15.476017    3.873654   -0.003261
  46 H     1.0000    0     1.008   10.620762   -4.191907   -0.006340
  47 H     1.0000    0     1.008   10.776594    3.962114   -0.004864
  48 H     1.0000    0     1.008   15.322945   -4.281903   -0.004706

--------------------------------
INTERNAL COORDINATES (ANGSTROEM)
--------------------------------
 C      0   0   0     0.000000000000     0.00000000     0.00000000
 C      1   0   0     1.217392463402     0.00000000     0.00000000
 C      2   1   0     5.679752967333   177.54607745     0.00000000
 C      2   1   3     1.427464507844   178.97621835     2.99963735
 C      4   2   1     1.442928072681   121.10286574   174.59303150
 C      5   4   2     1.422818818095   116.47555857   180.01351862
 C      6   5   4     1.397896705323   122.72360118     0.00000000
 C      7   6   5     1.431192191456   120.25686941     0.00000000
 C      8   7   6     1.396504372313   117.55808612     0.00000000
 H      6   5   4     1.090113555167   119.17417606   179.99683386
 H      9   8   7     1.089829170978   119.64399652   180.00238616
 C      5   4   2     1.413138540800   121.70211242     0.00000000
 H     12   5   4     1.093581926460   117.21314781     0.00000000
 C     12   5   4     1.499200212954   124.89176181   180.00185957
 H     14  12   5     1.109953046002   110.00297251   302.58205182
 H     14  12   5     1.109940542124   110.00449967    57.30995082
 C     14  12   5     1.533871093628   113.48874361   179.94709893
 H     17  14  12     1.105642329404   108.97709710   302.35515742
 H     17  14  12     1.105646450357   108.97838878    57.63698762
 C     17  14  12     1.529493708470   113.13361820   179.99645651
 H     20  17  14     1.103965442474   111.31232746    59.85716274
 H     20  17  14     1.103964317510   111.31214955   300.14658950
 C      8   7   6     1.514632031446   119.61003540   179.99900754
 H     23   8   7     1.106614017851   108.19417346   303.70774145
 H     23   8   7     1.106613647898   108.19460158    56.27794367
 C     23   8   7     1.530790479478   116.91930285   179.99422215
 H     26  23   8     1.106012204731   109.85126413   301.75776385
 H     26  23   8     1.106014029284   109.85058089    58.25398954
 C     26  23   8     1.533068073999   112.63950750   180.00598017
 H     29  26  23     1.106332312690   109.21751814   302.32623354
 H     29  26  23     1.106331719220   109.21671286    57.70277628
 C     29  26  23     1.530281896808   113.15643723   180.01397685
 H     32  29  26     1.103949500289   111.29937649    59.85893786
 H     32  29  26     1.103950466015   111.29950519   300.15162688
 C      3   2   1     1.222042071308   179.47413880   183.77203682
 H      1   2   4     1.072450931048   179.67479455   342.41662336
 H     20  17  14     1.101793813071   111.42857475   180.00149974
 H     32  29  26     1.101966715990   111.50416404   180.00547969
 C     35   3   7     1.428248903248   179.93479586   250.24672649
 C     39  35   3     1.411968106084   120.62899535    97.78516240
 C     40  39  35     1.394552495566   120.39812521   180.00399064
 C     41  40  39     1.399504885731   120.35761788     0.00000000
 C     42  41  40     1.399579435644   119.70970085     0.00000000
 C     43  42  41     1.394325697236   120.34224050     0.00000000
 H     42  41  40     1.092736122162   120.14328880   179.99965750
 H     43  42  41     1.092444700176   120.06899553   180.00053576
 H     40  39  35     1.091378457992   119.09412098     0.00000000
 H     44  43  42     1.091704795595   120.46505926   179.99973754
 H     41  40  39     1.092691214875   119.62435666   179.99746342

---------------------------
INTERNAL COORDINATES (A.U.)
---------------------------
 C      0   0   0     0.000000000000     0.00000000     0.00000000
 C      1   0   0     2.300538353329     0.00000000     0.00000000
 C      2   1   0    10.733177616585   177.54607745     0.00000000
 C      2   1   3     2.697516985717   178.97621835     2.99963735
 C      4   2   1     2.726738888315   121.10286574   174.59303150
 C      5   4   2     2.688737904389   116.47555857   180.01351862
 C      6   5   4     2.641641936572   122.72360118     0.00000000
 C      7   6   5     2.704561286858   120.25686941     0.00000000
 C      8   7   6     2.639010808494   117.55808612     0.00000000
 H      6   5   4     2.060016074140   119.17417606   179.99683386
 H      9   8   7     2.059478665907   119.64399652   180.00238616
 C      5   4   2     2.670444831400   121.70211242     0.00000000
 H     12   5   4     2.066570346016   117.21314781     0.00000000
 C     12   5   4     2.833077822400   124.89176181   180.00185957
 H     14  12   5     2.097507278455   110.00297251   302.58205182
 H     14  12   5     2.097483649550   110.00449967    57.30995082
 C     14  12   5     2.898596291696   113.48874361   179.94709893
 H     17  14  12     2.089361204645   108.97709710   302.35515742
 H     17  14  12     2.089368992118   108.97838878    57.63698762
 C     17  14  12     2.890324232564   113.13361820   179.99645651
 H     20  17  14     2.086192347589   111.31232746    59.85716274
 H     20  17  14     2.086190221716   111.31214955   300.14658950
 C      8   7   6     2.862239733097   119.61003540   179.99900754
 H     23   8   7     2.091197429696   108.19417346   303.70774145
 H     23   8   7     2.091196730586   108.19460158    56.27794367
 C     23   8   7     2.892774774627   116.91930285   179.99422215
 H     26  23   8     2.090060167717   109.85126413   301.75776385
 H     26  23   8     2.090063615621   109.85058089    58.25398954
 C     26  23   8     2.897078804516   112.63950750   180.00598017
 H     29  26  23     2.090665084092   109.21751814   302.32623354
 H     29  26  23     2.090663962595   109.21671286    57.70277628
 C     29  26  23     2.891813692665   113.15643723   180.01397685
 H     32  29  26     2.086162221226   111.29937649    59.85893786
 H     32  29  26     2.086164046183   111.29950519   300.15162688
 C      3   2   1     2.309324838903   179.47413880   183.77203682
 H      1   2   4     2.026638551750   179.67479455   342.41662336
 H     20  17  14     2.082088562752   111.42857475   180.00149974
 H     32  29  26     2.082415301918   111.50416404   180.00547969
 C     35   3   7     2.698999278212   179.93479586   250.24672649
 C     39  35   3     2.668233030330   120.62899535    97.78516240
 C     40  39  35     2.635322295996   120.39812521   180.00399064
 C     41  40  39     2.644680957116   120.35761788     0.00000000
 C     42  41  40     2.644821836036   119.70970085     0.00000000
 C     43  42  41     2.634893709264   120.34224050     0.00000000
 H     42  41  40     2.064972007529   120.14328880   179.99965750
 H     43  42  41     2.064421299786   120.06899553   180.00053576
 H     40  39  35     2.062406394066   119.09412098     0.00000000
 H     44  43  42     2.063023082763   120.46505926   179.99973754
 H     41  40  39     2.064887145055   119.62435666   179.99746342

---------------------
BASIS SET INFORMATION
---------------------
There are 2 groups of distinct atoms

 Group   1 Type C   : 10s5p1d contracted to 6s2p1d pattern {511111/41/1}
 Group   2 Type H   : 6s1p contracted to 4s1p pattern {3111/1}

Atom   0C    basis set group =>   1
Atom   1C    basis set group =>   1
Atom   2C    basis set group =>   1
Atom   3C    basis set group =>   1
Atom   4C    basis set group =>   1
Atom   5C    basis set group =>   1
Atom   6C    basis set group =>   1
Atom   7C    basis set group =>   1
Atom   8C    basis set group =>   1
Atom   9H    basis set group =>   2
Atom  10H    basis set group =>   2
Atom  11C    basis set group =>   1
Atom  12H    basis set group =>   2
Atom  13C    basis set group =>   1
Atom  14H    basis set group =>   2
Atom  15H    basis set group =>   2
Atom  16C    basis set group =>   1
Atom  17H    basis set group =>   2
Atom  18H    basis set group =>   2
Atom  19C    basis set group =>   1
Atom  20H    basis set group =>   2
Atom  21H    basis set group =>   2
Atom  22C    basis set group =>   1
Atom  23H    basis set group =>   2
Atom  24H    basis set group =>   2
Atom  25C    basis set group =>   1
Atom  26H    basis set group =>   2
Atom  27H    basis set group =>   2
Atom  28C    basis set group =>   1
Atom  29H    basis set group =>   2
Atom  30H    basis set group =>   2
Atom  31C    basis set group =>   1
Atom  32H    basis set group =>   2
Atom  33H    basis set group =>   2
Atom  34C    basis set group =>   1
Atom  35H    basis set group =>   2
Atom  36H    basis set group =>   2
Atom  37H    basis set group =>   2
Atom  38C    basis set group =>   1
Atom  39C    basis set group =>   1
Atom  40C    basis set group =>   1
Atom  41C    basis set group =>   1
Atom  42C    basis set group =>   1
Atom  43C    basis set group =>   1
Atom  44H    basis set group =>   2
Atom  45H    basis set group =>   2
Atom  46H    basis set group =>   2
Atom  47H    basis set group =>   2
Atom  48H    basis set group =>   2
---------------------------------
AUXILIARY/J BASIS SET INFORMATION
---------------------------------
There are 2 groups of distinct atoms

 Group   1 Type C   : 17s13p12d2f contracted to 17s13p12d2f pattern {11111111111111111/1111111111111/111111111111/11}
 Group   2 Type H   : 15s6p1d contracted to 15s6p1d pattern {111111111111111/111111/1}

Atom   0C    basis set group =>   1
Atom   1C    basis set group =>   1
Atom   2C    basis set group =>   1
Atom   3C    basis set group =>   1
Atom   4C    basis set group =>   1
Atom   5C    basis set group =>   1
Atom   6C    basis set group =>   1
Atom   7C    basis set group =>   1
Atom   8C    basis set group =>   1
Atom   9H    basis set group =>   2
Atom  10H    basis set group =>   2
Atom  11C    basis set group =>   1
Atom  12H    basis set group =>   2
Atom  13C    basis set group =>   1
Atom  14H    basis set group =>   2
Atom  15H    basis set group =>   2
Atom  16C    basis set group =>   1
Atom  17H    basis set group =>   2
Atom  18H    basis set group =>   2
Atom  19C    basis set group =>   1
Atom  20H    basis set group =>   2
Atom  21H    basis set group =>   2
Atom  22C    basis set group =>   1
Atom  23H    basis set group =>   2
Atom  24H    basis set group =>   2
Atom  25C    basis set group =>   1
Atom  26H    basis set group =>   2
Atom  27H    basis set group =>   2
Atom  28C    basis set group =>   1
Atom  29H    basis set group =>   2
Atom  30H    basis set group =>   2
Atom  31C    basis set group =>   1
Atom  32H    basis set group =>   2
Atom  33H    basis set group =>   2
Atom  34C    basis set group =>   1
Atom  35H    basis set group =>   2
Atom  36H    basis set group =>   2
Atom  37H    basis set group =>   2
Atom  38C    basis set group =>   1
Atom  39C    basis set group =>   1
Atom  40C    basis set group =>   1
Atom  41C    basis set group =>   1
Atom  42C    basis set group =>   1
Atom  43C    basis set group =>   1
Atom  44H    basis set group =>   2
Atom  45H    basis set group =>   2
Atom  46H    basis set group =>   2
Atom  47H    basis set group =>   2
Atom  48H    basis set group =>   2
---------------------------------
AUXILIARY/C BASIS SET INFORMATION
---------------------------------
There are 2 groups of distinct atoms

 Group   1 Type C   : 17s13p12d2f contracted to 17s13p12d2f pattern {11111111111111111/1111111111111/111111111111/11}
 Group   2 Type H   : 15s6p1d contracted to 15s6p1d pattern {111111111111111/111111/1}

Atom   0C    basis set group =>   1
Atom   1C    basis set group =>   1
Atom   2C    basis set group =>   1
Atom   3C    basis set group =>   1
Atom   4C    basis set group =>   1
Atom   5C    basis set group =>   1
Atom   6C    basis set group =>   1
Atom   7C    basis set group =>   1
Atom   8C    basis set group =>   1
Atom   9H    basis set group =>   2
Atom  10H    basis set group =>   2
Atom  11C    basis set group =>   1
Atom  12H    basis set group =>   2
Atom  13C    basis set group =>   1
Atom  14H    basis set group =>   2
Atom  15H    basis set group =>   2
Atom  16C    basis set group =>   1
Atom  17H    basis set group =>   2
Atom  18H    basis set group =>   2
Atom  19C    basis set group =>   1
Atom  20H    basis set group =>   2
Atom  21H    basis set group =>   2
Atom  22C    basis set group =>   1
Atom  23H    basis set group =>   2
Atom  24H    basis set group =>   2
Atom  25C    basis set group =>   1
Atom  26H    basis set group =>   2
Atom  27H    basis set group =>   2
Atom  28C    basis set group =>   1
Atom  29H    basis set group =>   2
Atom  30H    basis set group =>   2
Atom  31C    basis set group =>   1
Atom  32H    basis set group =>   2
Atom  33H    basis set group =>   2
Atom  34C    basis set group =>   1
Atom  35H    basis set group =>   2
Atom  36H    basis set group =>   2
Atom  37H    basis set group =>   2
Atom  38C    basis set group =>   1
Atom  39C    basis set group =>   1
Atom  40C    basis set group =>   1
Atom  41C    basis set group =>   1
Atom  42C    basis set group =>   1
Atom  43C    basis set group =>   1
Atom  44H    basis set group =>   2
Atom  45H    basis set group =>   2
Atom  46H    basis set group =>   2
Atom  47H    basis set group =>   2
Atom  48H    basis set group =>   2
----------------------------------
AUXILIARY/JK BASIS SET INFORMATION
----------------------------------
There are 2 groups of distinct atoms

 Group   1 Type C   : 17s13p12d2f contracted to 17s13p12d2f pattern {11111111111111111/1111111111111/111111111111/11}
 Group   2 Type H   : 15s6p1d contracted to 15s6p1d pattern {111111111111111/111111/1}

Atom   0C    basis set group =>   1
Atom   1C    basis set group =>   1
Atom   2C    basis set group =>   1
Atom   3C    basis set group =>   1
Atom   4C    basis set group =>   1
Atom   5C    basis set group =>   1
Atom   6C    basis set group =>   1
Atom   7C    basis set group =>   1
Atom   8C    basis set group =>   1
Atom   9H    basis set group =>   2
Atom  10H    basis set group =>   2
Atom  11C    basis set group =>   1
Atom  12H    basis set group =>   2
Atom  13C    basis set group =>   1
Atom  14H    basis set group =>   2
Atom  15H    basis set group =>   2
Atom  16C    basis set group =>   1
Atom  17H    basis set group =>   2
Atom  18H    basis set group =>   2
Atom  19C    basis set group =>   1
Atom  20H    basis set group =>   2
Atom  21H    basis set group =>   2
Atom  22C    basis set group =>   1
Atom  23H    basis set group =>   2
Atom  24H    basis set group =>   2
Atom  25C    basis set group =>   1
Atom  26H    basis set group =>   2
Atom  27H    basis set group =>   2
Atom  28C    basis set group =>   1
Atom  29H    basis set group =>   2
Atom  30H    basis set group =>   2
Atom  31C    basis set group =>   1
Atom  32H    basis set group =>   2
Atom  33H    basis set group =>   2
Atom  34C    basis set group =>   1
Atom  35H    basis set group =>   2
Atom  36H    basis set group =>   2
Atom  37H    basis set group =>   2
Atom  38C    basis set group =>   1
Atom  39C    basis set group =>   1
Atom  40C    basis set group =>   1
Atom  41C    basis set group =>   1
Atom  42C    basis set group =>   1
Atom  43C    basis set group =>   1
Atom  44H    basis set group =>   2
Atom  45H    basis set group =>   2
Atom  46H    basis set group =>   2
Atom  47H    basis set group =>   2
Atom  48H    basis set group =>   2


           ************************************************************
           *        Program running with 16 parallel MPI-processes    *
           *              working on a common directory               *
           ************************************************************
------------------------------------------------------------------------------
                           ORCA GTO INTEGRAL CALCULATION
------------------------------------------------------------------------------

                         BASIS SET STATISTICS AND STARTUP INFO

 # of primitive gaussian shells          ...  559
 # of primitive gaussian functions       ...  945
 # of contracted shells                  ...  341
 # of contracted basis functions         ...  583
 Highest angular momentum                ...    2
 Maximum contraction depth               ...    5
 Integral package used                   ... LIBINT
 Integral threshhold            Thresh   ...  1.000e-10
 Primitive cut-off              TCut     ...  1.000e-11


------------------------------ INTEGRAL EVALUATION ----------------------------


 * One electron integrals 
 Pre-screening matrix                    ... done
 Shell pair data                         ... done (   0.011 sec)



           ************************************************************
           *        Program running with 16 parallel MPI-processes    *
           *              working on a common directory               *
           ************************************************************
-------------------------------------------------------------------------------
                                 ORCA SCF
-------------------------------------------------------------------------------

------------
SCF SETTINGS
------------
Hamiltonian:
 Density Functional     Method          .... DFT(GTOs)
 Exchange Functional    Exchange        .... B88
   X-Alpha parameter    XAlpha          ....  0.666667
   Becke's b parameter  XBeta           ....  0.004200
 Correlation Functional Correlation     .... LYP
 LDA part of GGA corr.  LDAOpt          .... VWN-5
 Gradients option       PostSCFGGA      .... off
 Hybrid DFT is turned on
   Fraction HF Exchange ScalHFX         ....  0.200000
   Scaling of DF-GGA-X  ScalDFX         ....  0.720000
   Scaling of DF-GGA-C  ScalDFC         ....  0.810000
   Scaling of DF-LDA-C  ScalLDAC        ....  1.000000
   Perturbative correction              ....  0.000000
   Density functional embedding theory  .... OFF
   NL short-range parameter             ....  4.800000


General Settings:
 Integral files         IntName         .... g-tensor_EPRII_invariant
 Hartree-Fock type      HFTyp           .... UHF
 Total Charge           Charge          ....    0
 Multiplicity           Mult            ....    2
 Number of Electrons    NEL             ....  169
 Basis Dimension        Dim             ....  583
 Nuclear Repulsion      ENuc            ....   1724.1135441193 Eh

Convergence Acceleration:
 DIIS                   CNVDIIS         .... on
   Start iteration      DIISMaxIt       ....    12
   Startup error        DIISStart       ....  0.200000
   # of expansion vecs  DIISMaxEq       ....     5
   Bias factor          DIISBfac        ....   1.050
   Max. coefficient     DIISMaxC        ....  10.000
 Newton-Raphson         CNVNR           .... off
 SOSCF                  CNVSOSCF        .... off
 Level Shifting         CNVShift        .... on
   Level shift para.    LevelShift      ....    0.2500
   Turn off err/grad.   ShiftErr        ....    0.0010
 Zerner damping         CNVZerner       .... off
 Static damping         CNVDamp         .... on
   Fraction old density DampFac         ....    0.7000
   Max. Damping (<1)    DampMax         ....    0.9800
   Min. Damping (>=0)   DampMin         ....    0.0000
   Turn off err/grad.   DampErr         ....    0.1000
 Fernandez-Rico         CNVRico         .... off

SCF Procedure:
 Maximum # iterations   MaxIter         ....   125
 SCF integral mode      SCFMode         .... Direct
   Integral package                     .... LIBINT
 Reset frequency        DirectResetFreq ....    20
 Integral Threshold     Thresh          ....  1.000e-10 Eh
 Primitive CutOff       TCut            ....  1.000e-11 Eh

Convergence Tolerance:
 Convergence Check Mode ConvCheckMode   .... Total+1el-Energy
 Convergence forced     ConvForced      .... 0
 Energy Change          TolE            ....  1.000e-06 Eh
 1-El. energy change                    ....  1.000e-03 Eh
 DIIS Error             TolErr          ....  1.000e-06


Diagonalization of the overlap matrix:
Smallest eigenvalue                        ... 7.287e-05
Time for diagonalization                   ...    0.084 sec
Threshold for overlap eigenvalues          ... 1.000e-08
Number of eigenvalues below threshold      ... 0
Time for construction of square roots      ...    0.058 sec
Total time needed                          ...    0.144 sec

-------------------
DFT GRID GENERATION
-------------------

General Integration Accuracy     IntAcc      ...  4.340
Radial Grid Type                 RadialGrid  ... Gauss-Chebyshev
Angular Grid (max. acc.)         AngularGrid ... Lebedev-110
Angular grid pruning method      GridPruning ... 3 (G Style)
Weight generation scheme         WeightScheme... Becke
Basis function cutoff            BFCut       ...    1.0000e-10
Integration weight cutoff        WCut        ...    1.0000e-14
Grids for H and He will be reduced by one unit

# of grid points (after initial pruning)     ...  59594 (   0.0 sec)
# of grid points (after weights+screening)   ...  53213 (   0.2 sec)
nearest neighbour list constructed           ...    0.0 sec
Grid point re-assignment to atoms done       ...    0.0 sec
Grid point division into batches done        ...    0.1 sec
Reduced shell lists constructed in    0.2 sec

Total number of grid points                  ...    53213
Total number of batches                      ...      854
Average number of points per batch           ...       62
Average number of grid points per atom       ...     1086
Average number of shells per batch           ...   108.65 (31.86%)
Average number of basis functions per batch  ...   205.60 (35.27%)
Average number of large shells per batch     ...    70.38 (64.78%)
Average number of large basis fcns per batch ...   133.95 (65.15%)
Maximum spatial batch extension              ...  15.68, 11.40, 20.28 au
Average spatial batch extension              ...   0.15,  0.19,  0.29 au

Time for grid setup =    0.417 sec

------------------------------
INITIAL GUESS: MODEL POTENTIAL
------------------------------
Loading Hartree-Fock densities                     ... done
Calculating cut-offs                               ... done
Setting up the integral package                    ... done
Initializing the effective Hamiltonian             ... done
Starting the Coulomb interaction                   ... done (   0.2 sec)
Reading the grid                                   ... done
Mapping shells                                     ... done
Starting the XC term evaluation                    ... done (   0.1 sec)
  promolecular density results
     # of electrons  =    169.019514935
     EX              =   -130.680439569
     EC              =     -5.564642614
     EX+EC           =   -136.245082183
Transforming the Hamiltonian                       ... done (   0.1 sec)
Diagonalizing the Hamiltonian                      ... done (   0.1 sec)
Back transforming the eigenvectors                 ... done (   0.0 sec)
Now organizing SCF variables                       ... done
                      ------------------
                      INITIAL GUESS DONE (   1.2 sec)
                      ------------------
--------------
SCF ITERATIONS
--------------
ITER       Energy         Delta-E        Max-DP      RMS-DP      [F,P]     Damp
               ***  Starting incremental Fock matrix formation  ***
  0   -928.4475614290   0.000000000000 0.07616101  0.00087392  0.1586673 0.7000
  1   -928.6784290016  -0.230867572611 0.05080080  0.00061644  0.0848612 0.7000
                               ***Turning on DIIS***
  2   -928.7833737486  -0.104944746957 0.12286263  0.00128515  0.0328562 0.0000
  3   -928.9313830716  -0.148009323060 0.02937487  0.00035469  0.0466382 0.0000
  4   -928.9706926343  -0.039309562705 0.02998561  0.00019648  0.0094388 0.0000
  5   -928.9726393018  -0.001946667452 0.01595741  0.00009720  0.0024170 0.0000
  6   -928.9729385587  -0.000299256923 0.00606294  0.00003898  0.0014189 0.0000
  7   -928.9730485148  -0.000109956108 0.00266131  0.00001840  0.0010298 0.0000
  8   -928.9731086731  -0.000060158296 0.00391051  0.00002144  0.0007705 0.0000
  9   -928.9731804849  -0.000071811762 0.00151706  0.00000848  0.0004684 0.0000
 10   -928.9731979555  -0.000017470576 0.00117544  0.00000521  0.0001768 0.0000
 11   -928.9732044866  -0.000006531166 0.00051414  0.00000258  0.0001006 0.0000
 12   -928.9732067065  -0.000002219851 0.00032953  0.00000154  0.0001008 0.0000
 13   -928.9732077507  -0.000001044255 0.00029995  0.00000147  0.0000514 0.0000
                 **** Energy Check signals convergence ****

               *****************************************************
               *                     SUCCESS                       *
               *           SCF CONVERGED AFTER  14 CYCLES          *
               *****************************************************

Setting up the final grid:

General Integration Accuracy     IntAcc      ...  4.670
Radial Grid Type                 RadialGrid  ... Gauss-Chebyshev
Angular Grid (max. acc.)         AngularGrid ... Lebedev-302
Angular grid pruning method      GridPruning ... 3 (G Style)
Weight generation scheme         WeightScheme... Becke
Basis function cutoff            BFCut       ...    1.0000e-10
Integration weight cutoff        WCut        ...    1.0000e-14
Grids for H and He will be reduced by one unit

# of grid points (after initial pruning)     ... 233938 (   0.0 sec)
# of grid points (after weights+screening)   ... 205185 (   0.6 sec)
nearest neighbour list constructed           ...    0.0 sec
Grid point re-assignment to atoms done       ...    0.0 sec
Grid point division into batches done        ...    0.8 sec
Reduced shell lists constructed in    1.1 sec

Total number of grid points                  ...   205185
Total number of batches                      ...     3230
Average number of points per batch           ...       63
Average number of grid points per atom       ...     4187
Average number of shells per batch           ...   103.95 (30.48%)
Average number of basis functions per batch  ...   196.37 (33.68%)
Average number of large shells per batch     ...    66.84 (64.31%)
Average number of large basis fcns per batch ...   126.67 (64.50%)
Maximum spatial batch extension              ...  16.61, 13.32, 23.20 au
Average spatial batch extension              ...   0.12,  0.13,  0.14 au

Final grid set up in    1.8 sec
Final integration                            ... done (   0.8 sec)
Change in XC energy                          ...     0.001833250
Integrated number of electrons               ...   169.000125222
Previous integrated no of electrons          ...   169.022320311

----------------
TOTAL SCF ENERGY
----------------

Total Energy       :         -928.97137528 Eh          -25278.59626 eV

Components:
Nuclear Repulsion  :         1724.11354412 Eh           46915.51467 eV
Electronic Energy  :        -2653.08491940 Eh          -72194.11093 eV
One Electron Energy:        -4677.04599235 Eh         -127268.89168 eV
Two Electron Energy:         2023.96107294 Eh           55074.78074 eV

Virial components:
Potential Energy   :        -1850.50692752 Eh          -50354.85349 eV
Kinetic Energy     :          921.53555224 Eh           25076.25723 eV
Virial Ratio       :            2.00806895


DFT components:
N(Alpha)           :       85.000073215540 electrons
N(Beta)            :       84.000052006001 electrons
N(Total)           :      169.000125221541 electrons
E(X)               :     -105.546250410837 Eh       
E(C)               :       -6.576786548115 Eh       
E(XC)              :     -112.123036958952 Eh       
DFET-embed. en.    :        0.000000000000 Eh       

---------------
SCF CONVERGENCE
---------------

  Last Energy change         ...   -7.8209e-07  Tolerance :   1.0000e-06
  Last MAX-Density change    ...    2.2153e-04  Tolerance :   1.0000e-05
  Last RMS-Density change    ...    1.1612e-06  Tolerance :   1.0000e-06
  Last DIIS Error            ...    2.9170e-05  Tolerance :   1.0000e-06

             **** THE GBW FILE WAS UPDATED (g-tensor_EPRII_invariant.gbw) ****
             **** DENSITY FILE WAS UPDATED (g-tensor_EPRII_invariant.scfp) ****
             **** ENERGY FILE WAS UPDATED (g-tensor_EPRII_invariant.en.tmp) ****
----------------------
UHF SPIN CONTAMINATION
----------------------

Warning: in a DFT calculation there is little theoretical justification to 
         calculate <S**2> as in Hartree-Fock theory. We will do it anyways
         but you should keep in mind that the values have only limited relevance

Expectation value of <S**2>     :     0.785550
Ideal value S*(S+1) for S=0.5   :     0.750000
Deviation                       :     0.035550

             **** THE GBW FILE WAS UPDATED (g-tensor_EPRII_invariant.gbw) ****
             **** DENSITY FILE WAS UPDATED (g-tensor_EPRII_invariant.scfp) ****
----------------
ORBITAL ENERGIES
----------------
                 SPIN UP ORBITALS
  NO   OCC          E(Eh)            E(eV) 
   0   1.0000     -10.227907      -278.3155 
   1   1.0000     -10.223454      -278.1943 
   2   1.0000     -10.221821      -278.1499 
   3   1.0000     -10.211332      -277.8645 
   4   1.0000     -10.208548      -277.7887 
   5   1.0000     -10.205922      -277.7173 
   6   1.0000     -10.205797      -277.7139 
   7   1.0000     -10.205648      -277.7098 
   8   1.0000     -10.204833      -277.6876 
   9   1.0000     -10.204677      -277.6834 
  10   1.0000     -10.203597      -277.6540 
  11   1.0000     -10.202504      -277.6243 
  12   1.0000     -10.201242      -277.5899 
  13   1.0000     -10.200356      -277.5658 
  14   1.0000     -10.198425      -277.5132 
  15   1.0000     -10.197259      -277.4815 
  16   1.0000     -10.196343      -277.4566 
  17   1.0000     -10.189940      -277.2824 
  18   1.0000     -10.188537      -277.2442 
  19   1.0000     -10.185049      -277.1493 
  20   1.0000     -10.183193      -277.0988 
  21   1.0000     -10.182885      -277.0904 
  22   1.0000     -10.175162      -276.8802 
  23   1.0000     -10.173719      -276.8410 
  24   1.0000      -0.873613       -23.7722 
  25   1.0000      -0.863891       -23.5077 
  26   1.0000      -0.819346       -22.2955 
  27   1.0000      -0.798070       -21.7166 
  28   1.0000      -0.795218       -21.6390 
  29   1.0000      -0.778992       -21.1974 
  30   1.0000      -0.766958       -20.8700 
  31   1.0000      -0.751884       -20.4598 
  32   1.0000      -0.745196       -20.2778 
  33   1.0000      -0.729383       -19.8475 
  34   1.0000      -0.715011       -19.4565 
  35   1.0000      -0.696825       -18.9616 
  36   1.0000      -0.655852       -17.8466 
  37   1.0000      -0.644327       -17.5330 
  38   1.0000      -0.620150       -16.8751 
  39   1.0000      -0.611845       -16.6492 
  40   1.0000      -0.610318       -16.6076 
  41   1.0000      -0.592324       -16.1180 
  42   1.0000      -0.579570       -15.7709 
  43   1.0000      -0.561838       -15.2884 
  44   1.0000      -0.542780       -14.7698 
  45   1.0000      -0.531344       -14.4586 
  46   1.0000      -0.507563       -13.8115 
  47   1.0000      -0.491114       -13.3639 
  48   1.0000      -0.481251       -13.0955 
  49   1.0000      -0.476505       -12.9663 
  50   1.0000      -0.470737       -12.8094 
  51   1.0000      -0.462180       -12.5765 
  52   1.0000      -0.457833       -12.4583 
  53   1.0000      -0.438497       -11.9321 
  54   1.0000      -0.431942       -11.7537 
  55   1.0000      -0.429290       -11.6816 
  56   1.0000      -0.426103       -11.5949 
  57   1.0000      -0.425708       -11.5841 
  58   1.0000      -0.422077       -11.4853 
  59   1.0000      -0.411719       -11.2034 
  60   1.0000      -0.398322       -10.8389 
  61   1.0000      -0.397596       -10.8191 
  62   1.0000      -0.383785       -10.4433 
  63   1.0000      -0.378622       -10.3028 
  64   1.0000      -0.377499       -10.2723 
  65   1.0000      -0.364868        -9.9286 
  66   1.0000      -0.363039        -9.8788 
  67   1.0000      -0.356776        -9.7084 
  68   1.0000      -0.354491        -9.6462 
  69   1.0000      -0.352421        -9.5899 
  70   1.0000      -0.339712        -9.2440 
  71   1.0000      -0.332537        -9.0488 
  72   1.0000      -0.332404        -9.0452 
  73   1.0000      -0.330484        -8.9929 
  74   1.0000      -0.327606        -8.9146 
  75   1.0000      -0.323363        -8.7991 
  76   1.0000      -0.321698        -8.7538 
  77   1.0000      -0.298160        -8.1133 
  78   1.0000      -0.275528        -7.4975 
  79   1.0000      -0.275444        -7.4952 
  80   1.0000      -0.269705        -7.3390 
  81   1.0000      -0.259608        -7.0643 
  82   1.0000      -0.256688        -6.9848 
  83   1.0000      -0.215660        -5.8684 
  84   1.0000      -0.173783        -4.7289 
  85   0.0000      -0.062470        -1.6999 
  86   0.0000      -0.014819        -0.4032 
  87   0.0000      -0.012677        -0.3450 
  88   0.0000       0.014051         0.3824 
  89   0.0000       0.014761         0.4017 
  90   0.0000       0.021274         0.5789 
  91   0.0000       0.021995         0.5985 
  92   0.0000       0.029813         0.8112 
  93   0.0000       0.034516         0.9392 
  94   0.0000       0.035097         0.9550 
  95   0.0000       0.039690         1.0800 
  96   0.0000       0.045134         1.2282 
  97   0.0000       0.047897         1.3033 
  98   0.0000       0.050598         1.3769 
  99   0.0000       0.055375         1.5068 
 100   0.0000       0.060587         1.6487 
 101   0.0000       0.061187         1.6650 
 102   0.0000       0.068084         1.8526 
 103   0.0000       0.077059         2.0969 
 104   0.0000       0.081479         2.2172 
 105   0.0000       0.084165         2.2902 
 106   0.0000       0.090769         2.4699 
 107   0.0000       0.105796         2.8789 
 108   0.0000       0.110068         2.9951 
 109   0.0000       0.112869         3.0713 
 110   0.0000       0.117578         3.1994 
 111   0.0000       0.127101         3.4586 
 112   0.0000       0.137643         3.7454 
 113   0.0000       0.152631         4.1533 
 114   0.0000       0.152842         4.1590 
 115   0.0000       0.157781         4.2934 
 116   0.0000       0.160824         4.3763 
 117   0.0000       0.171683         4.6717 
 118   0.0000       0.175434         4.7738 
 119   0.0000       0.181089         4.9277 
 120   0.0000       0.183274         4.9871 
 121   0.0000       0.192224         5.2307 
 122   0.0000       0.192687         5.2433 
 123   0.0000       0.199082         5.4173 
 124   0.0000       0.199749         5.4355 
 125   0.0000       0.199999         5.4422 
 126   0.0000       0.203045         5.5251 
 127   0.0000       0.207290         5.6406 
 128   0.0000       0.215083         5.8527 
 129   0.0000       0.217377         5.9151 
 130   0.0000       0.219501         5.9729 
 131   0.0000       0.222162         6.0453 
 132   0.0000       0.225112         6.1256 
 133   0.0000       0.236669         6.4401 
 134   0.0000       0.239440         6.5155 
 135   0.0000       0.244136         6.6433 
 136   0.0000       0.246901         6.7185 
 137   0.0000       0.251296         6.8381 
 138   0.0000       0.251631         6.8472 
 139   0.0000       0.253974         6.9110 
 140   0.0000       0.259811         7.0698 
 141   0.0000       0.265463         7.2236 
 142   0.0000       0.270812         7.3692 
 143   0.0000       0.274820         7.4782 
 144   0.0000       0.275371         7.4932 
 145   0.0000       0.276835         7.5331 
 146   0.0000       0.282730         7.6935 
 147   0.0000       0.284981         7.7547 
 148   0.0000       0.287533         7.8242 
 149   0.0000       0.291991         7.9455 
 150   0.0000       0.292959         7.9718 
 151   0.0000       0.295258         8.0344 
 152   0.0000       0.299095         8.1388 
 153   0.0000       0.303731         8.2649 
 154   0.0000       0.306274         8.3341 
 155   0.0000       0.309702         8.4274 
 156   0.0000       0.311982         8.4895 
 157   0.0000       0.312983         8.5167 
 158   0.0000       0.313183         8.5221 
 159   0.0000       0.318133         8.6568 
 160   0.0000       0.319197         8.6858 
 161   0.0000       0.320002         8.7077 
 162   0.0000       0.329828         8.9751 
 163   0.0000       0.334152         9.0928 
 164   0.0000       0.339186         9.2297 
 165   0.0000       0.343298         9.3416 
 166   0.0000       0.346299         9.4233 
 167   0.0000       0.347824         9.4648 
 168   0.0000       0.349836         9.5195 
 169   0.0000       0.356315         9.6958 
 170   0.0000       0.360475         9.8090 
 171   0.0000       0.369618        10.0578 
 172   0.0000       0.373603        10.1662 
 173   0.0000       0.376807        10.2534 
 174   0.0000       0.379108        10.3161 
 175   0.0000       0.385289        10.4843 
 176   0.0000       0.387749        10.5512 
 177   0.0000       0.398604        10.8466 
 178   0.0000       0.401132        10.9154 
 179   0.0000       0.401196        10.9171 
 180   0.0000       0.408997        11.1294 
 181   0.0000       0.412887        11.2352 
 182   0.0000       0.418033        11.3753 
 183   0.0000       0.418323        11.3832 
 184   0.0000       0.426768        11.6129 
 185   0.0000       0.427279        11.6268 
 186   0.0000       0.430646        11.7185 
 187   0.0000       0.439202        11.9513 
 188   0.0000       0.445210        12.1148 
 189   0.0000       0.446267        12.1436 
 190   0.0000       0.449676        12.2363 
 191   0.0000       0.454905        12.3786 
 192   0.0000       0.458694        12.4817 
 193   0.0000       0.465491        12.6666 
 194   0.0000       0.468411        12.7461 
 195   0.0000       0.472229        12.8500 
 196   0.0000       0.475408        12.9365 
 197   0.0000       0.481014        13.0891 
 198   0.0000       0.481365        13.0986 
 199   0.0000       0.489237        13.3128 
 200   0.0000       0.500135        13.6094 
 201   0.0000       0.501692        13.6517 
 202   0.0000       0.512240        13.9387 
 203   0.0000       0.518143        14.0994 
 204   0.0000       0.518311        14.1040 
 205   0.0000       0.524638        14.2761 
 206   0.0000       0.530468        14.4348 
 207   0.0000       0.533880        14.5276 
 208   0.0000       0.537629        14.6296 
 209   0.0000       0.545908        14.8549 
 210   0.0000       0.550708        14.9855 
 211   0.0000       0.555145        15.1063 
 212   0.0000       0.558634        15.2012 
 213   0.0000       0.569961        15.5094 
 214   0.0000       0.586103        15.9487 
 215   0.0000       0.586962        15.9721 
 216   0.0000       0.592662        16.1272 
 217   0.0000       0.595877        16.2146 
 218   0.0000       0.602346        16.3907 
 219   0.0000       0.605722        16.4825 
 220   0.0000       0.610807        16.6209 
 221   0.0000       0.627228        17.0677 
 222   0.0000       0.632884        17.2217 
 223   0.0000       0.646822        17.6009 
 224   0.0000       0.647122        17.6091 
 225   0.0000       0.664623        18.0853 
 226   0.0000       0.670428        18.2433 
 227   0.0000       0.672276        18.2936 
 228   0.0000       0.677443        18.4342 
 229   0.0000       0.681361        18.5408 
 230   0.0000       0.706768        19.2321 
 231   0.0000       0.724591        19.7171 
 232   0.0000       0.727658        19.8006 
 233   0.0000       0.763680        20.7808 
 234   0.0000       0.767750        20.8915 
 235   0.0000       0.777182        21.1482 
 236   0.0000       0.789707        21.4890 
 237   0.0000       0.794317        21.6145 
 238   0.0000       0.813452        22.1352 
 239   0.0000       0.829240        22.5648 
 240   0.0000       0.836133        22.7523 
 241   0.0000       0.839945        22.8561 
 242   0.0000       0.847018        23.0485 
 243   0.0000       0.850860        23.1531 
 244   0.0000       0.853285        23.2191 
 245   0.0000       0.856675        23.3113 
 246   0.0000       0.861088        23.4314 
 247   0.0000       0.867564        23.6076 
 248   0.0000       0.867630        23.6094 
 249   0.0000       0.870212        23.6797 
 250   0.0000       0.883590        24.0437 
 251   0.0000       0.891196        24.2507 
 252   0.0000       0.894944        24.3527 
 253   0.0000       0.901805        24.5394 
 254   0.0000       0.909918        24.7601 
 255   0.0000       0.913039        24.8450 
 256   0.0000       0.916086        24.9280 
 257   0.0000       0.926715        25.2172 
 258   0.0000       0.927865        25.2485 
 259   0.0000       0.930350        25.3161 
 260   0.0000       0.935415        25.4539 
 261   0.0000       0.935832        25.4653 
 262   0.0000       0.941215        25.6118 
 263   0.0000       0.946597        25.7582 
 264   0.0000       0.956334        26.0232 
 265   0.0000       0.958987        26.0954 
 266   0.0000       0.962994        26.2044 
 267   0.0000       0.970664        26.4131 
 268   0.0000       0.977010        26.5858 
 269   0.0000       0.978482        26.6259 
 270   0.0000       0.979248        26.6467 
 271   0.0000       0.992361        27.0035 
 272   0.0000       0.992779        27.0149 
 273   0.0000       0.997173        27.1345 
 274   0.0000       1.001629        27.2557 
 275   0.0000       1.003386        27.3035 
 276   0.0000       1.005093        27.3500 
 277   0.0000       1.012718        27.5575 
 278   0.0000       1.027256        27.9530 
 279   0.0000       1.028442        27.9853 
 280   0.0000       1.029834        28.0232 
 281   0.0000       1.035393        28.1745 
 282   0.0000       1.037860        28.2416 
 283   0.0000       1.043174        28.3862 
 284   0.0000       1.052269        28.6337 
 285   0.0000       1.058269        28.7970 
 286   0.0000       1.064375        28.9631 
 287   0.0000       1.066472        29.0202 
 288   0.0000       1.067395        29.0453 
 289   0.0000       1.094066        29.7710 
 290   0.0000       1.101435        29.9716 
 291   0.0000       1.112867        30.2826 
 292   0.0000       1.113317        30.2949 
 293   0.0000       1.114487        30.3267 
 294   0.0000       1.124313        30.5941 
 295   0.0000       1.130378        30.7591 
 296   0.0000       1.137077        30.9414 
 297   0.0000       1.150318        31.3017 
 298   0.0000       1.156756        31.4769 
 299   0.0000       1.171976        31.8911 
 300   0.0000       1.177990        32.0547 
 301   0.0000       1.179683        32.1008 
 302   0.0000       1.186493        32.2861 
 303   0.0000       1.190694        32.4004 
 304   0.0000       1.202740        32.7282 
 305   0.0000       1.202967        32.7344 
 306   0.0000       1.219670        33.1889 
 307   0.0000       1.222212        33.2581 
 308   0.0000       1.241429        33.7810 
 309   0.0000       1.243258        33.8308 
 310   0.0000       1.254839        34.1459 
 311   0.0000       1.257599        34.2210 
 312   0.0000       1.265262        34.4295 
 313   0.0000       1.275773        34.7156 
 314   0.0000       1.287799        35.0428 
 315   0.0000       1.300743        35.3950 
 316   0.0000       1.308518        35.6066 
 317   0.0000       1.313601        35.7449 
 318   0.0000       1.321007        35.9464 
 319   0.0000       1.321074        35.9483 
 320   0.0000       1.331913        36.2432 
 321   0.0000       1.341302        36.4987 
 322   0.0000       1.349821        36.7305 
 323   0.0000       1.352370        36.7999 
 324   0.0000       1.368800        37.2469 
 325   0.0000       1.381227        37.5851 
 326   0.0000       1.385120        37.6910 
 327   0.0000       1.398039        38.0426 
 328   0.0000       1.401173        38.1279 
 329   0.0000       1.407985        38.3132 
 330   0.0000       1.423767        38.7427 
 331   0.0000       1.426721        38.8231 
 332   0.0000       1.429315        38.8936 
 333   0.0000       1.435235        39.0547 
 334   0.0000       1.439627        39.1743 
 335   0.0000       1.447338        39.3841 
 336   0.0000       1.447673        39.3932 
 337   0.0000       1.451482        39.4968 
 338   0.0000       1.460701        39.7477 
 339   0.0000       1.464984        39.8642 
 340   0.0000       1.478452        40.2307 
 341   0.0000       1.488515        40.5046 
 342   0.0000       1.498447        40.7748 
 343   0.0000       1.504661        40.9439 
 344   0.0000       1.508962        41.0609 
 345   0.0000       1.513121        41.1741 
 346   0.0000       1.518368        41.3169 
 347   0.0000       1.518713        41.3263 
 348   0.0000       1.542367        41.9699 
 349   0.0000       1.561199        42.4824 
 350   0.0000       1.561249        42.4837 
 351   0.0000       1.562797        42.5259 
 352   0.0000       1.562893        42.5285 
 353   0.0000       1.565419        42.5972 
 354   0.0000       1.578532        42.9541 
 355   0.0000       1.586631        43.1744 
 356   0.0000       1.589156        43.2431 
 357   0.0000       1.590185        43.2711 
 358   0.0000       1.598808        43.5058 
 359   0.0000       1.602261        43.5997 
 360   0.0000       1.602520        43.6068 
 361   0.0000       1.617141        44.0046 
 362   0.0000       1.619011        44.0555 
 363   0.0000       1.628573        44.3157 
 364   0.0000       1.638685        44.5909 
 365   0.0000       1.638962        44.5984 
 366   0.0000       1.643483        44.7214 
 367   0.0000       1.656615        45.0788 
 368   0.0000       1.657743        45.1095 
 369   0.0000       1.659720        45.1633 
 370   0.0000       1.678485        45.6739 
 371   0.0000       1.682512        45.7835 
 372   0.0000       1.686290        45.8863 
 373   0.0000       1.692780        46.0629 
 374   0.0000       1.693105        46.0717 
 375   0.0000       1.697718        46.1973 
 376   0.0000       1.704531        46.3826 
 377   0.0000       1.704986        46.3950 
 378   0.0000       1.716955        46.7207 
 379   0.0000       1.725773        46.9607 
 380   0.0000       1.735015        47.2122 
 381   0.0000       1.736979        47.2656 
 382   0.0000       1.744436        47.4685 
 383   0.0000       1.757155        47.8146 
 384   0.0000       1.765759        48.0488 
 385   0.0000       1.771448        48.2035 
 386   0.0000       1.775420        48.3116 
 387   0.0000       1.776135        48.3311 
 388   0.0000       1.790585        48.7243 
 389   0.0000       1.792184        48.7678 
 390   0.0000       1.796290        48.8795 
 391   0.0000       1.805514        49.1305 
 392   0.0000       1.809277        49.2329 
 393   0.0000       1.816039        49.4169 
 394   0.0000       1.830362        49.8067 
 395   0.0000       1.832468        49.8640 
 396   0.0000       1.837583        50.0032 
 397   0.0000       1.856638        50.5217 
 398   0.0000       1.857061        50.5332 
 399   0.0000       1.866642        50.7939 
 400   0.0000       1.869883        50.8821 
 401   0.0000       1.901226        51.7350 
 402   0.0000       1.925652        52.3996 
 403   0.0000       1.932229        52.5786 
 404   0.0000       1.932414        52.5837 
 405   0.0000       1.942813        52.8666 
 406   0.0000       1.951733        53.1093 
 407   0.0000       1.960173        53.3390 
 408   0.0000       1.974202        53.7208 
 409   0.0000       1.976247        53.7764 
 410   0.0000       2.011565        54.7375 
 411   0.0000       2.023207        55.0543 
 412   0.0000       2.037756        55.4502 
 413   0.0000       2.040776        55.5324 
 414   0.0000       2.043806        55.6148 
 415   0.0000       2.056216        55.9525 
 416   0.0000       2.078172        56.5499 
 417   0.0000       2.086686        56.7816 
 418   0.0000       2.103189        57.2307 
 419   0.0000       2.110960        57.4422 
 420   0.0000       2.116791        57.6008 
 421   0.0000       2.129014        57.9334 
 422   0.0000       2.143709        58.3333 
 423   0.0000       2.143801        58.3358 
 424   0.0000       2.153717        58.6056 
 425   0.0000       2.187315        59.5199 
 426   0.0000       2.200334        59.8741 
 427   0.0000       2.200660        59.8830 
 428   0.0000       2.214521        60.2602 
 429   0.0000       2.215148        60.2772 
 430   0.0000       2.226889        60.5967 
 431   0.0000       2.242846        61.0309 
 432   0.0000       2.256593        61.4050 
 433   0.0000       2.256994        61.4159 
 434   0.0000       2.271013        61.7974 
 435   0.0000       2.278460        62.0001 
 436   0.0000       2.306800        62.7712 
 437   0.0000       2.313589        62.9559 
 438   0.0000       2.317022        63.0494 
 439   0.0000       2.324386        63.2498 
 440   0.0000       2.330962        63.4287 
 441   0.0000       2.353131        64.0319 
 442   0.0000       2.373615        64.5893 
 443   0.0000       2.384703        64.8911 
 444   0.0000       2.398818        65.2752 
 445   0.0000       2.407206        65.5034 
 446   0.0000       2.412418        65.6452 
 447   0.0000       2.413433        65.6729 
 448   0.0000       2.428385        66.0797 
 449   0.0000       2.442710        66.4695 
 450   0.0000       2.453686        66.7682 
 451   0.0000       2.461092        66.9697 
 452   0.0000       2.465078        67.0782 
 453   0.0000       2.470693        67.2310 
 454   0.0000       2.474731        67.3409 
 455   0.0000       2.483476        67.5788 
 456   0.0000       2.505184        68.1695 
 457   0.0000       2.511487        68.3410 
 458   0.0000       2.519991        68.5724 
 459   0.0000       2.523182        68.6593 
 460   0.0000       2.536573        69.0237 
 461   0.0000       2.538561        69.0777 
 462   0.0000       2.547048        69.3087 
 463   0.0000       2.559915        69.6588 
 464   0.0000       2.567413        69.8628 
 465   0.0000       2.569245        69.9127 
 466   0.0000       2.582021        70.2604 
 467   0.0000       2.583808        70.3090 
 468   0.0000       2.601471        70.7896 
 469   0.0000       2.614310        71.1390 
 470   0.0000       2.614367        71.1405 
 471   0.0000       2.629384        71.5492 
 472   0.0000       2.658165        72.3324 
 473   0.0000       2.709813        73.7378 
 474   0.0000       2.751639        74.8759 
 475   0.0000       2.775680        75.5301 
 476   0.0000       2.794782        76.0499 
 477   0.0000       2.795853        76.0790 
 478   0.0000       2.862330        77.8880 
 479   0.0000       2.943345        80.0925 
 480   0.0000       2.957795        80.4857 
 481   0.0000       2.972178        80.8771 
 482   0.0000       3.071086        83.5685 
 483   0.0000       3.296157        89.6930 
 484   0.0000       3.431031        93.3631 
 485   0.0000       4.978476       135.4712 
 486   0.0000       4.984765       135.6424 
 487   0.0000       5.003387       136.1491 
 488   0.0000       5.010028       136.3298 
 489   0.0000       5.010418       136.3404 
 490   0.0000       5.020638       136.6185 
 491   0.0000       5.024290       136.7179 
 492   0.0000       5.024967       136.7363 
 493   0.0000       5.034046       136.9834 
 494   0.0000       5.046806       137.3306 
 495   0.0000       5.090201       138.5114 
 496   0.0000       5.096973       138.6957 
 497   0.0000       5.170408       140.6939 
 498   0.0000       5.199512       141.4859 
 499   0.0000       5.215113       141.9104 
 500   0.0000       5.227728       142.2537 
 501   0.0000       5.248006       142.8055 
 502   0.0000       5.248798       142.8271 
 503   0.0000       5.262044       143.1875 
 504   0.0000       5.283596       143.7739 
 505   0.0000       5.289903       143.9456 
 506   0.0000       5.298176       144.1707 
 507   0.0000       5.308697       144.4570 
 508   0.0000       5.316321       144.6645 
 509   0.0000       5.351119       145.6113 
 510   0.0000       5.367222       146.0495 
 511   0.0000       5.370830       146.1477 
 512   0.0000       5.380183       146.4022 
 513   0.0000       5.400414       146.9527 
 514   0.0000       5.445395       148.1767 
 515   0.0000       5.454834       148.4336 
 516   0.0000       5.479573       149.1068 
 517   0.0000       5.559094       151.2707 
 518   0.0000       5.563490       151.3903 
 519   0.0000       5.592669       152.1843 
 520   0.0000       5.632686       153.2732 
 521   0.0000       5.646167       153.6400 
 522   0.0000       5.652793       153.8203 
 523   0.0000       5.677782       154.5003 
 524   0.0000       5.739398       156.1770 
 525   0.0000       5.746638       156.3740 
 526   0.0000       5.782730       157.3561 
 527   0.0000       5.835705       158.7976 
 528   0.0000       5.853863       159.2917 
 529   0.0000       5.880227       160.0091 
 530   0.0000       5.929261       161.3434 
 531   0.0000       6.105530       166.1399 
 532   0.0000       6.280572       170.9030 
 533   0.0000       6.359768       173.0581 
 534   0.0000      29.616828       805.9149 
 535   0.0000      29.736926       809.1829 
 536   0.0000      29.810283       811.1790 
 537   0.0000      29.839178       811.9653 
 538   0.0000      29.854975       812.3952 
 539   0.0000      29.859905       812.5293 
 540   0.0000      29.956216       815.1501 
 541   0.0000      29.978376       815.7531 
 542   0.0000      29.998687       816.3058 
 543   0.0000      30.038661       817.3935 
 544   0.0000      30.075468       818.3951 
 545   0.0000      30.098055       819.0097 
 546   0.0000      30.105203       819.2042 
 547   0.0000      30.123849       819.7116 
 548   0.0000      30.133544       819.9754 
 549   0.0000      30.175700       821.1225 
 550   0.0000      30.221686       822.3739 
 551   0.0000      30.250663       823.1624 
 552   0.0000      30.257498       823.3484 
 553   0.0000      30.276870       823.8755 
 554   0.0000      30.298111       824.4535 
 555   0.0000      30.400236       827.2325 
 556   0.0000      30.506597       830.1267 
 557   0.0000      30.580546       832.1390 
 558   0.0000      36.604258       996.0525 
 559   0.0000      36.612807       996.2851 
 560   0.0000      36.628414       996.7098 
 561   0.0000      36.635249       996.8958 
 562   0.0000      36.639299       997.0060 
 563   0.0000      36.646178       997.1932 
 564   0.0000      36.650856       997.3205 
 565   0.0000      36.660537       997.5839 
 566   0.0000      36.671651       997.8864 
 567   0.0000      36.703296       998.7475 
 568   0.0000      36.717997       999.1475 
 569   0.0000      36.788107      1001.0553 
 570   0.0000      36.817707      1001.8608 
 571   0.0000      36.825860      1002.0826 
 572   0.0000      36.835985      1002.3581 
 573   0.0000      36.857430      1002.9417 
 574   0.0000      36.870068      1003.2856 
 575   0.0000      36.875544      1003.4346 
 576   0.0000      36.884767      1003.6855 
 577   0.0000      36.917686      1004.5813 
 578   0.0000      36.933651      1005.0157 
 579   0.0000      36.937183      1005.1118 
 580   0.0000      36.969754      1005.9982 
 581   0.0000      37.017013      1007.2841 
 582   0.0000      37.041909      1007.9616 

                 SPIN DOWN ORBITALS
  NO   OCC          E(Eh)            E(eV) 
   0   1.0000     -10.227786      -278.3122 
   1   1.0000     -10.223345      -278.1913 
   2   1.0000     -10.220071      -278.1023 
   3   1.0000     -10.210937      -277.8537 
   4   1.0000     -10.207933      -277.7720 
   5   1.0000     -10.206027      -277.7201 
   6   1.0000     -10.205906      -277.7168 
   7   1.0000     -10.205774      -277.7132 
   8   1.0000     -10.204795      -277.6866 
   9   1.0000     -10.204655      -277.6828 
  10   1.0000     -10.204356      -277.6746 
  11   1.0000     -10.202748      -277.6309 
  12   1.0000     -10.200284      -277.5638 
  13   1.0000     -10.198788      -277.5231 
  14   1.0000     -10.198217      -277.5076 
  15   1.0000     -10.195096      -277.4227 
  16   1.0000     -10.190605      -277.3005 
  17   1.0000     -10.188734      -277.2495 
  18   1.0000     -10.188527      -277.2439 
  19   1.0000     -10.185012      -277.1483 
  20   1.0000     -10.183193      -277.0988 
  21   1.0000     -10.182882      -277.0903 
  22   1.0000     -10.175171      -276.8805 
  23   1.0000     -10.173720      -276.8410 
  24   1.0000      -0.870270       -23.6812 
  25   1.0000      -0.863935       -23.5089 
  26   1.0000      -0.814481       -22.1631 
  27   1.0000      -0.796544       -21.6751 
  28   1.0000      -0.792901       -21.5759 
  29   1.0000      -0.778593       -21.1866 
  30   1.0000      -0.764917       -20.8144 
  31   1.0000      -0.752018       -20.4635 
  32   1.0000      -0.744177       -20.2501 
  33   1.0000      -0.725657       -19.7461 
  34   1.0000      -0.713357       -19.4114 
  35   1.0000      -0.694503       -18.8984 
  36   1.0000      -0.652816       -17.7640 
  37   1.0000      -0.642609       -17.4863 
  38   1.0000      -0.617693       -16.8083 
  39   1.0000      -0.610408       -16.6101 
  40   1.0000      -0.608602       -16.5609 
  41   1.0000      -0.591383       -16.0923 
  42   1.0000      -0.577962       -15.7271 
  43   1.0000      -0.558900       -15.2084 
  44   1.0000      -0.542132       -14.7522 
  45   1.0000      -0.529661       -14.4128 
  46   1.0000      -0.504546       -13.7294 
  47   1.0000      -0.489500       -13.3200 
  48   1.0000      -0.480631       -13.0786 
  49   1.0000      -0.475356       -12.9351 
  50   1.0000      -0.469877       -12.7860 
  51   1.0000      -0.458702       -12.4819 
  52   1.0000      -0.457890       -12.4598 
  53   1.0000      -0.438226       -11.9247 
  54   1.0000      -0.430393       -11.7116 
  55   1.0000      -0.427527       -11.6336 
  56   1.0000      -0.426080       -11.5942 
  57   1.0000      -0.424566       -11.5530 
  58   1.0000      -0.419476       -11.4145 
  59   1.0000      -0.411231       -11.1902 
  60   1.0000      -0.396457       -10.7881 
  61   1.0000      -0.390746       -10.6327 
  62   1.0000      -0.383191       -10.4272 
  63   1.0000      -0.376267       -10.2388 
  64   1.0000      -0.374248       -10.1838 
  65   1.0000      -0.363700        -9.8968 
  66   1.0000      -0.363049        -9.8791 
  67   1.0000      -0.355893        -9.6843 
  68   1.0000      -0.352441        -9.5904 
  69   1.0000      -0.351379        -9.5615 
  70   1.0000      -0.337377        -9.1805 
  71   1.0000      -0.331882        -9.0310 
  72   1.0000      -0.331096        -9.0096 
  73   1.0000      -0.328245        -8.9320 
  74   1.0000      -0.327224        -8.9042 
  75   1.0000      -0.322610        -8.7787 
  76   1.0000      -0.321364        -8.7448 
  77   1.0000      -0.295058        -8.0289 
  78   1.0000      -0.274838        -7.4787 
  79   1.0000      -0.269527        -7.3342 
  80   1.0000      -0.261845        -7.1252 
  81   1.0000      -0.259986        -7.0746 
  82   1.0000      -0.253194        -6.8898 
  83   1.0000      -0.208502        -5.6736 
  84   0.0000      -0.084440        -2.2977 
  85   0.0000      -0.054842        -1.4923 
  86   0.0000      -0.015140        -0.4120 
  87   0.0000      -0.011096        -0.3019 
  88   0.0000       0.014931         0.4063 
  89   0.0000       0.021446         0.5836 
  90   0.0000       0.022291         0.6066 
  91   0.0000       0.030129         0.8199 
  92   0.0000       0.031524         0.8578 
  93   0.0000       0.034636         0.9425 
  94   0.0000       0.035256         0.9594 
  95   0.0000       0.039749         1.0816 
  96   0.0000       0.045356         1.2342 
  97   0.0000       0.048107         1.3091 
  98   0.0000       0.051100         1.3905 
  99   0.0000       0.055638         1.5140 
 100   0.0000       0.061230         1.6662 
 101   0.0000       0.065364         1.7786 
 102   0.0000       0.068235         1.8568 
 103   0.0000       0.077263         2.1024 
 104   0.0000       0.081713         2.2235 
 105   0.0000       0.084366         2.2957 
 106   0.0000       0.090766         2.4699 
 107   0.0000       0.107083         2.9139 
 108   0.0000       0.110826         3.0157 
 109   0.0000       0.114528         3.1165 
 110   0.0000       0.117938         3.2093 
 111   0.0000       0.127453         3.4682 
 112   0.0000       0.137862         3.7514 
 113   0.0000       0.153181         4.1683 
 114   0.0000       0.157234         4.2786 
 115   0.0000       0.158811         4.3215 
 116   0.0000       0.161301         4.3892 
 117   0.0000       0.171976         4.6797 
 118   0.0000       0.176073         4.7912 
 119   0.0000       0.182309         4.9609 
 120   0.0000       0.183844         5.0027 
 121   0.0000       0.192780         5.2458 
 122   0.0000       0.194683         5.2976 
 123   0.0000       0.199680         5.4336 
 124   0.0000       0.200391         5.4529 
 125   0.0000       0.201359         5.4792 
 126   0.0000       0.206788         5.6270 
 127   0.0000       0.208158         5.6643 
 128   0.0000       0.215430         5.8622 
 129   0.0000       0.217596         5.9211 
 130   0.0000       0.220025         5.9872 
 131   0.0000       0.222615         6.0577 
 132   0.0000       0.225178         6.1274 
 133   0.0000       0.237060         6.4507 
 134   0.0000       0.239980         6.5302 
 135   0.0000       0.246605         6.7105 
 136   0.0000       0.247901         6.7457 
 137   0.0000       0.251716         6.8495 
 138   0.0000       0.252052         6.8587 
 139   0.0000       0.255036         6.9399 
 140   0.0000       0.260585         7.0909 
 141   0.0000       0.265578         7.2268 
 142   0.0000       0.271094         7.3768 
 143   0.0000       0.275510         7.4970 
 144   0.0000       0.276928         7.5356 
 145   0.0000       0.278019         7.5653 
 146   0.0000       0.285996         7.7823 
 147   0.0000       0.288192         7.8421 
 148   0.0000       0.288762         7.8576 
 149   0.0000       0.292279         7.9533 
 150   0.0000       0.293820         7.9952 
 151   0.0000       0.297638         8.0991 
 152   0.0000       0.299904         8.1608 
 153   0.0000       0.305085         8.3018 
 154   0.0000       0.309940         8.4339 
 155   0.0000       0.310132         8.4391 
 156   0.0000       0.312684         8.5086 
 157   0.0000       0.313913         8.5420 
 158   0.0000       0.315054         8.5731 
 159   0.0000       0.319199         8.6859 
 160   0.0000       0.320121         8.7109 
 161   0.0000       0.323026         8.7900 
 162   0.0000       0.330957         9.0058 
 163   0.0000       0.339093         9.2272 
 164   0.0000       0.340384         9.2623 
 165   0.0000       0.343757         9.3541 
 166   0.0000       0.348605         9.4860 
 167   0.0000       0.350169         9.5286 
 168   0.0000       0.351258         9.5582 
 169   0.0000       0.357811         9.7365 
 170   0.0000       0.362171         9.8552 
 171   0.0000       0.370946        10.0940 
 172   0.0000       0.373934        10.1753 
 173   0.0000       0.378907        10.3106 
 174   0.0000       0.380422        10.3518 
 175   0.0000       0.386071        10.5055 
 176   0.0000       0.391038        10.6407 
 177   0.0000       0.399506        10.8711 
 178   0.0000       0.401716        10.9312 
 179   0.0000       0.410071        11.1586 
 180   0.0000       0.410328        11.1656 
 181   0.0000       0.415069        11.2946 
 182   0.0000       0.418335        11.3835 
 183   0.0000       0.419165        11.4061 
 184   0.0000       0.428319        11.6551 
 185   0.0000       0.430875        11.7247 
 186   0.0000       0.432251        11.7621 
 187   0.0000       0.440278        11.9806 
 188   0.0000       0.445722        12.1287 
 189   0.0000       0.448954        12.2167 
 190   0.0000       0.450465        12.2578 
 191   0.0000       0.455265        12.3884 
 192   0.0000       0.459137        12.4938 
 193   0.0000       0.465700        12.6723 
 194   0.0000       0.468820        12.7572 
 195   0.0000       0.473209        12.8767 
 196   0.0000       0.477032        12.9807 
 197   0.0000       0.482345        13.1253 
 198   0.0000       0.483044        13.1443 
 199   0.0000       0.492714        13.4074 
 200   0.0000       0.500349        13.6152 
 201   0.0000       0.503364        13.6972 
 202   0.0000       0.512534        13.9467 
 203   0.0000       0.518721        14.1151 
 204   0.0000       0.523646        14.2491 
 205   0.0000       0.525614        14.3027 
 206   0.0000       0.531385        14.4597 
 207   0.0000       0.532209        14.4822 
 208   0.0000       0.538560        14.6550 
 209   0.0000       0.546390        14.8680 
 210   0.0000       0.552094        15.0232 
 211   0.0000       0.555857        15.1256 
 212   0.0000       0.559165        15.2156 
 213   0.0000       0.570738        15.5306 
 214   0.0000       0.586806        15.9678 
 215   0.0000       0.587792        15.9946 
 216   0.0000       0.595758        16.2114 
 217   0.0000       0.597132        16.2488 
 218   0.0000       0.603063        16.4102 
 219   0.0000       0.609423        16.5832 
 220   0.0000       0.611514        16.6401 
 221   0.0000       0.627801        17.0833 
 222   0.0000       0.633789        17.2463 
 223   0.0000       0.647723        17.6254 
 224   0.0000       0.648435        17.6448 
 225   0.0000       0.664863        18.0918 
 226   0.0000       0.670626        18.2487 
 227   0.0000       0.673315        18.3218 
 228   0.0000       0.679236        18.4829 
 229   0.0000       0.682783        18.5795 
 230   0.0000       0.708050        19.2670 
 231   0.0000       0.725102        19.7310 
 232   0.0000       0.727981        19.8094 
 233   0.0000       0.765400        20.8276 
 234   0.0000       0.768322        20.9071 
 235   0.0000       0.777716        21.1627 
 236   0.0000       0.791122        21.5275 
 237   0.0000       0.795933        21.6584 
 238   0.0000       0.813663        22.1409 
 239   0.0000       0.829942        22.5839 
 240   0.0000       0.837622        22.7928 
 241   0.0000       0.840786        22.8790 
 242   0.0000       0.847416        23.0594 
 243   0.0000       0.851690        23.1757 
 244   0.0000       0.854701        23.2576 
 245   0.0000       0.858134        23.3510 
 246   0.0000       0.862535        23.4708 
 247   0.0000       0.868413        23.6307 
 248   0.0000       0.868812        23.6416 
 249   0.0000       0.870503        23.6876 
 250   0.0000       0.887237        24.1429 
 251   0.0000       0.892415        24.2838 
 252   0.0000       0.897227        24.4148 
 253   0.0000       0.901614        24.5342 
 254   0.0000       0.911919        24.8146 
 255   0.0000       0.913983        24.8707 
 256   0.0000       0.916753        24.9461 
 257   0.0000       0.927909        25.2497 
 258   0.0000       0.930308        25.3150 
 259   0.0000       0.930809        25.3286 
 260   0.0000       0.936252        25.4767 
 261   0.0000       0.936872        25.4936 
[...]
DIIS solution               ....       3.194 sec  (  1.7%)
Grid generation             ....       2.231 sec  (  1.2%)

-------------------------   --------------------
FINAL SINGLE POINT ENERGY      -928.971375282950
-------------------------   --------------------

   --->>> g-tensor requested, so NeedSOC=true

                            ***************************************
                            *     ORCA property calculations      *
                            ***************************************

                                    ---------------------
                                    Active property flags
                                    ---------------------
   (+) Dipole Moment
   (+) g-tensor
   (+) Nuclear properties (Hyperfine,Quadrupole)
   (+) Spin-Orbit Integrals are needed


------------------------------------------------------------------------------
                       ORCA ELECTRIC PROPERTIES CALCULATION
------------------------------------------------------------------------------

Dipole Moment Calculation                       ... on
Quadrupole Moment Calculation                   ... off
Polarizability Calculation                      ... off
GBWName                                         ... g-tensor_EPRII_invariant.gbw
Electron density file                           ... g-tensor_EPRII_invariant.scfp
The origin for moment calculation is the CENTER OF MASS  = ( 3.161119,  0.006647 -0.005010)

-------------
DIPOLE MOMENT
-------------
                                X             Y             Z
Electronic contribution:      9.51630      -2.45711      -0.00302
Nuclear contribution   :     -9.08242       2.40652       0.00485
                        -----------------------------------------
Total Dipole Moment    :      0.43388      -0.05059       0.00184
                        -----------------------------------------
Magnitude (a.u.)       :      0.43682
Magnitude (Debye)      :      1.11031



--------------------
Rotational spectrum 
--------------------
 
Rotational constants in cm-1:     0.006659     0.004189     0.002580 
Rotational constants in MHz :   199.620044   125.573502    77.343008 

 Dipole components along the rotational axes: 
x,y,z [a.u.] :     0.382385    -0.211165     0.001825 
x,y,z [Debye]:     0.971945    -0.536738     0.004638 

 


           ************************************************************
           *        Program running with 16 parallel MPI-processes    *
           *              working on a common directory               *
           ************************************************************
------------------------------------------------------------------------------
                         ORCA SPIN-ORBIT COUPLING CALCULATION
------------------------------------------------------------------------------

GBW file                                    ... g-tensor_EPRII_invariant.gbw
Input density                               ... g-tensor_EPRII_invariant.scfp
Output integrals                            ... g-tensor_EPRII_invariant
Operator type                               ... Mean-field/Effective potential
   One-Electron Terms                       ... 1
   Coulomb Contribution                     ... 2
   Exchange Contribution                    ... 3
   Correlation Contribution                 ... 0
   Maximum number of centers                ... 4
Setting up the integration grid             ... done
Evaluating density on the grid              ... (NumEl=  169.022320) done
Evaluating Coulomb term semi-analytically   ... done
One-Center Exchange (+SOO)                  ... done
Evaluating the spin-orbit operator          ... done
Total time for SOC: 25.734


           ************************************************************
           *        Program running with 16 parallel MPI-processes    *
           *              working on a common directory               *
           ************************************************************
------------------------------------------------------------------------------
                                ORCA EPR/NMR CALCULATION
------------------------------------------------------------------------------

GBWName                      ... g-tensor_EPRII_invariant.gbw
Electron density file        ... g-tensor_EPRII_invariant.scfp
Spin density file            ... g-tensor_EPRII_invariant.scfr
Spin-orbit integrals         ... g-tensor_EPRII_invariant
Treatment of gauge           ... GIAO (approximations 1/2el = 0,3)
Details of the CP(SCF) procedure:
       Solver   = POPLE   
       MaxIter  =    64   
       Tolerance=    1.000e-06
       Op-0     =   0- 84 =>  85-582
       Op-1     =   0- 83 =>  84-582
Multiplicity                 ... 2
g-tensor                     ... 1
NMR chemical shifts          ... 0
Number of nuclei for epr/nmr ... 25
   Nucleus:   9H 
       Hyperfine : Isotope=    1 I=   0.500 P= 533.551
       Quadrupole: Isotope=    2 I=   1.000 Q=   0.003
       Spin-Orbit: Zeff=   1.000
       Ncuelar Spin-Spin: Gn=   0.000
       rho(0)=N f(grad)=N a(iso)=Y a(dip)=Y a(orb)=Y sigma(nmr)=N spin-spin(nmr)=all-N,DSO-N,PSO-N,FC-N,SD-N
   Nucleus:  10H 
       Hyperfine : Isotope=    1 I=   0.500 P= 533.551
       Quadrupole: Isotope=    2 I=   1.000 Q=   0.003
       Spin-Orbit: Zeff=   1.000
       Ncuelar Spin-Spin: Gn=   0.000
       rho(0)=N f(grad)=N a(iso)=Y a(dip)=Y a(orb)=Y sigma(nmr)=N spin-spin(nmr)=all-N,DSO-N,PSO-N,FC-N,SD-N
   Nucleus:  12H 
       Hyperfine : Isotope=    1 I=   0.500 P= 533.551
       Quadrupole: Isotope=    2 I=   1.000 Q=   0.003
       Spin-Orbit: Zeff=   1.000
       Ncuelar Spin-Spin: Gn=   0.000
       rho(0)=N f(grad)=N a(iso)=Y a(dip)=Y a(orb)=Y sigma(nmr)=N spin-spin(nmr)=all-N,DSO-N,PSO-N,FC-N,SD-N
   Nucleus:  14H 
       Hyperfine : Isotope=    1 I=   0.500 P= 533.551
       Quadrupole: Isotope=    2 I=   1.000 Q=   0.003
       Spin-Orbit: Zeff=   1.000
       Ncuelar Spin-Spin: Gn=   0.000
       rho(0)=N f(grad)=N a(iso)=Y a(dip)=Y a(orb)=Y sigma(nmr)=N spin-spin(nmr)=all-N,DSO-N,PSO-N,FC-N,SD-N
   Nucleus:  15H 
       Hyperfine : Isotope=    1 I=   0.500 P= 533.551
       Quadrupole: Isotope=    2 I=   1.000 Q=   0.003
       Spin-Orbit: Zeff=   1.000
       Ncuelar Spin-Spin: Gn=   0.000
       rho(0)=N f(grad)=N a(iso)=Y a(dip)=Y a(orb)=Y sigma(nmr)=N spin-spin(nmr)=all-N,DSO-N,PSO-N,FC-N,SD-N
   Nucleus:  17H 
       Hyperfine : Isotope=    1 I=   0.500 P= 533.551
       Quadrupole: Isotope=    2 I=   1.000 Q=   0.003
       Spin-Orbit: Zeff=   1.000
       Ncuelar Spin-Spin: Gn=   0.000
       rho(0)=N f(grad)=N a(iso)=Y a(dip)=Y a(orb)=Y sigma(nmr)=N spin-spin(nmr)=all-N,DSO-N,PSO-N,FC-N,SD-N
   Nucleus:  18H 
       Hyperfine : Isotope=    1 I=   0.500 P= 533.551
       Quadrupole: Isotope=    2 I=   1.000 Q=   0.003
       Spin-Orbit: Zeff=   1.000
       Ncuelar Spin-Spin: Gn=   0.000
       rho(0)=N f(grad)=N a(iso)=Y a(dip)=Y a(orb)=Y sigma(nmr)=N spin-spin(nmr)=all-N,DSO-N,PSO-N,FC-N,SD-N
   Nucleus:  20H 
       Hyperfine : Isotope=    1 I=   0.500 P= 533.551
       Quadrupole: Isotope=    2 I=   1.000 Q=   0.003
       Spin-Orbit: Zeff=   1.000
       Ncuelar Spin-Spin: Gn=   0.000
       rho(0)=N f(grad)=N a(iso)=Y a(dip)=Y a(orb)=Y sigma(nmr)=N spin-spin(nmr)=all-N,DSO-N,PSO-N,FC-N,SD-N
   Nucleus:  21H 
       Hyperfine : Isotope=    1 I=   0.500 P= 533.551
       Quadrupole: Isotope=    2 I=   1.000 Q=   0.003
       Spin-Orbit: Zeff=   1.000
       Ncuelar Spin-Spin: Gn=   0.000
       rho(0)=N f(grad)=N a(iso)=Y a(dip)=Y a(orb)=Y sigma(nmr)=N spin-spin(nmr)=all-N,DSO-N,PSO-N,FC-N,SD-N
   Nucleus:  23H 
       Hyperfine : Isotope=    1 I=   0.500 P= 533.551
       Quadrupole: Isotope=    2 I=   1.000 Q=   0.003
       Spin-Orbit: Zeff=   1.000
       Ncuelar Spin-Spin: Gn=   0.000
       rho(0)=N f(grad)=N a(iso)=Y a(dip)=Y a(orb)=Y sigma(nmr)=N spin-spin(nmr)=all-N,DSO-N,PSO-N,FC-N,SD-N
   Nucleus:  24H 
       Hyperfine : Isotope=    1 I=   0.500 P= 533.551
       Quadrupole: Isotope=    2 I=   1.000 Q=   0.003
       Spin-Orbit: Zeff=   1.000
       Ncuelar Spin-Spin: Gn=   0.000
       rho(0)=N f(grad)=N a(iso)=Y a(dip)=Y a(orb)=Y sigma(nmr)=N spin-spin(nmr)=all-N,DSO-N,PSO-N,FC-N,SD-N
   Nucleus:  26H 
       Hyperfine : Isotope=    1 I=   0.500 P= 533.551
       Quadrupole: Isotope=    2 I=   1.000 Q=   0.003
       Spin-Orbit: Zeff=   1.000
       Ncuelar Spin-Spin: Gn=   0.000
       rho(0)=N f(grad)=N a(iso)=Y a(dip)=Y a(orb)=Y sigma(nmr)=N spin-spin(nmr)=all-N,DSO-N,PSO-N,FC-N,SD-N
   Nucleus:  27H 
       Hyperfine : Isotope=    1 I=   0.500 P= 533.551
       Quadrupole: Isotope=    2 I=   1.000 Q=   0.003
       Spin-Orbit: Zeff=   1.000
       Ncuelar Spin-Spin: Gn=   0.000
       rho(0)=N f(grad)=N a(iso)=Y a(dip)=Y a(orb)=Y sigma(nmr)=N spin-spin(nmr)=all-N,DSO-N,PSO-N,FC-N,SD-N
   Nucleus:  29H 
       Hyperfine : Isotope=    1 I=   0.500 P= 533.551
       Quadrupole: Isotope=    2 I=   1.000 Q=   0.003
       Spin-Orbit: Zeff=   1.000
       Ncuelar Spin-Spin: Gn=   0.000
       rho(0)=N f(grad)=N a(iso)=Y a(dip)=Y a(orb)=Y sigma(nmr)=N spin-spin(nmr)=all-N,DSO-N,PSO-N,FC-N,SD-N
   Nucleus:  30H 
       Hyperfine : Isotope=    1 I=   0.500 P= 533.551
       Quadrupole: Isotope=    2 I=   1.000 Q=   0.003
       Spin-Orbit: Zeff=   1.000
       Ncuelar Spin-Spin: Gn=   0.000
       rho(0)=N f(grad)=N a(iso)=Y a(dip)=Y a(orb)=Y sigma(nmr)=N spin-spin(nmr)=all-N,DSO-N,PSO-N,FC-N,SD-N
   Nucleus:  32H 
       Hyperfine : Isotope=    1 I=   0.500 P= 533.551
       Quadrupole: Isotope=    2 I=   1.000 Q=   0.003
       Spin-Orbit: Zeff=   1.000
       Ncuelar Spin-Spin: Gn=   0.000
       rho(0)=N f(grad)=N a(iso)=Y a(dip)=Y a(orb)=Y sigma(nmr)=N spin-spin(nmr)=all-N,DSO-N,PSO-N,FC-N,SD-N
   Nucleus:  33H 
       Hyperfine : Isotope=    1 I=   0.500 P= 533.551
       Quadrupole: Isotope=    2 I=   1.000 Q=   0.003
       Spin-Orbit: Zeff=   1.000
       Ncuelar Spin-Spin: Gn=   0.000
       rho(0)=N f(grad)=N a(iso)=Y a(dip)=Y a(orb)=Y sigma(nmr)=N spin-spin(nmr)=all-N,DSO-N,PSO-N,FC-N,SD-N
   Nucleus:  35H 
       Hyperfine : Isotope=    1 I=   0.500 P= 533.551
       Quadrupole: Isotope=    2 I=   1.000 Q=   0.003
       Spin-Orbit: Zeff=   1.000
       Ncuelar Spin-Spin: Gn=   0.000
       rho(0)=N f(grad)=N a(iso)=Y a(dip)=Y a(orb)=Y sigma(nmr)=N spin-spin(nmr)=all-N,DSO-N,PSO-N,FC-N,SD-N
   Nucleus:  36H 
       Hyperfine : Isotope=    1 I=   0.500 P= 533.551
       Quadrupole: Isotope=    2 I=   1.000 Q=   0.003
       Spin-Orbit: Zeff=   1.000
       Ncuelar Spin-Spin: Gn=   0.000
       rho(0)=N f(grad)=N a(iso)=Y a(dip)=Y a(orb)=Y sigma(nmr)=N spin-spin(nmr)=all-N,DSO-N,PSO-N,FC-N,SD-N
   Nucleus:  37H 
       Hyperfine : Isotope=    1 I=   0.500 P= 533.551
       Quadrupole: Isotope=    2 I=   1.000 Q=   0.003
       Spin-Orbit: Zeff=   1.000
       Ncuelar Spin-Spin: Gn=   0.000
       rho(0)=N f(grad)=N a(iso)=Y a(dip)=Y a(orb)=Y sigma(nmr)=N spin-spin(nmr)=all-N,DSO-N,PSO-N,FC-N,SD-N
   Nucleus:  44H 
       Hyperfine : Isotope=    1 I=   0.500 P= 533.551
       Quadrupole: Isotope=    2 I=   1.000 Q=   0.003
       Spin-Orbit: Zeff=   1.000
       Ncuelar Spin-Spin: Gn=   0.000
       rho(0)=N f(grad)=N a(iso)=Y a(dip)=Y a(orb)=Y sigma(nmr)=N spin-spin(nmr)=all-N,DSO-N,PSO-N,FC-N,SD-N
   Nucleus:  45H 
       Hyperfine : Isotope=    1 I=   0.500 P= 533.551
       Quadrupole: Isotope=    2 I=   1.000 Q=   0.003
       Spin-Orbit: Zeff=   1.000
       Ncuelar Spin-Spin: Gn=   0.000
       rho(0)=N f(grad)=N a(iso)=Y a(dip)=Y a(orb)=Y sigma(nmr)=N spin-spin(nmr)=all-N,DSO-N,PSO-N,FC-N,SD-N
   Nucleus:  46H 
       Hyperfine : Isotope=    1 I=   0.500 P= 533.551
       Quadrupole: Isotope=    2 I=   1.000 Q=   0.003
       Spin-Orbit: Zeff=   1.000
       Ncuelar Spin-Spin: Gn=   0.000
       rho(0)=N f(grad)=N a(iso)=Y a(dip)=Y a(orb)=Y sigma(nmr)=N spin-spin(nmr)=all-N,DSO-N,PSO-N,FC-N,SD-N
   Nucleus:  47H 
       Hyperfine : Isotope=    1 I=   0.500 P= 533.551
       Quadrupole: Isotope=    2 I=   1.000 Q=   0.003
       Spin-Orbit: Zeff=   1.000
       Ncuelar Spin-Spin: Gn=   0.000
       rho(0)=N f(grad)=N a(iso)=Y a(dip)=Y a(orb)=Y sigma(nmr)=N spin-spin(nmr)=all-N,DSO-N,PSO-N,FC-N,SD-N
   Nucleus:  48H 
       Hyperfine : Isotope=    1 I=   0.500 P= 533.551
       Quadrupole: Isotope=    2 I=   1.000 Q=   0.003
       Spin-Orbit: Zeff=   1.000
       Ncuelar Spin-Spin: Gn=   0.000
       rho(0)=N f(grad)=N a(iso)=Y a(dip)=Y a(orb)=Y sigma(nmr)=N spin-spin(nmr)=all-N,DSO-N,PSO-N,FC-N,SD-N
Forming RHS of the CP-SCF equations         ... 
Calculating right hand sides for GIAO treatment        ... 
  Entering RightHandSide GIAO. ScalHFX=    0.2000 NeedHFX=1
     -> 1-electron GIAO integrals will be done analytically
     -> SCF done analytically but RIJK chosen for GIAO calculation.
     Making grid for GIAO integrations   ... 
General Integration Accuracy     IntAcc      ...  4.340
Radial Grid Type                 RadialGrid  ... Gauss-Chebyshev
Angular Grid (max. acc.)         AngularGrid ... Lebedev-110
Angular grid pruning method      GridPruning ... 3 (G Style)
Weight generation scheme         WeightScheme... Becke
Basis function cutoff            BFCut       ...    1.0000e-10
Integration weight cutoff        WCut        ...    1.0000e-14
Grids for H and He will be reduced by one unit

# of grid points (after initial pruning)     ...  59594 (   0.0 sec)
# of grid points (after weights+screening)   ...  53213 (   0.2 sec)
nearest neighbour list constructed           ...    0.0 sec
Grid point re-assignment to atoms done       ...    0.0 sec
Grid point division into batches done        ...    0.1 sec
Reduced shell lists constructed in    0.1 sec

Total number of grid points                  ...    53213
Total number of batches                      ...      854
Average number of points per batch           ...       62
Average number of grid points per atom       ...     1086
Average number of shells per batch           ...   108.65 (31.86%)
Average number of basis functions per batch  ...   205.60 (35.27%)
Average number of large shells per batch     ...    70.38 (64.78%)
Average number of large basis fcns per batch ...   133.95 (65.15%)
Maximum spatial batch extension              ...  15.68, 11.40, 20.28 au
Average spatial batch extension              ...   0.15,  0.19,  0.29 au

done
  One-electron GIAO integrals             ... done
  Calculating G(B)[P]                     ... (RI-JK: P(aux)-ok JK-RI-ok) (add-J+K:ok) => dG/dB done
  DFT XC-terms                            ... done
  Extracting occupied and virtual blocks  ... 
  Operator  0  NO=  85 NV= 498 
  Operator  1  NO=  84 NV= 499 
  Transforming and RHS contribution       ... done
  Adding eps_i * S(B)_ai terms            ... done
  Projecting overlap derivatives          ... done
  Building G[dS/dB_ij] (Direct)           ... done
  Transforming to MO basis                ... done
  Summing G[dS/dB_ij] into RHS contribs.  ... done

  GIAO profiling information: 
    Total GIAO time               ...     417.4 sec
       GIAO 1-electron integrals  ...       0.1 sec (  0.0%)
       GIAO G(dS/dB) terms        ...      35.4 sec (  8.5%)
       GIAO RI-JK                 ...     377.7 sec ( 90.5%)
       GIAO XC-terms              ...       1.8 sec (  0.4%)
       Right hand side assembly   ...       0.1 sec (  0.0%)

  GIAO right hand side done


------------------------------------------------------------------------------
                           ORCA CP-SCF CALCULATION
------------------------------------------------------------------------------

Input orbitals are from        ... g-tensor_EPRII_invariant.gbw
Input Perturbation             ... g-tensor_EPRII_invariant.pin.tmp
Wavefunction output            ... g-tensor_EPRII_invariant.pout.tmp
Perturbation mode              ... Imaginary perturbation
Solver                         ... POPLE
Max. number of iterations      ... 64
Convergence tolerance          ... 1.000e-06
Integral handling              ... Direct
Number of perturbations        ... 3
Number of operators            ... 2
Orbital ranges used for CP-SCF:
 Operator 0:  Orbitals   0... 84  to  85...582
 Operator 1:  Orbitals   0... 83  to  84...582
DFT calculation                         ... on
Variables per vector in CP-SCF ... 84246
Number of vectors sought       ... 3
     CP-SCF ITERATION   0: 
     CP-SCF ITERATION   1:      0.011054439757
     CP-SCF ITERATION   2:      0.000049446668
     CP-SCF ITERATION   3:      0.000000657864

Forming final perturbed densities           ... done
Transforming perturbed density to AO basis  ... done

Magnetic field perturbation calculated in 528.422 sec
GIAO: Doing diamagnetic term integrals analytically ...done
GIAO: Doing 1el-GIAO-SOC integrals analytically ... done

-------------------
ELECTRONIC G-MATRIX
-------------------

 The g-matrix: 
              2.0027855    0.0001166    0.0000002
              0.0000641    2.0027741   -0.0000001
              0.0000001   -0.0000004    2.0021862

 gel          2.0023193    2.0023193    2.0023193
 gRMC        -0.0001397   -0.0001397   -0.0001397
 gDSO(tot)    0.0000296    0.0000829    0.0000856
 gPSO(tot)   -0.0000230    0.0004268    0.0006051
             ----------   ----------   ----------
 g(tot)       2.0021862    2.0026893    2.0028704 iso=  2.0025819
 Delta-g     -0.0001331    0.0003700    0.0005511 iso=  0.0002627
 Orientation: 
  X          -0.0003072   -0.6844152   -0.7290924
  Y           0.0004714    0.7290922   -0.6844153
  Z           0.9999998   -0.0005539    0.0000986

Notes:  (1) The g-matrix conforms to the "BgS" spin Hamiltonian convention. 
        (2) The principal values are square roots of the eigenvalues of g*gT.
        (3) Orientations are eigenvectors of g*gT written as column vectors.
        (4) Individual contributions are projections of the full matrices onto the eigenvectors of g*gT.
        (5) Tensor is right-handed.


-----------------------------------------
ELECTRIC AND MAGNETIC HYPERFINE STRUCTURE
-----------------------------------------

 -----------------------------------------------------------
 Nucleus   9H : A:ISTP=    1 I=  0.5 P=533.5514 MHz/au**3
                Q:ISTP=    2 I=  1.0 Q=  0.0029 barn     
 -----------------------------------------------------------
 Solving for nuclear perturbation:
Forming RHS of the CP-SCF equations         ... 
Using LibInt in CPSCF-CP

Calculating nucleus orbit integrals         ... done

------------------------------------------------------------------------------
                           ORCA CP-SCF CALCULATION
------------------------------------------------------------------------------

Input orbitals are from        ... g-tensor_EPRII_invariant.gbw
Input Perturbation             ... g-tensor_EPRII_invariant.pin.tmp
Wavefunction output            ... g-tensor_EPRII_invariant.pout.tmp
Perturbation mode              ... Imaginary perturbation
Solver                         ... POPLE
Max. number of iterations      ... 64
Convergence tolerance          ... 1.000e-06
Integral handling              ... Direct
Number of perturbations        ... 3
Number of operators            ... 2
Orbital ranges used for CP-SCF:
 Operator 0:  Orbitals   0... 84  to  85...582
 Operator 1:  Orbitals   0... 83  to  84...582
DFT calculation                         ... on
Variables per vector in CP-SCF ... 84246
Number of vectors sought       ... 3
     CP-SCF ITERATION   0: 
     CP-SCF ITERATION   1:      0.000005334515
     CP-SCF ITERATION   2:      0.000000022339

Forming final perturbed densities           ...
ORCA finished by error termination in EPR/NMR
Calling Command: mpirun -np 16  /hits/sw/ccc/ORCA421/orca_4_2_1_linux_x86-64_openmpi314/orca_eprnmr_mpi g-tensor_EPRII_invariant.eprnmr.inp g-tensor_EPRII_invariant 
[file orca_tools/qcmsg.cpp, line 458]: 
  .... aborting the run

