 Entering Gaussian System, Link 0=g09
 Input=g09BDE.com
 Output=g09BDE.log
 Initial command:
 /hits/basement/its/doserbd/software/gaussian/g09d1/g09/l1.exe "/hits/basement/mbm/sucerquia/gaussian_scratch/Gau-2677796.inp" -scrdir="/hits/basement/mbm/sucerquia/gaussian_scratch/"
 Entering Link 1 = /hits/basement/its/doserbd/software/gaussian/g09d1/g09/l1.exe PID=   2677797.
  
 Copyright (c) 1988,1990,1992,1993,1995,1998,2003,2009,2013,
            Gaussian, Inc.  All Rights Reserved.
  
 This is part of the Gaussian(R) 09 program.  It is based on
 the Gaussian(R) 03 system (copyright 2003, Gaussian, Inc.),
 the Gaussian(R) 98 system (copyright 1998, Gaussian, Inc.),
 the Gaussian(R) 94 system (copyright 1995, Gaussian, Inc.),
 the Gaussian 92(TM) system (copyright 1992, Gaussian, Inc.),
 the Gaussian 90(TM) system (copyright 1990, Gaussian, Inc.),
 the Gaussian 88(TM) system (copyright 1988, Gaussian, Inc.),
 the Gaussian 86(TM) system (copyright 1986, Carnegie Mellon
 University), and the Gaussian 82(TM) system (copyright 1983,
 Carnegie Mellon University). Gaussian is a federally registered
 trademark of Gaussian, Inc.
  
 This software contains proprietary and confidential information,
 including trade secrets, belonging to Gaussian, Inc.
  
 This software is provided under written license and may be
 used, copied, transmitted, or stored only in accord with that
 written license.
  
 The following legend is applicable only to US Government
 contracts under FAR:
  
                    RESTRICTED RIGHTS LEGEND
  
 Use, reproduction and disclosure by the US Government is
 subject to restrictions as set forth in subparagraphs (a)
 and (c) of the Commercial Computer Software - Restricted
 Rights clause in FAR 52.227-19.
  
 Gaussian, Inc.
 340 Quinnipiac St., Bldg. 40, Wallingford CT 06492
  
  
 ---------------------------------------------------------------
 Warning -- This program may not be used in any manner that
 competes with the business of Gaussian, Inc. or will provide
 assistance to any competitor of Gaussian, Inc.  The licensee
 of this program is prohibited from giving any competitor of
 Gaussian, Inc. access to this program.  By using this program,
 the user acknowledges that Gaussian, Inc. is engaged in the
 business of creating and licensing software in the field of
 computational chemistry and represents and warrants to the
 licensee that it is not a competitor of Gaussian, Inc. and that
 it will not use this program in any manner prohibited above.
 ---------------------------------------------------------------
  

 Cite this work as:
 Gaussian 09, Revision D.01,
 M. J. Frisch, G. W. Trucks, H. B. Schlegel, G. E. Scuseria, 
 M. A. Robb, J. R. Cheeseman, G. Scalmani, V. Barone, B. Mennucci, 
 G. A. Petersson, H. Nakatsuji, M. Caricato, X. Li, H. P. Hratchian, 
 A. F. Izmaylov, J. Bloino, G. Zheng, J. L. Sonnenberg, M. Hada, 
 M. Ehara, K. Toyota, R. Fukuda, J. Hasegawa, M. Ishida, T. Nakajima, 
 Y. Honda, O. Kitao, H. Nakai, T. Vreven, J. A. Montgomery, Jr., 
 J. E. Peralta, F. Ogliaro, M. Bearpark, J. J. Heyd, E. Brothers, 
 K. N. Kudin, V. N. Staroverov, T. Keith, R. Kobayashi, J. Normand, 
 K. Raghavachari, A. Rendell, J. C. Burant, S. S. Iyengar, J. Tomasi, 
 M. Cossi, N. Rega, J. M. Millam, M. Klene, J. E. Knox, J. B. Cross, 
 V. Bakken, C. Adamo, J. Jaramillo, R. Gomperts, R. E. Stratmann, 
 O. Yazyev, A. J. Austin, R. Cammi, C. Pomelli, J. W. Ochterski, 
 R. L. Martin, K. Morokuma, V. G. Zakrzewski, G. A. Voth, 
 P. Salvador, J. J. Dannenberg, S. Dapprich, A. D. Daniels, 
 O. Farkas, J. B. Foresman, J. V. Ortiz, J. Cioslowski, 
 and D. J. Fox, Gaussian, Inc., Wallingford CT, 2013.
 
 ******************************************
 Gaussian 09:  ES64L-G09RevD.01 24-Apr-2013
                10-May-2024 
 ******************************************
 %chk=g09BDE
 %NProcShared=8
 Will use up to    8 processors via shared memory.
 ---------------------------------------
 #P bmk/6-31+g opt(modredun,calcfc) freq
 ---------------------------------------
 1/10=4,14=-1,18=120,19=15,26=3,38=1/1,3;
 2/9=110,12=2,17=6,18=5,40=1/2;
 3/5=1,6=6,7=10,11=2,16=1,25=1,30=1,71=2,74=-34,140=1/1,2,3;
 4//1;
 5/5=2,38=5/2;
 8/6=4,10=90,11=11/1;
 11/6=1,8=1,9=11,15=111,16=1/1,2,10;
 10/6=1,13=1/2;
 6/7=2,8=2,9=2,10=2,28=1/1;
 7/10=1,18=20,25=1/1,2,3,16;
 1/10=4,14=-1,18=20,19=15,26=3/3(2);
 2/9=110/2;
 99//99;
 2/9=110/2;
 3/5=1,6=6,7=10,11=2,16=1,25=1,30=1,71=1,74=-34/1,2,3;
 4/5=5,16=3,69=1/1;
 5/5=2,38=5/2;
 7//1,2,3,16;
 1/14=-1,18=20,19=15,26=3/3(-5);
 2/9=110/2;
 6/7=2,8=2,9=2,10=2,19=2,28=1/1;
 99/9=1/99;
 Leave Link    1 at Fri May 10 15:44:19 2024, MaxMem=           0 cpu:         0.6
 (Enter /hits/basement/its/doserbd/software/gaussian/g09d1/g09/l101.exe)
 ------------------------------
 Gaussian input prepared by ASE
 ------------------------------
 Symbolic Z-matrix:
 Charge =  0 Multiplicity = 2
 C                    -0.07612  -0.01189  -0.00032 
 C                     1.32618   0.01393  -0.00006 
 C                     2.08885  -1.2113   -0.00339 
 C                     3.48396  -1.09423  -0.00291 
 C                     4.11357   0.16146   0.00069 
 C                     3.38269   1.3771    0.00402 
 C                     1.99458   1.28146   0.00355 
 H                     4.10102  -1.98614  -0.00534 
 H                     1.37055   2.16783   0.00593 
 C                     1.37121  -2.54743  -0.00723 
 H                     0.70096  -2.56961  -0.87611 
 H                     0.69928  -2.57367   0.86023 
 C                     2.25823  -3.80211  -0.00932 
 H                     2.91491  -3.79678  -0.88986 
 H                     2.91347  -3.80064   0.87232 
 C                     1.42909  -5.09954  -0.01284 
 H                     0.76957  -5.10872   0.86462 
 H                     0.7711   -5.10495  -0.89149 
 C                     2.30041  -6.36715  -0.01481 
 H                     2.94539  -6.40402   0.87045 
 H                     2.94735  -6.39993  -0.89879 
 C                     4.13836   2.69896   0.00789 
 H                     4.80204   2.71067   0.88379 
 H                     4.80339   2.71497  -0.8669 
 C                     3.2819    3.97462   0.01036 
 H                     2.62602   3.98287  -0.87021 
 H                     2.62455   3.97853   0.88986 
 C                     4.13327   5.25721   0.01425 
 H                     4.79075   5.2524    0.89382 
 H                     4.7924    5.25662  -0.8641 
 C                     3.28303   6.53929   0.01655 
 H                     2.63641   6.58161   0.90003 
 H                     2.63855   6.58621  -0.86826 
 H                     1.68487  -7.27236  -0.01757 
 H                     3.91324   7.43436   0.01964 
 H                     5.20163   0.20346   0.00091 
 C                    -1.36695  -0.03887  -0.00056 
 
 The following ModRedundant input section has been read:
 
 NAtoms=     37 NQM=       37 NQMF=       0 NMMI=      0 NMMIF=      0
                NMic=       0 NMicF=      0.
                    Isotopes and Nuclear Properties:
 (Nuclear quadrupole moments (NQMom) in fm**2, nuclear magnetic moments (NMagM)
  in nuclear magnetons)

  Atom         1           2           3           4           5           6           7           8           9          10
 IAtWgt=          12          12          12          12          12          12          12           1           1          12
 AtmWgt=  12.0000000  12.0000000  12.0000000  12.0000000  12.0000000  12.0000000  12.0000000   1.0078250   1.0078250  12.0000000
 NucSpn=           0           0           0           0           0           0           0           1           1           0
 AtZEff=   0.0000000   0.0000000   0.0000000   0.0000000   0.0000000   0.0000000   0.0000000   0.0000000   0.0000000   0.0000000
 NQMom=    0.0000000   0.0000000   0.0000000   0.0000000   0.0000000   0.0000000   0.0000000   0.0000000   0.0000000   0.0000000
 NMagM=    0.0000000   0.0000000   0.0000000   0.0000000   0.0000000   0.0000000   0.0000000   2.7928460   2.7928460   0.0000000
 AtZNuc=   6.0000000   6.0000000   6.0000000   6.0000000   6.0000000   6.0000000   6.0000000   1.0000000   1.0000000   6.0000000

  Atom        11          12          13          14          15          16          17          18          19          20
 IAtWgt=           1           1          12           1           1          12           1           1          12           1
 AtmWgt=   1.0078250   1.0078250  12.0000000   1.0078250   1.0078250  12.0000000   1.0078250   1.0078250  12.0000000   1.0078250
 NucSpn=           1           1           0           1           1           0           1           1           0           1
 AtZEff=   0.0000000   0.0000000   0.0000000   0.0000000   0.0000000   0.0000000   0.0000000   0.0000000   0.0000000   0.0000000
 NQMom=    0.0000000   0.0000000   0.0000000   0.0000000   0.0000000   0.0000000   0.0000000   0.0000000   0.0000000   0.0000000
 NMagM=    2.7928460   2.7928460   0.0000000   2.7928460   2.7928460   0.0000000   2.7928460   2.7928460   0.0000000   2.7928460
 AtZNuc=   1.0000000   1.0000000   6.0000000   1.0000000   1.0000000   6.0000000   1.0000000   1.0000000   6.0000000   1.0000000

  Atom        21          22          23          24          25          26          27          28          29          30
 IAtWgt=           1          12           1           1          12           1           1          12           1           1
 AtmWgt=   1.0078250  12.0000000   1.0078250   1.0078250  12.0000000   1.0078250   1.0078250  12.0000000   1.0078250   1.0078250
 NucSpn=           1           0           1           1           0           1           1           0           1           1
 AtZEff=   0.0000000   0.0000000   0.0000000   0.0000000   0.0000000   0.0000000   0.0000000   0.0000000   0.0000000   0.0000000
 NQMom=    0.0000000   0.0000000   0.0000000   0.0000000   0.0000000   0.0000000   0.0000000   0.0000000   0.0000000   0.0000000
 NMagM=    2.7928460   0.0000000   2.7928460   2.7928460   0.0000000   2.7928460   2.7928460   0.0000000   2.7928460   2.7928460
 AtZNuc=   1.0000000   6.0000000   1.0000000   1.0000000   6.0000000   1.0000000   1.0000000   6.0000000   1.0000000   1.0000000

  Atom        31          32          33          34          35          36          37
 IAtWgt=          12           1           1           1           1           1          12
 AtmWgt=  12.0000000   1.0078250   1.0078250   1.0078250   1.0078250   1.0078250  12.0000000
 NucSpn=           0           1           1           1           1           1           0
 AtZEff=   0.0000000   0.0000000   0.0000000   0.0000000   0.0000000   0.0000000   0.0000000
 NQMom=    0.0000000   0.0000000   0.0000000   0.0000000   0.0000000   0.0000000   0.0000000
 NMagM=    0.0000000   2.7928460   2.7928460   2.7928460   2.7928460   2.7928460   0.0000000
 AtZNuc=   6.0000000   1.0000000   1.0000000   1.0000000   1.0000000   1.0000000   6.0000000
 Leave Link  101 at Fri May 10 15:44:19 2024, MaxMem=    33554432 cpu:         0.4
 (Enter /hits/basement/its/doserbd/software/gaussian/g09d1/g09/l103.exe)

 GradGradGradGradGradGradGradGradGradGradGradGradGradGradGradGradGradGrad
 Berny optimization.
 Initialization pass.
                           ----------------------------
                           !    Initial Parameters    !
                           ! (Angstroms and Degrees)  !
 --------------------------                            --------------------------
 ! Name  Definition              Value          Derivative Info.                !
 --------------------------------------------------------------------------------
 ! R1    R(1,2)                  1.4025         calculate D2E/DX2 analytically  !
 ! R2    R(1,37)                 1.2911         calculate D2E/DX2 analytically  !
 ! R3    R(2,3)                  1.4432         calculate D2E/DX2 analytically  !
 ! R4    R(2,7)                  1.433          calculate D2E/DX2 analytically  !
 ! R5    R(3,4)                  1.4            calculate D2E/DX2 analytically  !
 ! R6    R(3,10)                 1.5167         calculate D2E/DX2 analytically  !
 ! R7    R(4,5)                  1.4047         calculate D2E/DX2 analytically  !
 ! R8    R(4,8)                  1.0846         calculate D2E/DX2 analytically  !
 ! R9    R(5,6)                  1.4184         calculate D2E/DX2 analytically  !
 ! R10   R(5,36)                 1.0889         calculate D2E/DX2 analytically  !
 ! R11   R(6,7)                  1.3914         calculate D2E/DX2 analytically  !
 ! R12   R(6,22)                 1.5226         calculate D2E/DX2 analytically  !
 ! R13   R(7,9)                  1.084          calculate D2E/DX2 analytically  !
 ! R14   R(10,11)                1.0976         calculate D2E/DX2 analytically  !
 ! R15   R(10,12)                1.0976         calculate D2E/DX2 analytically  !
 ! R16   R(10,13)                1.5366         calculate D2E/DX2 analytically  !
 ! R17   R(13,14)                1.0985         calculate D2E/DX2 analytically  !
 ! R18   R(13,15)                1.0985         calculate D2E/DX2 analytically  !
 ! R19   R(13,16)                1.5397         calculate D2E/DX2 analytically  !
 ! R20   R(16,17)                1.0977         calculate D2E/DX2 analytically  !
 ! R21   R(16,18)                1.0977         calculate D2E/DX2 analytically  !
 ! R22   R(16,19)                1.5382         calculate D2E/DX2 analytically  !
 ! R23   R(19,20)                1.0959         calculate D2E/DX2 analytically  !
 ! R24   R(19,21)                1.0959         calculate D2E/DX2 analytically  !
 ! R25   R(19,34)                1.0947         calculate D2E/DX2 analytically  !
 ! R26   R(22,23)                1.099          calculate D2E/DX2 analytically  !
 ! R27   R(22,24)                1.099          calculate D2E/DX2 analytically  !
 ! R28   R(22,25)                1.5365         calculate D2E/DX2 analytically  !
 ! R29   R(25,26)                1.098          calculate D2E/DX2 analytically  !
 ! R30   R(25,27)                1.098          calculate D2E/DX2 analytically  !
 ! R31   R(25,28)                1.5394         calculate D2E/DX2 analytically  !
 ! R32   R(28,29)                1.0982         calculate D2E/DX2 analytically  !
 ! R33   R(28,30)                1.0982         calculate D2E/DX2 analytically  !
 ! R34   R(28,31)                1.5384         calculate D2E/DX2 analytically  !
 ! R35   R(31,32)                1.0956         calculate D2E/DX2 analytically  !
 ! R36   R(31,33)                1.0956         calculate D2E/DX2 analytically  !
 ! R37   R(31,35)                1.0947         calculate D2E/DX2 analytically  !
 ! A1    A(1,2,3)              120.8458         calculate D2E/DX2 analytically  !
 ! A2    A(1,2,7)              118.8586         calculate D2E/DX2 analytically  !
 ! A3    A(3,2,7)              120.2956         calculate D2E/DX2 analytically  !
 ! A4    A(2,3,4)              117.1039         calculate D2E/DX2 analytically  !
 ! A5    A(2,3,10)             119.8591         calculate D2E/DX2 analytically  !
 ! A6    A(4,3,10)             123.037          calculate D2E/DX2 analytically  !
 ! A7    A(3,4,5)              121.4261         calculate D2E/DX2 analytically  !
 ! A8    A(3,4,8)              119.88           calculate D2E/DX2 analytically  !
 ! A9    A(5,4,8)              118.6939         calculate D2E/DX2 analytically  !
 ! A10   A(4,5,6)              122.3554         calculate D2E/DX2 analytically  !
 ! A11   A(4,5,36)             118.8402         calculate D2E/DX2 analytically  !
 ! A12   A(6,5,36)             118.8045         calculate D2E/DX2 analytically  !
 ! A13   A(5,6,7)              117.0741         calculate D2E/DX2 analytically  !
 ! A14   A(5,6,22)             119.2293         calculate D2E/DX2 analytically  !
 ! A15   A(7,6,22)             123.6966         calculate D2E/DX2 analytically  !
 ! A16   A(2,7,6)              121.7449         calculate D2E/DX2 analytically  !
 ! A17   A(2,7,9)              117.0495         calculate D2E/DX2 analytically  !
 ! A18   A(6,7,9)              121.2057         calculate D2E/DX2 analytically  !
 ! A19   A(3,10,11)            107.9842         calculate D2E/DX2 analytically  !
 ! A20   A(3,10,12)            107.9831         calculate D2E/DX2 analytically  !
 ! A21   A(3,10,13)            116.5007         calculate D2E/DX2 analytically  !
 ! A22   A(11,10,12)           104.5563         calculate D2E/DX2 analytically  !
 ! A23   A(11,10,13)           109.5688         calculate D2E/DX2 analytically  !
 ! A24   A(12,10,13)           109.5702         calculate D2E/DX2 analytically  !
 ! A25   A(10,13,14)           110.0129         calculate D2E/DX2 analytically  !
 ! A26   A(10,13,15)           110.0088         calculate D2E/DX2 analytically  !
 ! A27   A(10,13,16)           112.1595         calculate D2E/DX2 analytically  !
 ! A28   A(14,13,15)           106.6653         calculate D2E/DX2 analytically  !
 ! A29   A(14,13,16)           108.9154         calculate D2E/DX2 analytically  !
 ! A30   A(15,13,16)           108.916          calculate D2E/DX2 analytically  !
 ! A31   A(13,16,17)           109.1928         calculate D2E/DX2 analytically  !
 ! A32   A(13,16,18)           109.1943         calculate D2E/DX2 analytically  !
 ! A33   A(13,16,19)           112.915          calculate D2E/DX2 analytically  !
 ! A34   A(17,16,18)           106.2393         calculate D2E/DX2 analytically  !
 ! A35   A(17,16,19)           109.5397         calculate D2E/DX2 analytically  !
 ! A36   A(18,16,19)           109.5393         calculate D2E/DX2 analytically  !
 ! A37   A(16,19,20)           111.1045         calculate D2E/DX2 analytically  !
 ! A38   A(16,19,21)           111.1046         calculate D2E/DX2 analytically  !
 ! A39   A(16,19,34)           111.281          calculate D2E/DX2 analytically  !
 ! A40   A(20,19,21)           107.6463         calculate D2E/DX2 analytically  !
 ! A41   A(20,19,34)           107.7677         calculate D2E/DX2 analytically  !
 ! A42   A(21,19,34)           107.7677         calculate D2E/DX2 analytically  !
 ! A43   A(6,22,23)            108.1187         calculate D2E/DX2 analytically  !
 ! A44   A(6,22,24)            108.1166         calculate D2E/DX2 analytically  !
 ! A45   A(6,22,25)            116.3678         calculate D2E/DX2 analytically  !
 ! A46   A(23,22,24)           105.5939         calculate D2E/DX2 analytically  !
 ! A47   A(23,22,25)           109.0555         calculate D2E/DX2 analytically  !
 ! A48   A(24,22,25)           109.0557         calculate D2E/DX2 analytically  !
 ! A49   A(22,25,26)           109.749          calculate D2E/DX2 analytically  !
 ! A50   A(22,25,27)           109.7518         calculate D2E/DX2 analytically  !
 ! A51   A(22,25,28)           112.5473         calculate D2E/DX2 analytically  !
 ! A52   A(26,25,27)           106.5434         calculate D2E/DX2 analytically  !
 ! A53   A(26,25,28)           109.033          calculate D2E/DX2 analytically  !
 ! A54   A(27,25,28)           109.0321         calculate D2E/DX2 analytically  !
 ! A55   A(25,28,29)           109.2378         calculate D2E/DX2 analytically  !
 ! A56   A(25,28,30)           109.237          calculate D2E/DX2 analytically  !
 ! A57   A(25,28,31)           112.873          calculate D2E/DX2 analytically  !
 ! A58   A(29,28,30)           106.3365         calculate D2E/DX2 analytically  !
 ! A59   A(29,28,31)           109.4721         calculate D2E/DX2 analytically  !
 ! A60   A(30,28,31)           109.473          calculate D2E/DX2 analytically  !
 ! A61   A(28,31,32)           111.074          calculate D2E/DX2 analytically  !
 ! A62   A(28,31,33)           111.0744         calculate D2E/DX2 analytically  !
 ! A63   A(28,31,35)           111.3002         calculate D2E/DX2 analytically  !
 ! A64   A(32,31,33)           107.6005         calculate D2E/DX2 analytically  !
 ! A65   A(32,31,35)           107.8125         calculate D2E/DX2 analytically  !
 ! A66   A(33,31,35)           107.8124         calculate D2E/DX2 analytically  !
 ! A67   L(2,1,37,11,-1)       179.8651         calculate D2E/DX2 analytically  !
 ! A68   L(2,1,37,11,-2)       179.953          calculate D2E/DX2 analytically  !
 ! D1    D(1,2,3,4)            179.9987         calculate D2E/DX2 analytically  !
 ! D2    D(1,2,3,10)             0.0003         calculate D2E/DX2 analytically  !
 ! D3    D(7,2,3,4)             -0.0003         calculate D2E/DX2 analytically  !
 ! D4    D(7,2,3,10)          -179.9987         calculate D2E/DX2 analytically  !
 ! D5    D(1,2,7,6)            179.9985         calculate D2E/DX2 analytically  !
 ! D6    D(1,2,7,9)              0.0001         calculate D2E/DX2 analytically  !
 ! D7    D(3,2,7,6)             -0.0025         calculate D2E/DX2 analytically  !
 ! D8    D(3,2,7,9)            179.999          calculate D2E/DX2 analytically  !
 ! D9    D(2,3,4,5)              0.0018         calculate D2E/DX2 analytically  !
 ! D10   D(2,3,4,8)           -179.9992         calculate D2E/DX2 analytically  !
 ! D11   D(10,3,4,5)          -179.9999         calculate D2E/DX2 analytically  !
 ! D12   D(10,3,4,8)            -0.0008         calculate D2E/DX2 analytically  !
 ! D13   D(2,3,10,11)           56.3203         calculate D2E/DX2 analytically  !
 ! D14   D(2,3,10,12)          -56.2105         calculate D2E/DX2 analytically  !
 ! D15   D(2,3,10,13)         -179.9456         calculate D2E/DX2 analytically  !
 ! D16   D(4,3,10,11)         -123.678          calculate D2E/DX2 analytically  !
 ! D17   D(4,3,10,12)          123.7911         calculate D2E/DX2 analytically  !
 ! D18   D(4,3,10,13)            0.0561         calculate D2E/DX2 analytically  !
 ! D19   D(3,4,5,6)             -0.0006         calculate D2E/DX2 analytically  !
 ! D20   D(3,4,5,36)          -179.9993         calculate D2E/DX2 analytically  !
 ! D21   D(8,4,5,6)           -179.9997         calculate D2E/DX2 analytically  !
 ! D22   D(8,4,5,36)             0.0016         calculate D2E/DX2 analytically  !
 ! D23   D(4,5,6,7)             -0.0021         calculate D2E/DX2 analytically  !
 ! D24   D(4,5,6,22)           179.9973         calculate D2E/DX2 analytically  !
 ! D25   D(36,5,6,7)           179.9966         calculate D2E/DX2 analytically  !
 ! D26   D(36,5,6,22)           -0.004          calculate D2E/DX2 analytically  !
 ! D27   D(5,6,7,2)              0.0036         calculate D2E/DX2 analytically  !
 ! D28   D(5,6,7,9)           -179.998          calculate D2E/DX2 analytically  !
 ! D29   D(22,6,7,2)          -179.9958         calculate D2E/DX2 analytically  !
 ! D30   D(22,6,7,9)             0.0026         calculate D2E/DX2 analytically  !
 ! D31   D(5,6,22,23)          -56.9759         calculate D2E/DX2 analytically  !
 ! D32   D(5,6,22,24)           56.8932         calculate D2E/DX2 analytically  !
 ! D33   D(5,6,22,25)          179.958          calculate D2E/DX2 analytically  !
 ! D34   D(7,6,22,23)          123.0235         calculate D2E/DX2 analytically  !
 ! D35   D(7,6,22,24)         -123.1074         calculate D2E/DX2 analytically  !
 ! D36   D(7,6,22,25)           -0.0426         calculate D2E/DX2 analytically  !
 ! D37   D(3,10,13,14)         -58.6233         calculate D2E/DX2 analytically  !
 ! D38   D(3,10,13,15)          58.5993         calculate D2E/DX2 analytically  !
 ! D39   D(3,10,13,16)         179.9869         calculate D2E/DX2 analytically  !
 ! D40   D(11,10,13,14)         64.2914         calculate D2E/DX2 analytically  !
 ! D41   D(11,10,13,15)       -178.486          calculate D2E/DX2 analytically  !
 ! D42   D(11,10,13,16)        -57.0983         calculate D2E/DX2 analytically  !
 ! D43   D(12,10,13,14)        178.4624         calculate D2E/DX2 analytically  !
 ! D44   D(12,10,13,15)        -64.3151         calculate D2E/DX2 analytically  !
 ! D45   D(12,10,13,16)         57.0726         calculate D2E/DX2 analytically  !
 ! D46   D(10,13,16,17)        -57.8772         calculate D2E/DX2 analytically  !
 ! D47   D(10,13,16,18)         57.8902         calculate D2E/DX2 analytically  !
 ! D48   D(10,13,16,19)       -179.9932         calculate D2E/DX2 analytically  !
 ! D49   D(14,13,16,17)       -179.895          calculate D2E/DX2 analytically  !
 ! D50   D(14,13,16,18)        -64.1276         calculate D2E/DX2 analytically  !
 ! D51   D(14,13,16,19)         57.989          calculate D2E/DX2 analytically  !
 ! D52   D(15,13,16,17)         64.1358         calculate D2E/DX2 analytically  !
 ! D53   D(15,13,16,18)        179.9032         calculate D2E/DX2 analytically  !
 ! D54   D(15,13,16,19)        -57.9802         calculate D2E/DX2 analytically  !
 ! D55   D(13,16,19,20)         59.9249         calculate D2E/DX2 analytically  !
 ! D56   D(13,16,19,21)        -59.894          calculate D2E/DX2 analytically  !
 ! D57   D(13,16,19,34)       -179.9846         calculate D2E/DX2 analytically  !
 ! D58   D(17,16,19,20)        -61.9961         calculate D2E/DX2 analytically  !
 ! D59   D(17,16,19,21)        178.1849         calculate D2E/DX2 analytically  !
 ! D60   D(17,16,19,34)         58.0944         calculate D2E/DX2 analytically  !
 ! D61   D(18,16,19,20)       -178.1525         calculate D2E/DX2 analytically  !
 ! D62   D(18,16,19,21)         62.0286         calculate D2E/DX2 analytically  !
 ! D63   D(18,16,19,34)        -58.062          calculate D2E/DX2 analytically  !
 ! D64   D(6,22,25,26)         -58.3857         calculate D2E/DX2 analytically  !
 ! D65   D(6,22,25,27)          58.3813         calculate D2E/DX2 analytically  !
 ! D66   D(6,22,25,28)         179.9982         calculate D2E/DX2 analytically  !
 ! D67   D(23,22,25,26)        179.0367         calculate D2E/DX2 analytically  !
 ! D68   D(23,22,25,27)        -64.1964         calculate D2E/DX2 analytically  !
 ! D69   D(23,22,25,28)         57.4205         calculate D2E/DX2 analytically  !
 ! D70   D(24,22,25,26)         64.1895         calculate D2E/DX2 analytically  !
 ! D71   D(24,22,25,27)       -179.0436         calculate D2E/DX2 analytically  !
 ! D72   D(24,22,25,28)        -57.4267         calculate D2E/DX2 analytically  !
 ! D73   D(22,25,28,29)        -57.9744         calculate D2E/DX2 analytically  !
 ! D74   D(22,25,28,30)         57.958          calculate D2E/DX2 analytically  !
 ! D75   D(22,25,28,31)        179.9921         calculate D2E/DX2 analytically  !
 ! D76   D(26,25,28,29)       -179.9968         calculate D2E/DX2 analytically  !
 ! D77   D(26,25,28,30)        -64.0644         calculate D2E/DX2 analytically  !
 ! D78   D(26,25,28,31)         57.9697         calculate D2E/DX2 analytically  !
 ! D79   D(27,25,28,29)         64.0508         calculate D2E/DX2 analytically  !
 ! D80   D(27,25,28,30)        179.9832         calculate D2E/DX2 analytically  !
 ! D81   D(27,25,28,31)        -57.9827         calculate D2E/DX2 analytically  !
 ! D82   D(25,28,31,32)         59.8415         calculate D2E/DX2 analytically  !
 ! D83   D(25,28,31,33)        -59.8795         calculate D2E/DX2 analytically  !
 ! D84   D(25,28,31,35)        179.9809         calculate D2E/DX2 analytically  !
 ! D85   D(29,28,31,32)        -62.0601         calculate D2E/DX2 analytically  !
 ! D86   D(29,28,31,33)        178.219          calculate D2E/DX2 analytically  !
 ! D87   D(29,28,31,35)         58.0793         calculate D2E/DX2 analytically  !
 ! D88   D(30,28,31,32)       -178.2573         calculate D2E/DX2 analytically  !
 ! D89   D(30,28,31,33)         62.0218         calculate D2E/DX2 analytically  !
 ! D90   D(30,28,31,35)        -58.1178         calculate D2E/DX2 analytically  !
 --------------------------------------------------------------------------------
 Trust Radius=3.00D-01 FncErr=1.00D-07 GrdErr=1.00D-06
 Number of steps in this run=    205 maximum allowed number of steps=    222.
 GradGradGradGradGradGradGradGradGradGradGradGradGradGradGradGradGradGrad

 Leave Link  103 at Fri May 10 15:44:19 2024, MaxMem=    33554432 cpu:         0.1
 (Enter /hits/basement/its/doserbd/software/gaussian/g09d1/g09/l202.exe)
                          Input orientation:                          
 ---------------------------------------------------------------------
 Center     Atomic      Atomic             Coordinates (Angstroms)
 Number     Number       Type             X           Y           Z
 ---------------------------------------------------------------------
      1          6           0       -0.076122   -0.011892   -0.000317
      2          6           0        1.326183    0.013929   -0.000063
      3          6           0        2.088847   -1.211300   -0.003391
      4          6           0        3.483959   -1.094227   -0.002912
      5          6           0        4.113565    0.161459    0.000691
      6          6           0        3.382691    1.377096    0.004023
      7          6           0        1.994582    1.281461    0.003546
      8          1           0        4.101019   -1.986142   -0.005342
      9          1           0        1.370545    2.167830    0.005930
     10          6           0        1.371213   -2.547427   -0.007228
     11          1           0        0.700961   -2.569613   -0.876115
     12          1           0        0.699279   -2.573667    0.860228
     13          6           0        2.258233   -3.802106   -0.009315
     14          1           0        2.914907   -3.796778   -0.889859
     15          1           0        2.913470   -3.800638    0.872319
     16          6           0        1.429085   -5.099536   -0.012844
     17          1           0        0.769568   -5.108717    0.864617
     18          1           0        0.771102   -5.104953   -0.891488
     19          6           0        2.300411   -6.367149   -0.014805
     20          1           0        2.945394   -6.404015    0.870452
     21          1           0        2.947352   -6.399934   -0.898795
     22          6           0        4.138362    2.698956    0.007889
     23          1           0        4.802037    2.710669    0.883785
     24          1           0        4.803395    2.714969   -0.866904
     25          6           0        3.281896    3.974623    0.010362
     26          1           0        2.626024    3.982873   -0.870208
     27          1           0        2.624555    3.978531    0.889860
     28          6           0        4.133269    5.257207    0.014253
     29          1           0        4.790750    5.252399    0.893825
     30          1           0        4.792396    5.256623   -0.864099
     31          6           0        3.283032    6.539289    0.016551
     32          1           0        2.636411    6.581612    0.900030
     33          1           0        2.638550    6.586209   -0.868258
     34          1           0        1.684874   -7.272360   -0.017574
     35          1           0        3.913240    7.434359    0.019640
     36          1           0        5.201627    0.203465    0.000915
     37          6           0       -1.366953   -0.038870   -0.000562
 ---------------------------------------------------------------------
                    Distance matrix (angstroms):
                    1          2          3          4          5
     1  C    0.000000
     2  C    1.402542   0.000000
     3  C    2.475010   1.443210   0.000000
     4  C    3.720972   2.425699   1.400016   0.000000
     5  C    4.193272   2.791284   2.446215   1.404693   0.000000
     6  C    3.727290   2.467279   2.893766   2.473407   1.418436
     7  C    2.441433   1.432972   2.494553   2.803958   2.396769
     8  H    4.620194   3.420531   2.156206   1.084565   2.147646
     9  H    2.616119   2.154366   3.454644   3.886851   3.398486
    10  C    2.919548   2.561762   1.516657   2.564275   3.854688
    11  H    2.812973   2.798761   2.129058   3.268689   4.457960
    12  H    2.811489   2.797992   2.129032   3.269281   4.458370
    13  C    4.451406   3.928222   2.596344   2.972382   4.376323
    14  H    4.905394   4.223419   2.855328   2.900737   4.230544
    15  H    4.904461   4.222730   2.855090   2.901059   4.230623
    16  C    5.305650   5.114516   3.943824   4.501678   5.906325
    17  H    5.238409   5.224845   4.205211   4.923074   6.301067
    18  H    5.239393   5.225486   4.205437   4.922914   6.301042
    19  C    6.785087   6.455036   5.160200   5.404131   6.775727
    20  H    7.123695   6.676051   5.334938   5.408019   6.725070
    21  H    7.124305   6.676342   5.334857   5.407502   6.724656
    22  C    5.011052   3.888159   4.414832   3.849233   2.537628
    23  H    5.656007   4.487222   4.850807   4.123202   2.784299
    24  H    5.656539   4.487542   4.850775   4.122787   2.783703
    25  C    5.212361   4.417241   5.321406   5.072893   3.902818
    26  H    4.900658   4.266058   5.293332   5.221609   4.192189
    27  H    4.899954   4.265653   5.293319   5.221924   4.192590
    28  C    6.744078   5.947428   6.783919   6.384560   5.095804
    29  H    7.224866   6.343802   7.062909   6.541521   5.212863
    30  H    7.225361   6.344055   7.062862   6.541173   5.212424
    31  C    7.362213   6.812478   7.842073   7.636184   6.431699
    32  H    7.186290   6.757316   7.864190   7.775098   6.648997
    33  H    7.187330   6.758027   7.864561   7.775129   6.648921
    34  H    7.470997   7.295134   6.074524   6.434769   7.820520
    35  H    8.447607   7.858500   8.836083   8.539412   7.275683
    36  H    5.282141   3.880076   3.419207   2.152766   1.088872
    37  C    1.291113   2.693653   3.649267   4.964387   5.484178
                    6          7          8          9         10
     6  C    0.000000
     7  C    1.391399   0.000000
     8  H    3.439106   3.887722   0.000000
     9  H    2.161942   1.084010   4.971026   0.000000
    10  C    4.409995   3.879316   2.786914   4.715276   0.000000
    11  H    4.852095   4.156686   3.557960   4.865153   1.097585
    12  H    4.852042   4.156167   3.558966   4.864383   1.097572
    13  C    5.299879   5.090416   2.587200   6.035591   1.536564
    14  H    5.271320   5.237718   2.338298   6.226077   2.173225
    15  H    5.270961   5.237065   2.339436   6.225259   2.173176
    16  C    6.764881   6.406027   4.102744   7.267626   2.552771
    17  H    7.045198   6.563268   4.648213   7.351644   2.771696
    18  H    7.045516   6.563862   4.647643   7.352419   2.771820
    19  C    7.819527   7.654744   4.736613   8.585508   3.931124
    20  H    7.841404   7.792440   4.649741   8.758087   4.256952
    21  H    7.841351   7.792677   4.648738   8.758506   4.256867
    22  C    1.522618   2.570039   4.685265   2.818316   5.931431
    23  H    2.137041   3.270972   4.831356   3.583356   6.341296
    24  H    2.137012   3.271400   4.830742   3.584083   6.341272
    25  C    2.599490   2.985020   6.016804   2.630168   6.796187
    26  H    2.850771   2.908571   6.209085   2.374494   6.705528
    27  H    2.850779   2.908024   6.209561   2.373291   6.705502
    28  C    3.952054   4.514493   7.243447   4.144509   8.278993
    29  H    4.218098   4.937559   7.326711   4.690492   8.564019
    30  H    4.218013   4.937862   7.326193   4.691125   8.563990
    31  C    5.163170   5.413411   8.564610   4.771516   9.285689
    32  H    5.333549   5.413615   8.739060   4.677959   9.260842
    33  H    5.333805   5.414340   8.738915   4.679114   9.261254
    34  H    8.814541   8.559453   5.812230   9.445451   4.735344
    35  H    6.080473   6.445126   9.422405   5.848231  10.300421
    36  H    2.164705   3.383374   2.450663   4.305339   4.715882
    37  C    4.956218   3.611539   5.804362   3.516172   3.713550
                   11         12         13         14         15
    11  H    0.000000
    12  H    1.736348   0.000000
    13  C    2.166904   2.166912   0.000000
    14  H    2.531339   3.076981   1.098456   0.000000
    15  H    3.076952   2.531451   1.098460   1.762182   0.000000
    16  C    2.770543   2.770359   1.539747   2.161943   2.161954
    17  H    3.079270   2.536029   2.164975   3.066244   2.511463
    18  H    2.536356   3.079136   2.164994   2.511418   3.066267
    19  C    4.209676   4.209491   2.565395   2.783905   2.783848
    20  H    4.773952   4.440350   2.831274   3.145999   2.603574
    21  H    4.440511   4.773711   2.831036   2.603373   3.145526
    22  C    6.352559   6.352505   6.767495   6.670633   6.670256
    23  H    6.913570   6.690096   7.048745   7.003852   6.779671
    24  H    6.690057   6.913496   7.048800   6.780101   7.003560
    25  C    7.090423   7.090295   7.843838   7.831970   7.831564
    26  H    6.829420   7.049466   7.841065   7.785037   7.981357
    27  H    7.049615   6.829265   7.840984   7.981675   7.784552
    28  C    8.592590   8.592470   9.251349   9.180221   9.179800
    29  H    9.002385   8.831114   9.445283   9.412115   9.245654
    30  H    8.831192   9.002241   9.445274   9.246064   9.411667
    31  C    9.509786   9.509654  10.392080  10.382262  10.381859
    32  H    9.520797   9.358055  10.430318  10.535285  10.385983
    33  H    9.358600   9.521122  10.430700  10.386686  10.535263
    34  H    4.880676   4.880538   3.517310   3.788606   3.788695
    35  H   10.545168  10.544985  11.357730  11.312042  11.311576
    36  H    5.358650   5.359292   4.970741   4.693027   4.693383
    37  C    3.383419   3.381637   5.225323   5.766025   5.764966
                   16         17         18         19         20
    16  C    0.000000
    17  H    1.097718   0.000000
    18  H    1.097719   1.756110   0.000000
    19  C    1.538199   2.168067   2.168063   0.000000
    20  H    2.186566   2.532203   3.085376   1.095921   0.000000
    21  H    2.186567   3.085386   2.532408   1.095922   1.769253
    22  C    8.255730   8.546491   8.546830   9.250558   9.221240
    23  H    8.554534   8.797953   8.971286   9.458984   9.301869
    24  H    8.554640   8.971065   8.798362   9.459168   9.467125
    25  C    9.261415   9.463013   9.463410  10.388272  10.419651
    26  H    9.200972   9.439971   9.275223  10.390413  10.536571
    27  H    9.200833   9.274681   9.440242  10.390215  10.387521
    28  C   10.703993  10.931148  10.931555  11.768001  11.752797
    29  H   10.921785  11.114112  11.252540  11.918107  11.801605
    30  H   10.921837  11.252195  11.114576  11.918194  11.932752
    31  C   11.785594  11.946245  11.946660  12.943827  12.975834
    32  H   11.778803  11.838503  11.969324  12.985385  12.989337
    33  H   11.779268  11.969430  11.839390  12.985846  13.109660
    34  H    2.187833   2.509461   2.509255   1.094670   1.769611
    35  H   12.777738  12.958604  12.959071  13.895467  13.898245
    36  H    6.508000   6.971973   6.971745   7.182636   7.036012
    37  C    5.781723   5.569256   5.570478   7.314156   7.737576
                   21         22         23         24         25
    21  H    0.000000
    22  C    9.221191   0.000000
    23  H    9.466812   1.098998   0.000000
    24  H    9.302009   1.098995   1.750695   0.000000
    25  C   10.419689   1.536511   2.161314   2.161315   0.000000
    26  H   10.387817   2.169484   3.070835   2.519629   1.098016
    27  H   10.536414   2.169515   2.519711   3.070855   1.098011
    28  C   11.752829   2.558264   2.772759   2.772811   1.539439
    29  H   11.932663   2.780389   2.541775   3.088507   2.165607
    30  H   11.801724   2.780249   3.088215   2.541679   2.165598
    31  C   12.975901   3.934440   4.209252   4.209206   2.564673
    32  H   13.109271   4.257557   4.435583   4.771666   2.829231
    33  H   12.989849   4.257676   4.771807   4.435431   2.829531
    34  H    1.769612  10.268758  10.497144  10.497299  11.359837
    35  H   13.898349   4.740766   4.883641   4.883746   3.516881
    36  H    7.035347   2.712574   2.687974   2.686886   4.231677
    37  C    7.738422   6.148516   6.811643   6.812296   6.141665
                   26         27         28         29         30
    26  H    0.000000
    27  H    1.760073   0.000000
    28  C    2.162865   2.162849   0.000000
    29  H    3.067498   2.512997   1.098158   0.000000
    30  H    2.513094   3.067479   1.098158   1.757930   0.000000
    31  C    2.784468   2.784554   1.538389   2.167696   2.167708
    32  H    3.144407   2.603128   2.186146   2.531407   3.084805
    33  H    2.603367   3.145021   2.186150   3.084793   2.531179
    34  H   11.326651  11.326473  12.766585  12.936255  12.936333
    35  H    3.789658   3.789556   2.188249   2.509018   2.509272
    36  H    4.655804   4.656463   5.165450   5.143719   5.142969
    37  C    5.733635   5.732757   7.635515   8.167911   8.168569
                   31         32         33         34         35
    31  C    0.000000
    32  H    1.095648   0.000000
    33  H    1.095648   1.768295   0.000000
    34  H   13.903845  13.916895  13.917366   0.000000
    35  H    1.094679   1.769902   1.769902  14.874628   0.000000
    36  H    6.619963   6.933217   6.932838   8.261710   7.344802
    37  C    8.055733   7.789016   7.790290   7.850944   9.150409
                   36         37
    36  H    0.000000
    37  C    6.573049   0.000000
 Stoichiometry    C16H21(2)
 Framework group  C1[X(C16H21)]
 Deg. of freedom   105
 Full point group                 C1      NOp   1
 Largest Abelian subgroup         C1      NOp   1
 Largest concise Abelian subgroup C1      NOp   1
                         Standard orientation:                         
 ---------------------------------------------------------------------
 Center     Atomic      Atomic             Coordinates (Angstroms)
 Number     Number       Type             X           Y           Z
 ---------------------------------------------------------------------
      1          6           0       -0.549630    2.439528    0.000154
      2          6           0       -0.263138    1.066558   -0.000032
      3          6           0       -1.324928    0.089084   -0.000508
      4          6           0       -0.950120   -1.259828   -0.000694
      5          6           0        0.400848   -1.644602   -0.000392
      6          6           0        1.459133   -0.700148    0.000103
      7          6           0        1.106692    0.645875    0.000236
      8          1           0       -1.711536   -2.032179   -0.001064
      9          1           0        1.861361    1.424047    0.000576
     10          6           0       -2.771321    0.545367   -0.000819
     11          1           0       -2.920099    1.199590   -0.869468
     12          1           0       -2.920052    1.200838    0.866879
     13          6           0       -3.838887   -0.559772   -0.000014
     14          1           0       -3.713576   -1.204146   -0.880744
     15          1           0       -3.713228   -1.203097    0.881438
     16          6           0       -5.268024    0.013281   -0.000084
     17          1           0       -5.397658    0.659731    0.877573
     18          1           0       -5.398066    0.658570   -0.878536
     19          6           0       -6.351219   -1.078847    0.000883
     20          1           0       -6.265125   -1.719236    0.886057
     21          1           0       -6.265175   -1.720755   -0.883195
     22          6           0        2.898591   -1.196460    0.000469
     23          1           0        3.035872   -1.846170    0.876156
     24          1           0        3.035972   -1.847056   -0.874539
     25          6           0        3.992469   -0.117433   -0.000011
     26          1           0        3.876243    0.528327   -0.880423
     27          1           0        3.876105    0.529317    0.879650
     28          6           0        5.411159   -0.715086    0.000452
     29          1           0        5.531063   -1.361786    0.879857
     30          1           0        5.531123   -1.362971   -0.878072
     31          6           0        6.512498    0.359015   -0.000220
     32          1           0        6.435884    1.002386    0.883324
     33          1           0        6.436376    1.000784   -0.884971
     34          1           0       -7.355221   -0.642634    0.000537
     35          1           0        7.509268   -0.093499    0.000467
     36          1           0        0.644725   -2.705812   -0.000565
     37          6           0       -0.816500    3.702760    0.000321
 ---------------------------------------------------------------------
 Rotational constants (GHZ):      1.2319937      0.1784131      0.1570506
 Leave Link  202 at Fri May 10 15:44:19 2024, MaxMem=    33554432 cpu:         0.1
 (Enter /hits/basement/its/doserbd/software/gaussian/g09d1/g09/l301.exe)
 Standard basis: 6-31+G (6D, 7F)
 Ernie: Thresh=  0.10000D-02 Tol=  0.10000D-05 Strict=F.
 There are   250 symmetry adapted cartesian basis functions of A   symmetry.
 There are   250 symmetry adapted basis functions of A   symmetry.
   250 basis functions,   500 primitive gaussians,   250 cartesian basis functions
    59 alpha electrons       58 beta electrons
       nuclear repulsion energy       968.7537518460 Hartrees.
 IExCor= 3226 DFT=T Ex+Corr=BMK ExCW=0 ScaHFX=  0.420000
 ScaDFX=  1.000000  1.000000  1.000000  1.000000 ScalE2=  1.000000  1.000000
 IRadAn=      0 IRanWt=     -1 IRanGd=            0 ICorTp=0 IEmpDi=  4
 NAtoms=   37 NActive=   37 NUniq=   37 SFac= 1.00D+00 NAtFMM=   60 NAOKFM=F Big=F
 Integral buffers will be    131072 words long.
 Raffenetti 2 integral format.
 Two-electron integral symmetry is turned on.
 Leave Link  301 at Fri May 10 15:44:20 2024, MaxMem=    33554432 cpu:         0.3
 (Enter /hits/basement/its/doserbd/software/gaussian/g09d1/g09/l302.exe)
 NPDir=0 NMtPBC=     1 NCelOv=     1 NCel=       1 NClECP=     1 NCelD=      1
         NCelK=      1 NCelE2=     1 NClLst=     1 CellRange=     0.0.
 One-electron integrals computed using PRISM.
 NBasis=   250 RedAO= T EigKep=  1.41D-06  NBF=   250
 NBsUse=   246 1.00D-06 EigRej=  3.87D-07 NBFU=   246
 Precomputing XC quadrature grid using
 IXCGrd= 4 IRadAn=           0 IRanWt=          -1 IRanGd=           0 AccXCQ= 0.00D+00.
 Generated NRdTot=       0 NPtTot=           0 NUsed=           0 NTot=          32
 NSgBfM=   244   244   244   244   244 MxSgAt=    37 MxSgA2=    37.
 Leave Link  302 at Fri May 10 15:44:20 2024, MaxMem=    33554432 cpu:         1.8
 (Enter /hits/basement/its/doserbd/software/gaussian/g09d1/g09/l303.exe)
 DipDrv:  MaxL=1.
 Leave Link  303 at Fri May 10 15:44:20 2024, MaxMem=    33554432 cpu:         0.2
 (Enter /hits/basement/its/doserbd/software/gaussian/g09d1/g09/l401.exe)
 ExpMin= 4.38D-02 ExpMax= 3.05D+03 ExpMxC= 4.57D+02 IAcc=2 IRadAn=         4 AccDes= 0.00D+00
 Harris functional with IExCor= 1009 and IRadAn=       4 diagonalized for initial guess.
 HarFok:  IExCor= 1009 AccDes= 0.00D+00 IRadAn=         4 IDoV= 1 UseB2=F ITyADJ=14
 ICtDFT=  3500011 ScaDFX=  1.000000  1.000000  1.000000  1.000000
 FoFCou: FMM=F IPFlag=           0 FMFlag=      100000 FMFlg1=           0
         NFxFlg=           0 DoJE=T BraDBF=F KetDBF=T FulRan=T
         wScrn=  0.000000 ICntrl=     500 IOpCl=  0 I1Cent=   200000004 NGrid=           0
         NMat0=    1 NMatS0=      1 NMatT0=    0 NMatD0=    1 NMtDS0=    0 NMtDT0=    0
 Petite list used in FoFCou.
 Harris En= -621.521805467834    
 JPrj=0 DoOrth=F DoCkMO=F.
 Initial guess <Sx>= 0.0000 <Sy>= 0.0000 <Sz>= 0.5000 <S**2>= 0.7500 S= 0.5000
 Leave Link  401 at Fri May 10 15:44:21 2024, MaxMem=    33554432 cpu:         6.3
 (Enter /hits/basement/its/doserbd/software/gaussian/g09d1/g09/l502.exe)
 UHF open shell SCF:
 Using DIIS extrapolation, IDIIS=  1040.
 Integral symmetry usage will be decided dynamically.
 IVT=      209980 IEndB=      209980 NGot=    33554432 MDV=    33423843
 LenX=    33423843 LenY=    33360902
 Requested convergence on RMS density matrix=1.00D-08 within 128 cycles.
 Requested convergence on MAX density matrix=1.00D-06.
 Requested convergence on             energy=1.00D-06.
 No special actions if energy rises.
 Fock matrices will be formed incrementally for  20 cycles.

 Cycle   1  Pass 1  IDiag  1:
 FoFJK:  IHMeth= 1 ICntrl=       0 DoSepK=F KAlg= 0 I1Cent=   0 FoldK=F
 IRaf= 780000000 NMat=   1 IRICut=       1 DoRegI=T DoRafI=F ISym2E= 0.
 FoFCou: FMM=F IPFlag=           0 FMFlag=      100000 FMFlg1=           0
         NFxFlg=           0 DoJE=F BraDBF=F KetDBF=F FulRan=T
         wScrn=  0.000000 ICntrl=       0 IOpCl=  1 I1Cent=           0 NGrid=           0
         NMat0=    1 NMatS0=      1 NMatT0=    0 NMatD0=    1 NMtDS0=    0 NMtDT0=    0
 Symmetry not used in FoFCou.
 E= -621.246347072572    
 DIIS: error= 4.25D-02 at cycle   1 NSaved=   1.
 NSaved= 1 IEnMin= 1 EnMin= -621.246347072572     IErMin= 1 ErrMin= 4.25D-02
 ErrMax= 4.25D-02  0.00D+00 EMaxC= 1.00D-01 BMatC= 1.24D+00 BMatP= 1.24D+00
 IDIUse=3 WtCom= 5.75D-01 WtEn= 4.25D-01
 Coeff-Com:  0.100D+01
 Coeff-En:   0.100D+01
 Coeff:      0.100D+01
 Gap=     0.224 Goal=   None    Shift=    0.000
 Gap=     0.155 Goal=   None    Shift=    0.000
 GapD=    0.155 DampG=1.000 DampE=0.500 DampFc=0.5000 IDamp=-1.
 Damping current iteration by 5.00D-01
 RMSDP=1.00D-01 MaxDP=2.95D+00              OVMax= 2.47D-01

 Cycle   2  Pass 1  IDiag  1:
 RMSU=  4.99D-02    CP:  1.03D+00
 E= -621.438814146318     Delta-E=       -0.192467073746 Rises=F Damp=T
 DIIS: error= 6.61D-03 at cycle   2 NSaved=   2.
 NSaved= 2 IEnMin= 2 EnMin= -621.438814146318     IErMin= 2 ErrMin= 6.61D-03
 ErrMax= 6.61D-03  0.00D+00 EMaxC= 1.00D-01 BMatC= 4.84D-02 BMatP= 1.24D+00
 IDIUse=3 WtCom= 9.34D-01 WtEn= 6.61D-02
 Coeff-Com: -0.615D-01 0.106D+01
 Coeff-En:   0.000D+00 0.100D+01
 Coeff:     -0.574D-01 0.106D+01
 Gap=     0.278 Goal=   None    Shift=    0.000
 Gap=     0.150 Goal=   None    Shift=    0.000
 RMSDP=3.39D-02 MaxDP=1.40D+00 DE=-1.92D-01 OVMax= 9.73D-02

 Cycle   3  Pass 1  IDiag  1:
 RMSU=  3.32D-02    CP:  1.06D+00  1.12D+00
 E= -621.615291549219     Delta-E=       -0.176477402900 Rises=F Damp=F
 DIIS: error= 4.65D-03 at cycle   3 NSaved=   3.
 NSaved= 3 IEnMin= 3 EnMin= -621.615291549219     IErMin= 3 ErrMin= 4.65D-03
 ErrMax= 4.65D-03  0.00D+00 EMaxC= 1.00D-01 BMatC= 1.91D-02 BMatP= 4.84D-02
 IDIUse=3 WtCom= 9.54D-01 WtEn= 4.65D-02
 Coeff-Com: -0.345D-01 0.397D+00 0.637D+00
 Coeff-En:   0.000D+00 0.000D+00 0.100D+01
 Coeff:     -0.329D-01 0.379D+00 0.654D+00
 Gap=     0.232 Goal=   None    Shift=    0.000
 Gap=     0.130 Goal=   None    Shift=    0.000
 RMSDP=4.38D-03 MaxDP=1.65D-01 DE=-1.76D-01 OVMax= 5.47D-02

 Cycle   4  Pass 1  IDiag  1:
 RMSU=  4.24D-03    CP:  1.06D+00  1.14D+00  9.78D-01
 E= -621.619318023834     Delta-E=       -0.004026474615 Rises=F Damp=F
 DIIS: error= 4.41D-03 at cycle   4 NSaved=   4.
 NSaved= 4 IEnMin= 4 EnMin= -621.619318023834     IErMin= 4 ErrMin= 4.41D-03
 ErrMax= 4.41D-03  0.00D+00 EMaxC= 1.00D-01 BMatC= 8.21D-03 BMatP= 1.91D-02
 IDIUse=3 WtCom= 9.56D-01 WtEn= 4.41D-02
 Coeff-Com: -0.224D-02 0.381D-01 0.393D+00 0.571D+00
 Coeff-En:   0.000D+00 0.000D+00 0.271D+00 0.729D+00
 Coeff:     -0.214D-02 0.364D-01 0.388D+00 0.578D+00
 Gap=     0.236 Goal=   None    Shift=    0.000
 Gap=     0.146 Goal=   None    Shift=    0.000
 RMSDP=3.48D-03 MaxDP=1.44D-01 DE=-4.03D-03 OVMax= 2.36D-02

 Cycle   5  Pass 1  IDiag  1:
 RMSU=  2.65D-03    CP:  1.05D+00  1.12D+00  9.27D-01  8.69D-01
 E= -621.621847729292     Delta-E=       -0.002529705458 Rises=F Damp=F
 DIIS: error= 9.99D-04 at cycle   5 NSaved=   5.
 NSaved= 5 IEnMin= 5 EnMin= -621.621847729292     IErMin= 5 ErrMin= 9.99D-04
 ErrMax= 9.99D-04  0.00D+00 EMaxC= 1.00D-01 BMatC= 7.66D-04 BMatP= 8.21D-03
 IDIUse=3 WtCom= 9.90D-01 WtEn= 9.99D-03
 Coeff-Com:  0.407D-02-0.194D-01 0.157D+00 0.310D+00 0.548D+00
 Coeff-En:   0.000D+00 0.000D+00 0.000D+00 0.000D+00 0.100D+01
 Coeff:      0.403D-02-0.192D-01 0.156D+00 0.306D+00 0.553D+00
 Gap=     0.236 Goal=   None    Shift=    0.000
 Gap=     0.141 Goal=   None    Shift=    0.000
 RMSDP=1.04D-03 MaxDP=6.58D-02 DE=-2.53D-03 OVMax= 8.39D-03

 Cycle   6  Pass 1  IDiag  1:
 RMSU=  7.76D-04    CP:  1.05D+00  1.12D+00  9.17D-01  9.14D-01  1.01D+00
 E= -621.622139184372     Delta-E=       -0.000291455080 Rises=F Damp=F
 DIIS: error= 5.44D-04 at cycle   6 NSaved=   6.
 NSaved= 6 IEnMin= 6 EnMin= -621.622139184372     IErMin= 6 ErrMin= 5.44D-04
 ErrMax= 5.44D-04  0.00D+00 EMaxC= 1.00D-01 BMatC= 8.05D-05 BMatP= 7.66D-04
 IDIUse=3 WtCom= 9.95D-01 WtEn= 5.44D-03
 Coeff-Com:  0.281D-02-0.122D-01-0.244D-01-0.429D-01 0.114D+00 0.963D+00
 Coeff-En:   0.000D+00 0.000D+00 0.000D+00 0.000D+00 0.000D+00 0.100D+01
 Coeff:      0.279D-02-0.121D-01-0.242D-01-0.427D-01 0.113D+00 0.963D+00
 Gap=     0.237 Goal=   None    Shift=    0.000
 Gap=     0.141 Goal=   None    Shift=    0.000
 RMSDP=1.25D-03 MaxDP=9.41D-02 DE=-2.91D-04 OVMax= 1.52D-02

 Cycle   7  Pass 1  IDiag  1:
 RMSU=  3.27D-04    CP:  1.04D+00  1.11D+00  9.01D-01  9.61D-01  1.12D+00
                    CP:  1.38D+00
 E= -621.622246376390     Delta-E=       -0.000107192018 Rises=F Damp=F
 DIIS: error= 5.43D-04 at cycle   7 NSaved=   7.
 NSaved= 7 IEnMin= 7 EnMin= -621.622246376390     IErMin= 7 ErrMin= 5.43D-04
 ErrMax= 5.43D-04  0.00D+00 EMaxC= 1.00D-01 BMatC= 6.76D-05 BMatP= 8.05D-05
 IDIUse=3 WtCom= 9.95D-01 WtEn= 5.43D-03
 Coeff-Com: -0.283D-04 0.501D-03-0.662D-01-0.148D+00-0.194D+00 0.590D+00
 Coeff-Com:  0.819D+00
 Coeff-En:   0.000D+00 0.000D+00 0.000D+00 0.000D+00 0.000D+00 0.000D+00
 Coeff-En:   0.100D+01
 Coeff:     -0.282D-04 0.498D-03-0.658D-01-0.147D+00-0.193D+00 0.586D+00
 Coeff:      0.820D+00
 Gap=     0.238 Goal=   None    Shift=    0.000
 Gap=     0.143 Goal=   None    Shift=    0.000
 RMSDP=7.39D-04 MaxDP=4.62D-02 DE=-1.07D-04 OVMax= 8.24D-03

 Cycle   8  Pass 1  IDiag  1:
 RMSU=  2.64D-04    CP:  1.04D+00  1.11D+00  8.87D-01  9.69D-01  1.22D+00
                    CP:  1.81D+00  9.98D-01
 E= -621.622297900421     Delta-E=       -0.000051524031 Rises=F Damp=F
 DIIS: error= 1.13D-04 at cycle   8 NSaved=   8.
 NSaved= 8 IEnMin= 8 EnMin= -621.622297900421     IErMin= 8 ErrMin= 1.13D-04
 ErrMax= 1.13D-04  0.00D+00 EMaxC= 1.00D-01 BMatC= 4.70D-06 BMatP= 6.76D-05
 IDIUse=3 WtCom= 9.99D-01 WtEn= 1.13D-03
 Coeff-Com: -0.714D-03 0.320D-02-0.720D-02-0.284D-01-0.744D-01-0.354D-01
 Coeff-Com:  0.125D+00 0.102D+01
 Coeff-En:   0.000D+00 0.000D+00 0.000D+00 0.000D+00 0.000D+00 0.000D+00
 Coeff-En:   0.000D+00 0.100D+01
 Coeff:     -0.713D-03 0.319D-02-0.719D-02-0.284D-01-0.743D-01-0.354D-01
 Coeff:      0.125D+00 0.102D+01
 Gap=     0.238 Goal=   None    Shift=    0.000
 Gap=     0.144 Goal=   None    Shift=    0.000
 RMSDP=1.95D-04 MaxDP=7.33D-03 DE=-5.15D-05 OVMax= 4.47D-03

 Cycle   9  Pass 1  IDiag  1:
 RMSU=  7.91D-05    CP:  1.04D+00  1.11D+00  8.84D-01  9.55D-01  1.22D+00
                    CP:  1.92D+00  1.01D+00  1.41D+00
 E= -621.622303772175     Delta-E=       -0.000005871754 Rises=F Damp=F
 DIIS: error= 1.09D-04 at cycle   9 NSaved=   9.
 NSaved= 9 IEnMin= 9 EnMin= -621.622303772175     IErMin= 9 ErrMin= 1.09D-04
 ErrMax= 1.09D-04  0.00D+00 EMaxC= 1.00D-01 BMatC= 2.23D-06 BMatP= 4.70D-06
 IDIUse=3 WtCom= 9.99D-01 WtEn= 1.09D-03
 Coeff-Com: -0.318D-03 0.133D-02 0.125D-01 0.199D-01 0.114D-01-0.136D+00
 Coeff-Com: -0.122D+00 0.546D+00 0.668D+00
 Coeff-En:   0.000D+00 0.000D+00 0.000D+00 0.000D+00 0.000D+00 0.000D+00
 Coeff-En:   0.000D+00 0.000D+00 0.100D+01
 Coeff:     -0.318D-03 0.133D-02 0.125D-01 0.199D-01 0.113D-01-0.136D+00
 Coeff:     -0.122D+00 0.545D+00 0.669D+00
 Gap=     0.238 Goal=   None    Shift=    0.000
 Gap=     0.144 Goal=   None    Shift=    0.000
 RMSDP=4.78D-05 MaxDP=2.11D-03 DE=-5.87D-06 OVMax= 8.86D-04

 Cycle  10  Pass 1  IDiag  1:
 RMSU=  2.71D-05    CP:  1.04D+00  1.11D+00  8.84D-01  9.51D-01  1.21D+00
                    CP:  1.94D+00  9.92D-01  1.46D+00  9.19D-01
 E= -621.622304967248     Delta-E=       -0.000001195073 Rises=F Damp=F
 DIIS: error= 2.32D-05 at cycle  10 NSaved=  10.
 NSaved=10 IEnMin=10 EnMin= -621.622304967248     IErMin=10 ErrMin= 2.32D-05
 ErrMax= 2.32D-05  0.00D+00 EMaxC= 1.00D-01 BMatC= 2.13D-07 BMatP= 2.23D-06
 IDIUse=1 WtCom= 1.00D+00 WtEn= 0.00D+00
 Coeff-Com:  0.149D-03-0.608D-03 0.324D-02 0.951D-02 0.220D-01-0.197D-01
 Coeff-Com: -0.519D-01-0.149D+00 0.146D-01 0.117D+01
 Coeff:      0.149D-03-0.608D-03 0.324D-02 0.951D-02 0.220D-01-0.197D-01
 Coeff:     -0.519D-01-0.149D+00 0.146D-01 0.117D+01
 Gap=     0.238 Goal=   None    Shift=    0.000
 Gap=     0.144 Goal=   None    Shift=    0.000
 RMSDP=4.46D-05 MaxDP=3.49D-03 DE=-1.20D-06 OVMax= 7.73D-04

 Cycle  11  Pass 1  IDiag  1:
 RMSU=  1.69D-05    CP:  1.04D+00  1.11D+00  8.84D-01  9.48D-01  1.20D+00
                    CP:  1.94D+00  9.78D-01  1.48D+00  9.28D-01  1.39D+00
 E= -621.622305314726     Delta-E=       -0.000000347479 Rises=F Damp=F
 DIIS: error= 1.47D-05 at cycle  11 NSaved=  11.
 NSaved=11 IEnMin=11 EnMin= -621.622305314726     IErMin=11 ErrMin= 1.47D-05
 ErrMax= 1.47D-05  0.00D+00 EMaxC= 1.00D-01 BMatC= 7.43D-08 BMatP= 2.13D-07
 IDIUse=1 WtCom= 1.00D+00 WtEn= 0.00D+00
 Coeff-Com:  0.122D-03-0.476D-03-0.124D-02-0.132D-03 0.695D-02 0.170D-01
 Coeff-Com:  0.678D-02-0.152D+00-0.138D+00 0.466D+00 0.795D+00
 Coeff:      0.122D-03-0.476D-03-0.124D-02-0.132D-03 0.695D-02 0.170D-01
 Coeff:      0.678D-02-0.152D+00-0.138D+00 0.466D+00 0.795D+00
 Gap=     0.238 Goal=   None    Shift=    0.000
 Gap=     0.144 Goal=   None    Shift=    0.000
 RMSDP=1.29D-05 MaxDP=3.55D-04 DE=-3.47D-07 OVMax= 2.14D-04

 Cycle  12  Pass 1  IDiag  1:
 RMSU=  5.91D-06    CP:  1.04D+00  1.11D+00  8.84D-01  9.49D-01  1.20D+00
                    CP:  1.93D+00  9.81D-01  1.47D+00  8.78D-01  1.50D+00
                    CP:  1.25D+00
 E= -621.622305380211     Delta-E=       -0.000000065485 Rises=F Damp=F
 DIIS: error= 6.10D-06 at cycle  12 NSaved=  12.
 NSaved=12 IEnMin=12 EnMin= -621.622305380211     IErMin=12 ErrMin= 6.10D-06
 ErrMax= 6.10D-06  0.00D+00 EMaxC= 1.00D-01 BMatC= 1.07D-08 BMatP= 7.43D-08
 IDIUse=1 WtCom= 1.00D+00 WtEn= 0.00D+00
 Coeff-Com: -0.194D-04 0.708D-04-0.954D-03-0.203D-02-0.379D-02 0.437D-02
 Coeff-Com:  0.150D-01 0.135D-01-0.375D-01-0.199D+00 0.134D+00 0.108D+01
 Coeff:     -0.194D-04 0.708D-04-0.954D-03-0.203D-02-0.379D-02 0.437D-02
 Coeff:      0.150D-01 0.135D-01-0.375D-01-0.199D+00 0.134D+00 0.108D+01
 Gap=     0.238 Goal=   None    Shift=    0.000
 Gap=     0.144 Goal=   None    Shift=    0.000
 RMSDP=1.25D-05 MaxDP=9.25D-04 DE=-6.55D-08 OVMax= 1.42D-04

 Cycle  13  Pass 1  IDiag  1:
 RMSU=  4.78D-06    CP:  1.04D+00  1.11D+00  8.84D-01  9.49D-01  1.20D+00
                    CP:  1.93D+00  9.91D-01  1.46D+00  8.68D-01  1.52D+00
                    CP:  1.40D+00  1.64D+00
 E= -621.622305397012     Delta-E=       -0.000000016800 Rises=F Damp=F
 DIIS: error= 2.40D-06 at cycle  13 NSaved=  13.
 NSaved=13 IEnMin=13 EnMin= -621.622305397012     IErMin=13 ErrMin= 2.40D-06
 ErrMax= 2.40D-06  0.00D+00 EMaxC= 1.00D-01 BMatC= 1.83D-09 BMatP= 1.07D-08
 IDIUse=1 WtCom= 1.00D+00 WtEn= 0.00D+00
 Coeff-Com: -0.199D-04 0.675D-04-0.385D-04-0.307D-03-0.145D-02-0.193D-02
 Coeff-Com:  0.253D-02 0.202D-01 0.387D-02-0.824D-01-0.717D-01 0.213D+00
 Coeff-Com:  0.918D+00
 Coeff:     -0.199D-04 0.675D-04-0.385D-04-0.307D-03-0.145D-02-0.193D-02
 Coeff:      0.253D-02 0.202D-01 0.387D-02-0.824D-01-0.717D-01 0.213D+00
 Coeff:      0.918D+00
 Gap=     0.238 Goal=   None    Shift=    0.000
 Gap=     0.144 Goal=   None    Shift=    0.000
 RMSDP=4.60D-06 MaxDP=3.49D-04 DE=-1.68D-08 OVMax= 5.57D-05

 Cycle  14  Pass 1  IDiag  1:
 RMSU=  1.49D-06    CP:  1.04D+00  1.11D+00  8.84D-01  9.50D-01  1.20D+00
                    CP:  1.94D+00  9.93D-01  1.46D+00  8.62D-01  1.51D+00
                    CP:  1.43D+00  1.97D+00  1.25D+00
 E= -621.622305399304     Delta-E=       -0.000000002292 Rises=F Damp=F
 DIIS: error= 1.97D-06 at cycle  14 NSaved=  14.
 NSaved=14 IEnMin=14 EnMin= -621.622305399304     IErMin=14 ErrMin= 1.97D-06
 ErrMax= 1.97D-06  0.00D+00 EMaxC= 1.00D-01 BMatC= 1.06D-09 BMatP= 1.83D-09
 IDIUse=1 WtCom= 1.00D+00 WtEn= 0.00D+00
 Coeff-Com: -0.729D-05 0.237D-04 0.272D-03 0.460D-03 0.353D-03-0.289D-02
 Coeff-Com: -0.299D-02 0.784D-02 0.126D-01 0.149D-01-0.861D-01-0.212D+00
 Coeff-Com:  0.535D+00 0.732D+00
 Coeff:     -0.729D-05 0.237D-04 0.272D-03 0.460D-03 0.353D-03-0.289D-02
 Coeff:     -0.299D-02 0.784D-02 0.126D-01 0.149D-01-0.861D-01-0.212D+00
 Coeff:      0.535D+00 0.732D+00
 Gap=     0.238 Goal=   None    Shift=    0.000
 Gap=     0.144 Goal=   None    Shift=    0.000
 RMSDP=2.51D-06 MaxDP=1.54D-04 DE=-2.29D-09 OVMax= 2.39D-05

 Cycle  15  Pass 1  IDiag  1:
 RMSU=  9.53D-07    CP:  1.04D+00  1.11D+00  8.84D-01  9.50D-01  1.20D+00
                    CP:  1.94D+00  9.96D-01  1.46D+00  8.59D-01  1.51D+00
                    CP:  1.48D+00  2.09D+00  1.48D+00  1.14D+00
 E= -621.622305400240     Delta-E=       -0.000000000937 Rises=F Damp=F
 DIIS: error= 8.25D-07 at cycle  15 NSaved=  15.
 NSaved=15 IEnMin=15 EnMin= -621.622305400240     IErMin=15 ErrMin= 8.25D-07
 ErrMax= 8.25D-07  0.00D+00 EMaxC= 1.00D-01 BMatC= 1.64D-10 BMatP= 1.06D-09
 IDIUse=1 WtCom= 1.00D+00 WtEn= 0.00D+00
 Coeff-Com:  0.411D-05-0.172D-04 0.376D-04 0.159D-03 0.559D-03-0.592D-04
 Coeff-Com: -0.787D-03-0.525D-02-0.631D-03 0.281D-01 0.120D-01-0.908D-01
 Coeff-Com: -0.189D+00 0.122D+00 0.112D+01
 Coeff:      0.411D-05-0.172D-04 0.376D-04 0.159D-03 0.559D-03-0.592D-04
 Coeff:     -0.787D-03-0.525D-02-0.631D-03 0.281D-01 0.120D-01-0.908D-01
 Coeff:     -0.189D+00 0.122D+00 0.112D+01
 Gap=     0.238 Goal=   None    Shift=    0.000
 Gap=     0.144 Goal=   None    Shift=    0.000
 RMSDP=1.55D-06 MaxDP=1.18D-04 DE=-9.37D-10 OVMax= 1.72D-05

 Cycle  16  Pass 1  IDiag  1:
 RMSU=  5.75D-07    CP:  1.04D+00  1.11D+00  8.84D-01  9.50D-01  1.20D+00
                    CP:  1.94D+00  9.96D-01  1.46D+00  8.63D-01  1.51D+00
                    CP:  1.49D+00  2.20D+00  1.55D+00  1.35D+00  9.44D-01
 E= -621.622305400512     Delta-E=       -0.000000000271 Rises=F Damp=F
 DIIS: error= 3.19D-07 at cycle  16 NSaved=  16.
 NSaved=16 IEnMin=16 EnMin= -621.622305400512     IErMin=16 ErrMin= 3.19D-07
 ErrMax= 3.19D-07  0.00D+00 EMaxC= 1.00D-01 BMatC= 3.53D-11 BMatP= 1.64D-10
 IDIUse=1 WtCom= 1.00D+00 WtEn= 0.00D+00
 Coeff-Com:  0.217D-05-0.841D-05-0.413D-04-0.319D-04 0.112D-03 0.382D-03
 Coeff-Com:  0.385D-03-0.283D-02-0.267D-02 0.590D-02 0.187D-01 0.112D-01
 Coeff-Com: -0.154D+00-0.941D-01 0.293D+00 0.924D+00
 Coeff:      0.217D-05-0.841D-05-0.413D-04-0.319D-04 0.112D-03 0.382D-03
 Coeff:      0.385D-03-0.283D-02-0.267D-02 0.590D-02 0.187D-01 0.112D-01
 Coeff:     -0.154D+00-0.941D-01 0.293D+00 0.924D+00
 Gap=     0.238 Goal=   None    Shift=    0.000
 Gap=     0.144 Goal=   None    Shift=    0.000
 RMSDP=5.50D-07 MaxDP=4.27D-05 DE=-2.71D-10 OVMax= 9.33D-06

 Cycle  17  Pass 1  IDiag  1:
 RMSU=  1.47D-07    CP:  1.04D+00  1.11D+00  8.84D-01  9.50D-01  1.20D+00
                    CP:  1.94D+00  9.97D-01  1.46D+00  8.64D-01  1.51D+00
                    CP:  1.50D+00  2.21D+00  1.56D+00  1.37D+00  1.07D+00
                    CP:  1.15D+00
 E= -621.622305400569     Delta-E=       -0.000000000057 Rises=F Damp=F
 DIIS: error= 1.81D-07 at cycle  17 NSaved=  17.
 NSaved=17 IEnMin=17 EnMin= -621.622305400569     IErMin=17 ErrMin= 1.81D-07
 ErrMax= 1.81D-07  0.00D+00 EMaxC= 1.00D-01 BMatC= 1.34D-11 BMatP= 3.53D-11
 IDIUse=1 WtCom= 1.00D+00 WtEn= 0.00D+00
 Coeff-Com: -0.714D-06 0.246D-05-0.332D-04-0.683D-04-0.144D-03 0.143D-03
 Coeff-Com:  0.541D-03 0.694D-03-0.121D-02-0.694D-02 0.325D-02 0.370D-01
 Coeff-Com:  0.546D-02-0.655D-01-0.281D+00 0.366D+00 0.941D+00
 Coeff:     -0.714D-06 0.246D-05-0.332D-04-0.683D-04-0.144D-03 0.143D-03
 Coeff:      0.541D-03 0.694D-03-0.121D-02-0.694D-02 0.325D-02 0.370D-01
 Coeff:      0.546D-02-0.655D-01-0.281D+00 0.366D+00 0.941D+00
 Gap=     0.238 Goal=   None    Shift=    0.000
 Gap=     0.144 Goal=   None    Shift=    0.000
 RMSDP=2.85D-07 MaxDP=1.51D-05 DE=-5.71D-11 OVMax= 6.80D-06

 Cycle  18  Pass 1  IDiag  1:
 RMSU=  6.83D-08    CP:  1.04D+00  1.11D+00  8.84D-01  9.50D-01  1.20D+00
                    CP:  1.94D+00  9.96D-01  1.46D+00  8.63D-01  1.51D+00
                    CP:  1.50D+00  2.21D+00  1.55D+00  1.37D+00  1.06D+00
                    CP:  1.24D+00  1.24D+00
 E= -621.622305400591     Delta-E=       -0.000000000022 Rises=F Damp=F
 DIIS: error= 5.67D-08 at cycle  18 NSaved=  18.
 NSaved=18 IEnMin=18 EnMin= -621.622305400591     IErMin=18 ErrMin= 5.67D-08
 ErrMax= 5.67D-08  0.00D+00 EMaxC= 1.00D-01 BMatC= 1.30D-12 BMatP= 1.34D-11
 IDIUse=1 WtCom= 1.00D+00 WtEn= 0.00D+00
 Coeff-Com: -0.490D-06 0.177D-05 0.880D-05 0.107D-04-0.145D-04-0.120D-03
 Coeff-Com: -0.418D-04 0.548D-03 0.442D-03-0.718D-03-0.417D-02-0.257D-02
 Coeff-Com:  0.289D-01 0.250D-01-0.653D-01-0.152D+00-0.479D-01 0.122D+01
 Coeff:     -0.490D-06 0.177D-05 0.880D-05 0.107D-04-0.145D-04-0.120D-03
 Coeff:     -0.418D-04 0.548D-03 0.442D-03-0.718D-03-0.417D-02-0.257D-02
 Coeff:      0.289D-01 0.250D-01-0.653D-01-0.152D+00-0.479D-01 0.122D+01
 Gap=     0.238 Goal=   None    Shift=    0.000
 Gap=     0.144 Goal=   None    Shift=    0.000
 RMSDP=1.49D-07 MaxDP=1.07D-05 DE=-2.21D-11 OVMax= 2.94D-06

 Cycle  19  Pass 1  IDiag  1:
 RMSU=  4.41D-08    CP:  1.04D+00  1.11D+00  8.84D-01  9.50D-01  1.20D+00
                    CP:  1.94D+00  9.96D-01  1.46D+00  8.63D-01  1.51D+00
                    CP:  1.50D+00  2.21D+00  1.55D+00  1.37D+00  1.02D+00
                    CP:  1.23D+00  1.17D+00  1.40D+00
 E= -621.622305400590     Delta-E=        0.000000000001 Rises=F Damp=F
 DIIS: error= 2.74D-08 at cycle  19 NSaved=  19.
 NSaved=19 IEnMin=18 EnMin= -621.622305400591     IErMin=19 ErrMin= 2.74D-08
 ErrMax= 2.74D-08  0.00D+00 EMaxC= 1.00D-01 BMatC= 2.17D-13 BMatP= 1.30D-12
 IDIUse=1 WtCom= 1.00D+00 WtEn= 0.00D+00
 Coeff-Com: -0.857D-07 0.331D-06 0.621D-05 0.107D-04 0.118D-04-0.542D-04
 Coeff-Com: -0.699D-04 0.862D-04 0.241D-03 0.603D-03-0.154D-02-0.456D-02
 Coeff-Com:  0.750D-02 0.148D-01 0.121D-01-0.850D-01-0.126D+00 0.346D+00
 Coeff-Com:  0.836D+00
 Coeff:     -0.857D-07 0.331D-06 0.621D-05 0.107D-04 0.118D-04-0.542D-04
 Coeff:     -0.699D-04 0.862D-04 0.241D-03 0.603D-03-0.154D-02-0.456D-02
 Coeff:      0.750D-02 0.148D-01 0.121D-01-0.850D-01-0.126D+00 0.346D+00
 Coeff:      0.836D+00
 Gap=     0.238 Goal=   None    Shift=    0.000
 Gap=     0.144 Goal=   None    Shift=    0.000
 RMSDP=4.52D-08 MaxDP=3.30D-06 DE= 1.14D-12 OVMax= 6.13D-07

 Cycle  20  Pass 1  IDiag  1:
 RMSU=  1.33D-08    CP:  1.04D+00  1.11D+00  8.84D-01  9.50D-01  1.20D+00
                    CP:  1.94D+00  9.96D-01  1.46D+00  8.63D-01  1.51D+00
                    CP:  1.50D+00  2.21D+00  1.55D+00  1.37D+00  1.02D+00
                    CP:  1.21D+00  1.16D+00  1.49D+00  1.14D+00
 E= -621.622305400581     Delta-E=        0.000000000008 Rises=F Damp=F
 DIIS: error= 1.15D-08 at cycle  20 NSaved=  20.
 NSaved=20 IEnMin=18 EnMin= -621.622305400591     IErMin=20 ErrMin= 1.15D-08
 ErrMax= 1.15D-08  0.00D+00 EMaxC= 1.00D-01 BMatC= 6.15D-14 BMatP= 2.17D-13
 IDIUse=1 WtCom= 1.00D+00 WtEn= 0.00D+00
 Coeff-Com:  0.936D-07-0.346D-06-0.227D-06 0.902D-06 0.805D-05 0.130D-04
 Coeff-Com: -0.149D-04-0.119D-03-0.416D-04 0.412D-03 0.545D-03-0.102D-02
 Coeff-Com: -0.545D-02-0.166D-02 0.225D-01 0.126D-01-0.307D-01-0.222D+00
 Coeff-Com:  0.346D+00 0.878D+00
 Coeff:      0.936D-07-0.346D-06-0.227D-06 0.902D-06 0.805D-05 0.130D-04
 Coeff:     -0.149D-04-0.119D-03-0.416D-04 0.412D-03 0.545D-03-0.102D-02
 Coeff:     -0.545D-02-0.166D-02 0.225D-01 0.126D-01-0.307D-01-0.222D+00
 Coeff:      0.346D+00 0.878D+00
 Gap=     0.238 Goal=   None    Shift=    0.000
 Gap=     0.144 Goal=   None    Shift=    0.000
 RMSDP=1.91D-08 MaxDP=1.09D-06 DE= 8.41D-12 OVMax= 2.69D-07

 Cycle  21  Pass 1  IDiag  1:
 Restarting incremental Fock formation.
 E= -621.622305400482     Delta-E=        0.000000000099 Rises=F Damp=F
 DIIS: error= 3.41D-09 at cycle  21 NSaved=  20.
 NSaved=20 IEnMin=17 EnMin= -621.622305400591     IErMin=20 ErrMin= 3.41D-09
 ErrMax= 3.41D-09  0.00D+00 EMaxC= 1.00D-01 BMatC= 9.33D-15 BMatP= 6.15D-14
 IDIUse=1 WtCom= 1.00D+00 WtEn= 0.00D+00
 Coeff-Com: -0.978D-08-0.444D-06-0.618D-06-0.283D-06 0.447D-05 0.215D-05
 Coeff-Com: -0.156D-04-0.193D-04-0.100D-05 0.184D-03 0.179D-03-0.140D-02
 Coeff-Com: -0.142D-02 0.335D-02 0.835D-02 0.317D-02-0.817D-01 0.241D-01
 Coeff-Com:  0.222D+00 0.823D+00
 Coeff:     -0.978D-08-0.444D-06-0.618D-06-0.283D-06 0.447D-05 0.215D-05
 Coeff:     -0.156D-04-0.193D-04-0.100D-05 0.184D-03 0.179D-03-0.140D-02
 Coeff:     -0.142D-02 0.335D-02 0.835D-02 0.317D-02-0.817D-01 0.241D-01
 Coeff:      0.222D+00 0.823D+00
 Gap=     0.238 Goal=   None    Shift=    0.000
 Gap=     0.144 Goal=   None    Shift=    0.000
 RMSDP=2.96D-07 MaxDP=1.05D-05 DE= 9.89D-11 OVMax= 6.12D-08

 Cycle  22  Pass 1  IDiag  1:
 RMSU=  2.64D-07    CP:  1.00D+00
 E= -621.622305400490     Delta-E=       -0.000000000007 Rises=F Damp=F
 DIIS: error= 1.89D-09 at cycle  22 NSaved=  20.
 NSaved=20 IEnMin=16 EnMin= -621.622305400591     IErMin=20 ErrMin= 1.89D-09
 ErrMax= 1.89D-09  0.00D+00 EMaxC= 1.00D-01 BMatC= 1.85D-15 BMatP= 9.33D-15
 IDIUse=1 WtCom= 1.00D+00 WtEn= 0.00D+00
 Large coefficients: NSaved= 20 BigCof=    0.00 CofMax=   10.00 Det=-5.45D-15
 Inversion failed.  Reducing to 19 matrices.
 Large coefficients: NSaved= 19 BigCof=    0.00 CofMax=   10.00 Det=-5.52D-15
 Inversion failed.  Reducing to 18 matrices.
 Large coefficients: NSaved= 18 BigCof=    0.00 CofMax=   10.00 Det=-5.54D-15
 Inversion failed.  Reducing to 17 matrices.
 Large coefficients: NSaved= 17 BigCof=    0.00 CofMax=   10.00 Det=-5.60D-15
 Inversion failed.  Reducing to 16 matrices.
 Large coefficients: NSaved= 16 BigCof=    0.00 CofMax=   10.00 Det=-5.60D-15
 Inversion failed.  Reducing to 15 matrices.
 Coeff-Com:  0.346D-05 0.148D-05-0.551D-05-0.239D-04-0.264D-04 0.136D-03
 Coeff-Com: -0.129D-03-0.968D-03 0.478D-03 0.334D-02 0.295D-02-0.516D-01
 Coeff-Com: -0.782D-01-0.632D-01 0.119D+01
 Coeff:      0.346D-05 0.148D-05-0.551D-05-0.239D-04-0.264D-04 0.136D-03
 Coeff:     -0.129D-03-0.968D-03 0.478D-03 0.334D-02 0.295D-02-0.516D-01
 Coeff:     -0.782D-01-0.632D-01 0.119D+01
 Gap=     0.238 Goal=   None    Shift=    0.000
 Gap=     0.144 Goal=   None    Shift=    0.000
 RMSDP=1.26D-07 MaxDP=4.38D-06 DE=-7.28D-12 OVMax= 5.92D-08

 Cycle  23  Pass 1  IDiag  1:
 RMSU=  3.76D-09    CP:  1.00D+00  1.43D+00
 E= -621.622305400479     Delta-E=        0.000000000011 Rises=F Damp=F
 DIIS: error= 9.88D-10 at cycle  23 NSaved=  16.
 NSaved=16 IEnMin=11 EnMin= -621.622305400591     IErMin=16 ErrMin= 9.88D-10
 ErrMax= 9.88D-10  0.00D+00 EMaxC= 1.00D-01 BMatC= 9.66D-16 BMatP= 1.85D-15
 IDIUse=1 WtCom= 1.00D+00 WtEn= 0.00D+00
 Large coefficients: NSaved= 16 BigCof=    0.00 CofMax=   10.00 Det=-1.68D-15
 Inversion failed.  Reducing to 15 matrices.
 Coeff-Com: -0.275D-05-0.150D-05-0.294D-05 0.338D-04 0.150D-03-0.917D-04
 Coeff-Com: -0.899D-03 0.350D-03 0.265D-02 0.521D-02-0.284D-01-0.512D-01
 Coeff-Com: -0.928D-01 0.554D+00 0.611D+00
 Coeff:     -0.275D-05-0.150D-05-0.294D-05 0.338D-04 0.150D-03-0.917D-04
 Coeff:     -0.899D-03 0.350D-03 0.265D-02 0.521D-02-0.284D-01-0.512D-01
 Coeff:     -0.928D-01 0.554D+00 0.611D+00
 Gap=     0.238 Goal=   None    Shift=    0.000
 Gap=     0.144 Goal=   None    Shift=    0.000
 RMSDP=1.51D-08 MaxDP=5.05D-07 DE= 1.07D-11 OVMax= 1.64D-08

 Cycle  24  Pass 1  IDiag  1:
 RMSU=  1.98D-09    CP:  1.00D+00  1.38D+00  1.25D+00
 E= -621.622305400442     Delta-E=        0.000000000038 Rises=F Damp=F
 DIIS: error= 5.40D-10 at cycle  24 NSaved=  16.
 NSaved=16 IEnMin=10 EnMin= -621.622305400591     IErMin=16 ErrMin= 5.40D-10
 ErrMax= 5.40D-10  0.00D+00 EMaxC= 1.00D-01 BMatC= 1.62D-16 BMatP= 9.66D-16
 IDIUse=1 WtCom= 1.00D+00 WtEn= 0.00D+00
 Large coefficients: NSaved= 16 BigCof=    0.00 CofMax=   10.00 Det=-2.11D-16
 Inversion failed.  Reducing to 15 matrices.
 Coeff-Com:  0.712D-05-0.254D-05-0.262D-04 0.194D-04 0.876D-04 0.231D-03
 Coeff-Com: -0.483D-03-0.740D-03 0.257D-02 0.479D-02-0.379D-02 0.106D+00
 Coeff-Com: -0.339D+00-0.159D+00 0.139D+01
 Coeff:      0.712D-05-0.254D-05-0.262D-04 0.194D-04 0.876D-04 0.231D-03
 Coeff:     -0.483D-03-0.740D-03 0.257D-02 0.479D-02-0.379D-02 0.106D+00
 Coeff:     -0.339D+00-0.159D+00 0.139D+01
 Gap=     0.238 Goal=   None    Shift=    0.000
 Gap=     0.144 Goal=   None    Shift=    0.000
 RMSDP=2.97D-08 MaxDP=1.00D-06 DE= 3.75D-11 OVMax= 2.76D-08

 Cycle  25  Pass 1  IDiag  1:
 RMSU=  2.75D-09    CP:  1.00D+00  1.28D+00  1.29D+00  1.36D+00
 E= -621.622305400437     Delta-E=        0.000000000005 Rises=F Damp=F
 DIIS: error= 5.67D-10 at cycle  25 NSaved=  16.
 NSaved=16 IEnMin= 9 EnMin= -621.622305400591     IErMin=15 ErrMin= 5.40D-10
 ErrMax= 5.67D-10  0.00D+00 EMaxC= 1.00D-01 BMatC= 1.43D-16 BMatP= 1.62D-16
 IDIUse=1 WtCom= 1.00D+00 WtEn= 0.00D+00
 Large coefficients: NSaved= 16 BigCof=    0.00 CofMax=   10.00 Det=-9.56D-17
 Inversion failed.  Reducing to 15 matrices.
 Coeff-Com:  0.211D-06-0.576D-05-0.294D-04 0.257D-04 0.283D-03-0.238D-03
 Coeff-Com: -0.854D-03-0.159D-02 0.124D-01 0.152D-01 0.124D+00-0.460D+00
 Coeff-Com: -0.324D+00 0.100D+01 0.632D+00
 Coeff:      0.211D-06-0.576D-05-0.294D-04 0.257D-04 0.283D-03-0.238D-03
 Coeff:     -0.854D-03-0.159D-02 0.124D-01 0.152D-01 0.124D+00-0.460D+00
 Coeff:     -0.324D+00 0.100D+01 0.632D+00
 Gap=     0.238 Goal=   None    Shift=    0.000
 Gap=     0.144 Goal=   None    Shift=    0.000
 RMSDP=9.34D-09 MaxDP=3.19D-07 DE= 4.77D-12 OVMax= 1.48D-08

 SCF Done:  E(UBMK) =  -621.622305400     A.U. after   25 cycles
            NFock= 25  Conv=0.93D-08     -V/T= 2.0058
 <Sx>= 0.0000 <Sy>= 0.0000 <Sz>= 0.5000 <S**2>= 0.7700 S= 0.5099
 <L.S>= 0.000000000000E+00
 KE= 6.180222849963D+02 PE=-3.375418473985D+03 EE= 1.167020131742D+03
 Annihilation of the first spin contaminant:
 S**2 before annihilation     0.7700,   after     0.7502
 Leave Link  502 at Fri May 10 15:46:14 2024, MaxMem=    33554432 cpu:       891.2
 (Enter /hits/basement/its/doserbd/software/gaussian/g09d1/g09/l801.exe)
 DoSCS=F DFT=T ScalE2(SS,OS)=  1.000000  1.000000
 Range of M.O.s used for correlation:     1   246
 NBasis=   250 NAE=    59 NBE=    58 NFC=     0 NFV=     0
 NROrb=    246 NOA=    59 NOB=    58 NVA=   187 NVB=   188

 **** Warning!!: The largest alpha MO coefficient is  0.17915374D+03


 **** Warning!!: The largest beta MO coefficient is  0.18247169D+03

 Leave Link  801 at Fri May 10 15:46:14 2024, MaxMem=    33554432 cpu:         0.2
 (Enter /hits/basement/its/doserbd/software/gaussian/g09d1/g09/l1101.exe)
 Using compressed storage, NAtomX=    37.
 Will process     38 centers per pass.
 PrsmSu:  requested number of processors reduced to:   6 ShMem   1 Linda.
 Leave Link 1101 at Fri May 10 15:46:14 2024, MaxMem=    33554432 cpu:         1.8
 (Enter /hits/basement/its/doserbd/software/gaussian/g09d1/g09/l1102.exe)
 Symmetrizing basis deriv contribution to polar:
 IMax=3 JMax=2 DiffMx= 0.00D+00
 Leave Link 1102 at Fri May 10 15:46:15 2024, MaxMem=    33554432 cpu:         0.2
 (Enter /hits/basement/its/doserbd/software/gaussian/g09d1/g09/l1110.exe)
 Forming Gx(P) for the SCF density, NAtomX=    37.
 Integral derivatives from FoFJK, PRISM(SPDF).
 Do as many integral derivatives as possible in FoFJK.
 G2DrvN: MDV=      33554032.
 G2DrvN: will do    10 centers at a time, making    4 passes.
 G2DrvN:  IPasSy=1 do centers    0 through    9.
 Calling FoFCou, ICntrl=  3107 FMM=F I1Cent=   0 AccDes= 0.00D+00.
 FoFJK:  IHMeth= 1 ICntrl=    3107 DoSepK=F KAlg= 0 I1Cent=   0 FoldK=F
 IRaf=         0 NMat=   1 IRICut=       1 DoRegI=T DoRafI=F ISym2E= 0.
 FoFCou: FMM=F IPFlag=           0 FMFlag=      100000 FMFlg1=           0
         NFxFlg=           0 DoJE=F BraDBF=F KetDBF=F FulRan=T
         wScrn=  0.000000 ICntrl=    3107 IOpCl=  1 I1Cent=           0 NGrid=           0
         NMat0=    1 NMatS0=      1 NMatT0=    0 NMatD0=    1 NMtDS0=    0 NMtDT0=    0
 Symmetry not used in FoFCou.
 G2DrvN:  IPasSy=1 do centers   10 through   19.
 Calling FoFCou, ICntrl=  3107 FMM=F I1Cent=   0 AccDes= 0.00D+00.
 G2DrvN:  IPasSy=1 do centers   20 through   29.
 Calling FoFCou, ICntrl=  3107 FMM=F I1Cent=   0 AccDes= 0.00D+00.
 G2DrvN:  IPasSy=1 do centers   30 through   37.
 Calling FoFCou, ICntrl=  3107 FMM=F I1Cent=   0 AccDes= 0.00D+00.
 End of G2Drv F.D. properties file   721 does not exist.
 End of G2Drv F.D. properties file   722 does not exist.
 End of G2Drv F.D. properties file   788 does not exist.
 Leave Link 1110 at Fri May 10 15:50:06 2024, MaxMem=    33554432 cpu:      1842.1
 (Enter /hits/basement/its/doserbd/software/gaussian/g09d1/g09/l1002.exe)
 Minotr:  UHF open shell wavefunction.
          IDoAtm=1111111111111111111111111111111111111
          Direct CPHF calculation.
          Differentiating once with respect to nuclear coordinates.
          Requested convergence is 1.0D-08 RMS, and 1.0D-07 maximum.
          Secondary convergence is 1.0D-12 RMS, and 1.0D-12 maximum.
          NewPWx=T KeepS1=F KeepF1=F KeepIn=T MapXYZ=F SortEE=F KeepMc=T.
          MDV=      33553566 using IRadAn=       2.
 Generate precomputed XC quadrature information.
          Solving linear equations simultaneously, MaxMat=       0.
 FoFJK:  IHMeth= 1 ICntrl=       0 DoSepK=F KAlg= 0 I1Cent=   0 FoldK=F
 IRaf= 780000000 NMat=  40 IRICut=       1 DoRegI=T DoRafI=F ISym2E= 2.
 FoFCou: FMM=F IPFlag=           0 FMFlag=      100000 FMFlg1=           0
         NFxFlg=           0 DoJE=F BraDBF=F KetDBF=F FulRan=T
         wScrn=  0.000000 ICntrl=       0 IOpCl=  1 I1Cent=           0 NGrid=           0
         NMat0=   40 NMatS0=     40 NMatT0=    0 NMatD0=   40 NMtDS0=    0 NMtDT0=    0
 Integrals replicated using symmetry in FoFCou.
 CalDSu:  requested number of processors reduced to:   7 ShMem   1 Linda.
 CalDSu:  requested number of processors reduced to:   7 ShMem   1 Linda.
          There are   114 degrees of freedom in the 1st order CPHF.  IDoFFX=6 NUNeed=     0.
    111 vectors produced by pass  0 Test12= 2.19D-14 1.00D-09 XBig12= 6.20D-01 2.34D-01.
 AX will form    40 AO Fock derivatives at one time.
 CalDSu:  requested number of processors reduced to:   7 ShMem   1 Linda.
 CalDSu:  requested number of processors reduced to:   7 ShMem   1 Linda.
    111 vectors produced by pass  1 Test12= 2.19D-14 1.00D-09 XBig12= 8.42D-02 1.16D-01.
 CalDSu:  requested number of processors reduced to:   7 ShMem   1 Linda.
 CalDSu:  requested number of processors reduced to:   7 ShMem   1 Linda.
    110 vectors produced by pass  2 Test12= 2.19D-14 1.00D-09 XBig12= 3.01D-03 1.36D-02.
 CalDSu:  requested number of processors reduced to:   7 ShMem   1 Linda.
 CalDSu:  requested number of processors reduced to:   7 ShMem   1 Linda.
    109 vectors produced by pass  3 Test12= 2.19D-14 1.00D-09 XBig12= 5.16D-05 1.82D-03.
 CalDSu:  requested number of processors reduced to:   7 ShMem   1 Linda.
 CalDSu:  requested number of processors reduced to:   7 ShMem   1 Linda.
    108 vectors produced by pass  4 Test12= 2.19D-14 1.00D-09 XBig12= 5.53D-07 9.87D-05.
 CalDSu:  requested number of processors reduced to:   7 ShMem   1 Linda.
 CalDSu:  requested number of processors reduced to:   7 ShMem   1 Linda.
    108 vectors produced by pass  5 Test12= 2.19D-14 1.00D-09 XBig12= 4.29D-09 6.36D-06.
 CalDSu:  requested number of processors reduced to:   7 ShMem   1 Linda.
 CalDSu:  requested number of processors reduced to:   7 ShMem   1 Linda.
    108 vectors produced by pass  6 Test12= 2.19D-14 1.00D-09 XBig12= 5.26D-11 5.88D-07.
 CalDSu:  requested number of processors reduced to:   7 ShMem   1 Linda.
 CalDSu:  requested number of processors reduced to:   7 ShMem   1 Linda.
    108 vectors produced by pass  7 Test12= 2.19D-14 1.00D-09 XBig12= 2.65D-12 1.15D-07.
 CalDSu:  requested number of processors reduced to:   7 ShMem   1 Linda.
 CalDSu:  requested number of processors reduced to:   7 ShMem   1 Linda.
    108 vectors produced by pass  8 Test12= 2.19D-14 1.00D-09 XBig12= 1.93D-13 2.60D-08.
 CalDSu:  requested number of processors reduced to:   7 ShMem   1 Linda.
 CalDSu:  requested number of processors reduced to:   7 ShMem   1 Linda.
[...]
 0.24477655,0.00002446,0.00001311,0.00000046,0.00001082,-0.00000585,-0.
 00001343,-0.00002298,0.00001145,0.00000238,0.00002178,0.00002259,-0.00
 000860,0.00000942,-0.00000058,0.00000981,0.00000989,-0.00002292,0.0000
 6403,0.00002954,0.00003111,0.00000889,0.00000017,0.00000572,-0.0000016
 4,-0.00001669,0.00000162,-0.00000211,0.00000317,0.00000222,-0.00000040
 ,0.00000155,0.00000283,-0.00000047,-0.00000034,0.00000142,0.00000049,0
 .00000529,0.00000097,-0.00000042,-0.00000169,-0.00000076,-0.00000033,-
 0.00000003,-0.00000158,0.00000190,-0.00000422,-0.00000023,-0.00000101,
 -0.00000005,-0.00000027,0.00000028,0.00000124,0.,0.00000060,0.00000216
 ,0.00000193,-0.00000041,-0.00000036,-0.00000089,0.00000021,-0.00000121
 ,-0.00000071,0.00000044,0.00011344,-0.00004692,0.00024971,0.00006902,-
 0.00020800,0.00006443,-0.00008111,0.00001268,-0.00000801,0.00065028,-0
 .00106111,0.00030522,0.00064561,0.00052262,0.00014807,-0.00002153,0.00
 002960,0.00014503,-0.01251962,0.00122120,-0.01722316,-0.00139176,0.003
 47590,0.00072896,-0.00010256,-0.00056470,0.00021176,-0.13838480,0.0015
 1776,-0.12383256,0.01183872,-0.00037912,0.01753305,0.15070280,0.000022
 93,0.00001108,0.00000962,-0.00001872,-0.00000125,0.00001275,-0.0000290
 6,0.00000409,-0.00001481,0.00002646,0.00003797,-0.00000248,0.00004226,
 -0.00000514,0.00002283,-0.00018307,0.00003205,-0.00009765,0.00004571,-
 0.00005909,-0.00000689,0.00000110,0.00000782,-0.00000003,-0.00002767,-
 0.00001886,0.00001327,0.00000069,0.00000272,-0.00000141,-0.00000024,0.
 00000077,-0.00000054,0.00000072,0.00000170,0.00000048,0.00000767,0.000
 00089,0.00000326,-0.00000069,-0.00000155,-0.00000093,-0.00000119,-0.00
 000114,0.00000054,-0.00000493,-0.00000073,0.00000034,0.00000068,-0.000
 00016,-0.00000016,0.00000043,-0.00000033,0.,0.00000262,0.00000234,-0.0
 0000011,-0.00000104,-0.00000095,-0.00000050,-0.00000087,-0.00000109,0.
 00000040,0.00007041,-0.00005536,-0.00021919,-0.00021151,0.00013011,-0.
 00017869,0.00002021,0.00004737,0.00004415,0.00077712,0.00177865,0.0012
 9235,-0.00047130,-0.00043506,-0.00061634,-0.00007150,-0.00008167,0.000
 02200,0.01854329,-0.00321786,0.02471852,0.00320964,-0.00464094,-0.0002
 9519,-0.00074970,0.00116426,-0.00027141,0.00098210,-0.04874390,0.00336
 473,-0.00029320,-0.00035175,0.00006598,-0.00530918,0.05364087,0.000024
 40,-0.00000654,-0.00000364,0.00005025,-0.00000449,0.00000415,-0.000022
 11,0.00002479,-0.00000063,0.00000474,0.00001296,-0.00000439,0.00001550
 ,0.00004369,0.00000448,-0.00002891,-0.00001459,-0.00000442,-0.00004991
 ,0.00003304,0.00000942,0.00000244,0.00000194,-0.00000090,-0.00002028,0
 .00003351,-0.00002107,0.00000128,-0.00000231,-0.00000190,0.00000063,0.
 00000233,0.00000132,-0.00000053,0.00000045,-0.00000142,-0.00000234,0.0
 0000114,-0.00000003,-0.00000005,-0.00000041,-0.00000075,0.00000137,-0.
 00000094,0.00000187,0.00000037,-0.00000063,-0.00000063,-0.00000030,0.0
 0000018,-0.00000050,0.00000074,0.00000038,0.00000128,-0.00000017,0.000
 00023,-0.00000030,0.00000044,-0.00000021,0.00000087,-0.00000023,-0.000
 00013,-0.00000043,0.00034599,0.00013423,0.00026866,0.00006327,-0.00017
 736,-0.00002598,0.00000444,-0.00002608,-0.00000978,0.00038640,-0.00009
 362,0.00018027,0.00012295,0.00068706,0.00013026,-0.00015407,0.00002379
 ,-0.00011270,0.00102231,-0.00139542,0.00088051,0.00041928,-0.00048652,
 0.00148551,-0.00009028,0.00046483,0.00082251,-0.12420880,0.00411417,-0
 .22590920,-0.01749962,0.00004384,-0.02282015,0.13860374,-0.00396834,0.
 24502343,0.00001196,-0.00000701,-0.00000466,0.00007034,0.00009462,0.00
 000270,-0.00025330,0.00027064,0.00000138,-0.00005419,0.00002492,-0.000
 00022,0.00001495,-0.00000883,-0.00000004,0.00000083,0.00000381,0.,-0.0
 0002463,0.00002259,-0.00000060,0.00000195,0.00001974,0.,0.00000652,0.0
 0000962,0.00000012,0.00083800,0.00094646,0.00000231,0.00005322,-0.0000
 6919,-0.00004495,0.00005296,-0.00006918,0.00004484,-0.00264103,0.00283
 508,0.00000539,-0.00002042,0.00011042,-0.00027029,-0.00002105,0.000108
 80,0.00027060,0.01169632,0.02006989,0.00005536,0.00089037,-0.00080962,
 0.00003084,0.00089021,-0.00080984,-0.00003375,-0.13629154,-0.12742552,
 -0.00035545,-0.01137447,-0.01648228,0.00095523,-0.01139102,-0.01650276
 ,-0.00104763,0.00000280,-0.00000124,-0.00000011,0.00000021,0.00000095,
 0.00000016,0.00000017,0.00000093,-0.00000009,-0.00000229,0.00000020,0.
 00000004,0.00000034,0.00000040,0.00000017,0.00000033,0.00000040,-0.000
 00018,0.00000222,-0.00000010,-0.00000004,-0.00000011,0.00000031,0.0000
 0005,-0.00000015,0.00000032,-0.00000001,-0.00000116,-0.00000097,0.,0.0
 0000063,0.00000069,-0.00000022,0.00000064,0.00000068,0.00000023,0.1475
 3741,0.00010985,-0.00005063,0.00000309,-0.00012358,-0.00016573,-0.0000
 0188,0.00069986,-0.00015514,0.00000042,-0.00013733,-0.00009049,-0.0000
 0010,0.00002193,0.00012779,0.00000022,0.00013436,-0.00005019,0.0000005
 8,-0.00002001,-0.00011326,-0.00000145,0.00004716,0.00000311,0.00000003
 ,-0.00001148,-0.00002668,-0.00000024,-0.00160934,-0.00097479,-0.000004
 84,-0.00000525,-0.00001182,0.00007517,-0.00000504,-0.00001139,-0.00007
 507,0.00551863,-0.00316789,-0.00000518,0.00013766,0.00037380,0.0001113
 4,0.00013617,0.00037281,-0.00011040,-0.01696307,-0.02204675,-0.0000611
 4,-0.00013785,0.00080593,-0.00072794,-0.00013961,0.00080066,0.00073205
 ,-0.12626799,-0.23096973,-0.00050527,0.00059687,0.00054806,0.00059342,
 0.00051598,0.00043349,-0.00059091,0.00000723,0.00000642,0.,-0.00000581
 ,-0.00000892,-0.00000437,-0.00000587,-0.00000904,0.00000432,-0.0000223
 6,-0.00000799,0.00000001,0.00000144,0.00000634,-0.00000544,0.00000145,
 0.00000633,0.00000544,0.00001427,0.00000160,0.,-0.00000241,-0.00000030
 ,-0.00000162,-0.00000241,-0.00000030,0.00000162,-0.00000851,-0.0000066
 9,0.00000001,0.00000262,0.00000327,-0.00000032,0.00000259,0.00000325,0
 .00000031,0.13767025,0.25439046,0.00000029,-0.00000045,0.00001044,-0.0
 0000006,0.00000004,-0.00003504,0.00000113,-0.00000012,0.00005606,0.000
 00013,-0.00000022,-0.00000426,0.00000018,0.00000026,0.00000814,0.00000
 003,0.00000001,-0.00000401,0.00000025,-0.00000059,0.00000440,0.0000001
 1,0.00000006,-0.00001686,-0.00000003,-0.00000009,0.00000176,-0.0000039
 2,-0.00000336,0.00053027,0.00004579,-0.00005749,-0.00001846,-0.0000457
 3,0.00005747,-0.00001854,0.00001215,-0.00000658,0.00014661,-0.00032652
 ,-0.00031189,0.00021015,0.00032691,0.00031281,0.00021176,-0.00003491,-
 0.00004168,-0.00062366,-0.00019913,-0.00034991,-0.00007098,0.00019949,
 0.00035330,-0.00006554,-0.00035258,-0.00050592,-0.05083152,-0.01673590
 ,-0.02411567,0.00002562,0.01672656,0.02410027,0.00015672,-0.00000011,-
 0.00000003,0.00000073,-0.00000031,0.00000017,-0.00000006,0.00000020,-0
 .00000021,-0.00000003,0.,0.00000002,-0.00000047,-0.00000017,0.00000011
 ,-0.00000032,0.00000019,-0.00000008,-0.00000028,-0.00000002,-0.0000000
 4,0.00000031,-0.00000027,0.00000001,-0.00000015,0.00000027,-0.00000001
 ,-0.00000019,-0.00000003,-0.00000005,0.00000047,0.00000020,0.00000001,
 -0.00000017,-0.00000019,0.00000002,-0.00000018,0.00038655,0.00056955,0
 .05033978,-0.00000067,-0.00000991,0.00003595,0.00002127,-0.00000068,-0
 .00001813,0.00000382,0.00000536,-0.00000095,-0.00003921,0.00001517,0.0
 0000185,0.00007810,0.00010350,0.00000018,-0.00021758,0.00025874,0.0000
 0298,-0.00007774,0.00002003,-0.00000232,0.00000557,0.00000772,0.000000
 11,-0.00000605,0.00001518,-0.00000116,0.00000025,-0.00000295,-0.000000
 75,-0.00000032,0.00000036,-0.00000003,0.00000044,0.00000059,-0.0000003
 7,-0.00000243,0.00000051,0.00000005,0.00000041,0.00000046,-0.00000013,
 0.00000040,0.00000035,0.00000006,0.00000306,0.00000051,0.00000005,-0.0
 0000020,0.00000037,0.00000011,-0.00000039,0.00000041,-0.00000022,-0.00
 000122,-0.00000152,0.00000015,0.00000059,0.00000075,0.00000015,0.00000
 068,0.00000075,-0.00000024,0.00084695,0.00094141,0.00000325,0.00005151
 ,-0.00007326,-0.00004368,0.00005149,-0.00007384,0.00004304,-0.00253544
 ,0.00280760,0.00000541,-0.00002406,0.00012378,0.00026603,-0.00002336,0
 .00012548,-0.00026567,0.01172133,0.01966855,0.00005473,0.00088999,-0.0
 0082139,-0.00000968,0.00089041,-0.00082107,0.00000642,-0.13971959,-0.1
 2867892,-0.00036045,-0.01157979,-0.01637838,-0.00113741,-0.01156381,-0
 .01635953,0.00104515,-0.00000069,-0.00000209,0.00000002,0.15123188,-0.
 00008796,-0.00003637,0.00003926,-0.00008615,0.00003156,-0.00001986,0.0
 0010457,-0.00004208,-0.00000093,-0.00003284,-0.00012337,0.00000178,-0.
 00021093,-0.00015330,-0.00000056,0.00063021,-0.00022331,0.00000236,0.0
 0002042,0.00000119,-0.00000267,-0.00001176,-0.00003712,-0.00000003,0.0
 0005489,0.00001844,-0.00000122,-0.00000886,-0.00000282,-0.00000083,-0.
 00000282,-0.00000752,0.00000027,-0.00000201,-0.00000721,-0.00000076,-0
 .00002067,-0.00000291,0.00000002,0.00000259,0.00000467,0.00000372,0.00
 000257,0.00000458,-0.00000378,0.00001419,0.00000243,0.00000004,-0.0000
 0193,0.00000033,0.00000052,-0.00000214,0.00000038,-0.00000064,-0.00000
 808,-0.00000695,0.00000012,0.00000270,0.00000299,0.00000099,0.00000277
 ,0.00000299,-0.00000105,-0.00160425,-0.00098410,-0.00000372,0.00001064
 ,-0.00000750,0.00009105,0.00001090,-0.00000770,-0.00009136,0.00551239,
 -0.00325572,-0.00000566,0.00014963,0.00036371,-0.00011106,0.00015122,0
 .00036475,0.00011197,-0.01742672,-0.02209333,-0.00006118,-0.00012652,0
 .00081863,0.00073057,-0.00012454,0.00082391,-0.00072655,-0.12753114,-0
 .22743356,-0.00049755,0.00064773,0.00063503,-0.00057476,0.00073029,0.0
 0074935,0.00057799,-0.00000188,-0.00000915,0.,0.13913209,0.25058113,-0
 .00000028,-0.00000048,-0.00000098,0.00000024,0.00000045,0.00000172,-0.
 00000021,0.00000027,0.00000146,0.00000040,-0.00000043,0.00000084,-0.00
 000037,-0.00000016,-0.00001910,0.00000113,-0.00000037,0.00002848,0.000
 00042,-0.00000050,0.00000062,-0.00000005,-0.00000007,0.00000263,0.0000
 0013,0.00000006,-0.00001554,-0.00000029,-0.00000026,-0.00000008,-0.000
 00034,0.00000018,-0.00000004,0.00000035,-0.00000019,-0.00000006,0.0000
 0016,0.00000003,-0.00000119,0.00000027,-0.00000010,-0.00000037,-0.0000
 0026,0.00000013,-0.00000036,-0.00000007,-0.00000007,0.00000063,0.00000
 030,0.,-0.00000017,-0.00000028,0.,-0.00000016,0.,-0.00000002,0.0000004
 4,-0.00000018,0.00000003,-0.00000016,0.00000022,-0.00000002,-0.0000002
 0,-0.00000399,-0.00000333,0.00053827,0.00004748,-0.00006033,-0.0000184
 0,-0.00004745,0.00006033,-0.00001858,0.00001222,-0.00000688,0.00015643
 ,0.00032486,0.00030840,0.00020306,-0.00032434,-0.00030748,0.00020151,-
 0.00003654,-0.00004271,-0.00064606,0.00020966,0.00034603,-0.00007119,-
 0.00020928,-0.00034247,-0.00007670,-0.00035772,-0.00049821,-0.05084900
 ,0.01697888,0.02387477,0.00022656,-0.01698740,-0.02388873,0.00009615,-
 0.00000001,-0.00000002,0.00000010,0.00039231,0.00056173,0.05025354,-0.
 00012685,-0.00002467,-0.00000799,0.00096418,0.00015692,0.00000571,0.00
 115935,-0.00220537,-0.00000711,-0.00948252,0.00319460,-0.00000244,-0.3
 4269801,-0.01003994,-0.00017894,-0.01323611,-0.00432916,-0.00002127,-0
 .00001906,0.00300032,0.00000383,0.00086648,-0.00040071,0.00000163,-0.0
 0063478,-0.00030308,-0.00000051,-0.00038735,0.00040109,0.00000108,-0.0
 0009292,-0.00013397,0.00002809,-0.00009332,-0.00013384,-0.00002875,-0.
 00012535,0.00004270,0.00000016,0.00002510,-0.00000597,-0.00000890,0.00
 002515,-0.00000604,0.00000897,0.00006218,-0.00001441,-0.00000012,-0.00
 000151,0.00000889,-0.00000415,-0.00000140,0.00000882,0.00000432,-0.000
 02663,-0.00001755,0.00000020,0.00000530,0.00000048,0.00000592,0.000005
 43,0.00000065,-0.00000614,0.00096734,-0.00155181,-0.00000231,0.0002584
 0,0.00073400,0.00014711,0.00025809,0.00073459,-0.00014285,0.00017391,0
 .00022744,0.00000082,0.00004686,-0.00010124,0.00005487,0.00004674,-0.0
 0010087,-0.00005520,-0.00000742,0.00000233,-0.00000014,0.00000690,0.00
 000787,0.00000813,0.00000685,0.00000793,-0.00000797,-0.00000451,-0.000
 00316,0.00000013,-0.00000181,0.00000117,-0.00000411,-0.00000183,0.0000
 0111,0.00000403,0.00000366,-0.00001777,-0.00000006,-0.00000224,-0.0000
 0069,0.,0.36209289,-0.00002535,0.00020758,-0.00001537,-0.00007318,-0.0
 0081611,0.00000883,-0.00186450,-0.00514751,-0.00003061,-0.03101418,0.0
 0225776,-0.00002823,-0.00982079,-0.06113086,-0.00004740,0.02867262,0.0
 0440417,0.00000779,0.00259791,-0.00497034,-0.00002530,0.00038269,0.000
 92380,0.00001247,0.00135395,0.00024059,0.00000342,-0.00090656,0.000536
 56,0.00000381,-0.00017245,-0.00016917,0.00000990,-0.00017334,-0.000169
 59,-0.00001122,-0.00008465,0.00008140,0.00000011,0.00002302,-0.0000217
 9,-0.00004188,0.00002284,-0.00002211,0.00004173,0.00006664,-0.00003408
 ,-0.00000019,0.00000460,0.00001652,-0.00000744,0.00000469,0.00001642,0
 .00000761,-0.00001956,-0.00001140,-0.00000008,0.00000147,-0.00000431,0
 .00001132,0.00000145,-0.00000422,-0.00001130,0.00062362,0.00140582,0.0
 0000783,-0.00004661,-0.00029258,-0.00044276,-0.00004992,-0.00029583,0.
 00044340,-0.00020834,-0.00003218,0.00000067,-0.00006793,0.00014164,-0.
 00005421,-0.00006829,0.00014159,0.00005485,-0.00009148,-0.00002220,-0.
 00000041,-0.00000021,-0.00002428,-0.00001023,-0.00000035,-0.00002432,0
 .00001028,0.00002494,0.00002264,0.00000003,-0.00000616,-0.00000243,0.0
 0000685,-0.00000608,-0.00000241,-0.00000682,0.00000863,-0.00000970,-0.
 00000003,0.00000258,0.00002423,0.00000004,0.01086427,0.06281218,-0.000
 00385,0.00000820,-0.00028367,0.00000477,-0.00000771,-0.00100614,-0.000
 00300,-0.00003425,0.00739562,-0.00009189,-0.00000465,0.00683202,-0.000
 18273,-0.00005029,-0.04382433,0.00006456,-0.00001290,0.00692535,-0.000
 00633,-0.00001877,0.00603281,0.00000385,0.00001198,-0.00410965,0.00000
 382,0.00000280,-0.00067145,0.00000170,0.00000936,-0.00115004,-0.000078
 40,-0.00012137,0.00011235,0.00007772,0.00011915,0.00011255,-0.00000472
 ,-0.00000046,0.00000669,-0.00002668,-0.00003778,0.00002242,0.00002727,
 0.00003754,0.00002287,0.00000207,0.00000095,0.00001848,-0.00000321,-0.
 00000676,0.00000166,0.00000293,0.00000682,0.00000186,-0.00000060,0.000
 00025,0.00001172,-0.00000247,-0.00000037,-0.00000445,0.00000219,0.0000
 0039,-0.00000386,0.00000702,0.00000855,-0.00185061,-0.00058276,-0.0002
 3731,-0.00040366,0.00058527,0.00023841,-0.00039964,-0.00000147,-0.0000
 0045,-0.00029937,-0.00004817,0.00004863,-0.00000013,0.00004756,-0.0000
 4816,-0.00000041,0.00000141,0.00000112,0.00006667,0.00000011,-0.000003
 33,-0.00000887,-0.00000050,0.00000323,-0.00000754,0.00000045,0.0000010
 0,0.00000153,0.00000408,-0.00000100,-0.00000142,-0.00000407,0.00000053
 ,-0.00000123,0.00000008,-0.00000012,-0.00000058,-0.00000062,-0.0000006
 3,0.00000321,0.00020032,0.00009484,0.02650496,-0.72150338,-0.01285028,
 -0.00064380,0.02138525,-0.00340444,0.00012828,-0.00527301,0.00627405,0
 .00002660,0.00174729,0.00341497,-0.00000897,-0.00235933,0.00361178,0.0
 0000897,0.00750225,-0.00685368,-0.00002809,-0.00660742,-0.00317334,-0.
 00000241,0.00002136,-0.00026678,-0.00000112,0.00006370,0.00032600,0.00
 000902,-0.00098998,-0.00130531,-0.00000232,0.00044126,-0.00060740,-0.0
 0007156,0.00043469,-0.00060750,0.00007332,-0.00032312,-0.00016352,-0.0
 0000057,-0.00000391,0.00007909,0.00008843,-0.00000321,0.00008007,-0.00
 008723,0.00033419,0.00004328,0.00000056,-0.00002716,-0.00001872,0.0001
 0087,-0.00002560,-0.00001860,-0.00010031,-0.00015316,-0.00014401,-0.00
 000077,0.00001142,0.00004803,-0.00002319,0.00001132,0.00004815,0.00002
 332,0.00051865,0.00048125,-0.00000225,-0.00018196,0.00024091,-0.000076
 96,-0.00018142,0.00024297,0.00008028,0.00040900,0.00010373,0.00000087,
 -0.00003549,-0.00000015,-0.00003131,-0.00003629,-0.00000065,0.00003172
 ,-0.00028806,0.00003799,-0.00000190,0.00000753,-0.00002636,-0.00001025
 ,0.00000616,-0.00002664,0.00001178,0.00014336,0.00009841,0.00000054,-0
 .00002623,-0.00002231,0.00004247,-0.00002542,-0.00002240,-0.00004236,0
 .00000004,-0.00013054,-0.00000048,-0.00000337,0.00011208,0.00000003,-0
 .00003122,0.00004400,0.00000427,0.70504121,-0.01417253,-0.01557345,0.0
 0043092,-0.00020217,0.01000920,-0.00021062,-0.00139908,-0.00184393,-0.
 00003138,0.00005281,0.00066893,0.00002634,-0.00016453,0.00000071,-0.00
 000179,-0.00005412,0.00063572,0.00002984,0.00074770,-0.00111878,-0.000
 02076,-0.00016884,-0.00005069,0.00000160,0.00006758,0.00012607,-0.0000
 1324,0.00068975,-0.00040524,-0.00000663,-0.00007275,-0.00003981,0.0002
 2497,-0.00006169,-0.00003909,-0.00023102,0.00013456,0.00016709,0.00000
 138,0.00005326,-0.00004489,-0.00001393,0.00005290,-0.00004642,0.000012
 69,-0.00002501,0.00002852,0.00000125,-0.00000691,0.00001994,-0.0000508
 6,-0.00000964,0.00002003,0.00004921,0.00001535,0.00001719,0.00000191,0
 .00001116,-0.00000513,0.00001189,0.00001246,-0.00000509,-0.00001336,0.
 00011197,-0.00008289,0.00000821,0.00001886,0.00004065,-0.00001133,0.00
 001904,0.00003757,0.00000730,0.00004146,-0.00000172,-0.00000095,-0.000
 00465,-0.00000529,-0.00002048,-0.00000348,-0.00000445,0.00002001,-0.00
 001729,0.00001114,0.00000242,-0.00000771,-0.00000436,-0.00000976,-0.00
 000512,-0.00000434,0.00000727,0.00001230,0.00000006,0.00000144,0.00000
 286,0.00000385,0.00001500,0.00000129,0.00000396,-0.00001644,-0.0000119
 0,0.00000326,0.00000029,-0.00000872,0.00000371,0.00000037,-0.00000498,
 -0.00002548,-0.00000740,0.01435578,0.00750342,-0.00048729,0.00018056,-
 0.01249119,0.00007990,-0.00021639,0.00389755,0.00014646,-0.00008039,0.
 00047408,-0.00022680,0.00012222,-0.00011089,-0.00010900,-0.00005664,-0
 .00004827,0.00014775,-0.00012244,0.00028288,-0.00025687,0.00018365,0.0
 0052423,0.00000883,-0.00000443,-0.00002150,0.00001236,0.00002072,-0.00
 012923,0.00010400,0.00013623,0.00001737,-0.00012830,0.00015613,-0.0000
 4853,0.00013573,-0.00017572,-0.00005777,-0.00012054,-0.00001750,0.0000
 6117,-0.00005326,0.00002962,0.00001761,0.00006605,-0.00003044,0.000017
 53,0.00005153,0.00003084,-0.00010206,-0.00002431,-0.00001820,0.0000371
 4,0.00001489,0.00001762,0.00003948,-0.00001529,0.00000660,0.00005236,0
 .00000885,-0.00000883,-0.00001332,-0.00001710,0.00000964,0.00000478,0.
 00010877,0.00003680,-0.00004823,0.00003743,-0.00000129,-0.00002303,0.0
 0001791,-0.00000400,-0.00001511,-0.00003228,-0.00003251,-0.00011445,0.
 00000068,-0.00002226,0.00003421,-0.00000909,0.00001900,0.00002557,0.00
 004412,0.00003561,0.00003661,0.00000603,0.00000594,-0.00001441,-0.0000
 1610,-0.00000682,0.00001925,0.00000906,0.00002493,-0.00002093,-0.00000
 299,-0.00000433,0.00000292,0.00000475,-0.00000837,0.00000955,0.0000022
 3,-0.00000130,-0.00001201,-0.00001616,-0.00001759,0.00000269,0.0000036
 5,0.00000771,-0.00004572,0.00050450,-0.00019432,0.00775969\\-0.0000004
 3,0.00000408,-0.00000016,-0.00000096,0.00000244,0.00000006,-0.00000172
 ,0.00000104,0.00000007,-0.00000228,-0.00000215,-0.00000004,0.00000087,
 -0.00000287,0.00000002,0.00000181,-0.00000127,-0.00000003,0.00000468,0
 .00000517,0.00000006,-0.00000139,0.00000090,0.,-0.00000621,-0.00001086
 ,-0.00000006,-0.00000370,0.00000208,-0.00000011,-0.00000437,0.00000286
 ,-0.00000027,-0.00000435,0.00000300,0.00000024,-0.00000682,-0.00000078
 ,0.00000011,-0.00000637,-0.00000095,-0.00000029,-0.00000642,-0.0000009
 9,0.00000025,-0.00000836,0.00000210,-0.00000007,-0.00000825,0.00000292
 ,0.00000031,-0.00000824,0.00000292,-0.00000027,-0.00000996,0.00000064,
 0.00000007,-0.00000999,-0.00000046,0.00000021,-0.00000997,-0.00000045,
 -0.00000029,0.00000400,-0.00000187,0.00000006,0.00000426,-0.00000340,0
 .00000021,0.00000426,-0.00000341,-0.00000026,0.00001129,0.00000590,-0.
 00000002,0.00000683,0.00000104,-0.00000006,0.00000682,0.00000103,0.000
 00011,0.00000830,-0.00000293,0.00000003,0.00000833,-0.00000327,0.00000
 032,0.00000832,-0.00000326,-0.00000036,0.00001013,-0.00000105,0.,0.000
 00997,0.,0.00000035,0.00000995,0.,-0.00000032,-0.00001176,0.00000124,0
 .,0.00001171,-0.00000173,-0.00000002,0.00000027,-0.00000401,-0.0000000
 1,-0.00000025,0.00000635,0.00000015\\\@


 Everywhere is walking distance if you have the time.
                                    -- Steven Wright
 Job cpu time:       0 days  2 hours 31 minutes 29.0 seconds.
 File lengths (MBytes):  RWF=   1168 Int=      0 D2E=      0 Chk=      9 Scr=      1
 Normal termination of Gaussian 09 at Fri May 10 16:29:49 2024.
