
                                 *****************
                                 * O   R   C   A *
                                 *****************

                                            #,                                       
                                            ###                                      
                                            ####                                     
                                            #####                                    
                                            ######                                   
                                           ########,                                 
                                     ,,################,,,,,                         
                               ,,#################################,,                 
                          ,,##########################################,,             
                       ,#########################################, ''#####,          
                    ,#############################################,,   '####,        
                  ,##################################################,,,,####,       
                ,###########''''           ''''###############################       
              ,#####''   ,,,,##########,,,,          '''####'''          '####       
            ,##' ,,,,###########################,,,                        '##       
           ' ,,###''''                  '''############,,,                           
         ,,##''                                '''############,,,,        ,,,,,,###''
      ,#''                                            '''#######################'''  
     '                                                          ''''####''''         
             ,#######,   #######,   ,#######,      ##                                
            ,#'     '#,  ##    ##  ,#'     '#,    #''#        ######   ,####,        
            ##       ##  ##   ,#'  ##            #'  '#       #        #'  '#        
            ##       ##  #######   ##           ,######,      #####,   #    #        
            '#,     ,#'  ##    ##  '#,     ,#' ,#      #,         ##   #,  ,#        
             '#######'   ##     ##  '#######'  #'      '#     #####' # '####'        



                  #######################################################
                  #                        -***-                        #
                  #          Department of theory and spectroscopy      #
                  #    Directorship and core code : Frank Neese         #
                  #        Max Planck Institute fuer Kohlenforschung    #
                  #                Kaiser Wilhelm Platz 1               #
                  #                 D-45470 Muelheim/Ruhr               #
                  #                      Germany                        #
                  #                                                     #
                  #                  All rights reserved                #
                  #                        -***-                        #
                  #######################################################


                         Program Version 5.0.4 -  RELEASE  -


 With contributions from (in alphabetic order):
   Daniel Aravena         : Magnetic Suceptibility
   Michael Atanasov       : Ab Initio Ligand Field Theory (pilot matlab implementation)
   Alexander A. Auer      : GIAO ZORA, VPT2 properties, NMR spectrum
   Ute Becker             : Parallelization
   Giovanni Bistoni       : ED, misc. LED, open-shell LED, HFLD
   Martin Brehm           : Molecular dynamics
   Dmytro Bykov           : SCF Hessian
   Vijay G. Chilkuri      : MRCI spin determinant printing, contributions to CSF-ICE
   Dipayan Datta          : RHF DLPNO-CCSD density
   Achintya Kumar Dutta   : EOM-CC, STEOM-CC
   Dmitry Ganyushin       : Spin-Orbit,Spin-Spin,Magnetic field MRCI
   Miquel Garcia          : C-PCM and meta-GGA Hessian, CC/C-PCM, Gaussian charge scheme
   Yang Guo               : DLPNO-NEVPT2, F12-NEVPT2, CIM, IAO-localization
   Andreas Hansen         : Spin unrestricted coupled pair/coupled cluster methods
   Benjamin Helmich-Paris : MC-RPA, TRAH-SCF, COSX integrals
   Lee Huntington         : MR-EOM, pCC
   Robert Izsak           : Overlap fitted RIJCOSX, COSX-SCS-MP3, EOM
   Marcus Kettner         : VPT2
   Christian Kollmar      : KDIIS, OOCD, Brueckner-CCSD(T), CCSD density, CASPT2, CASPT2-K
   Simone Kossmann        : Meta GGA functionals, TD-DFT gradient, OOMP2, MP2 Hessian
   Martin Krupicka        : Initial AUTO-CI
   Lucas Lang             : DCDCAS
   Marvin Lechner         : AUTO-CI (C++ implementation), FIC-MRCC
   Dagmar Lenk            : GEPOL surface, SMD
   Dimitrios Liakos       : Extrapolation schemes; Compound Job, initial MDCI parallelization
   Dimitrios Manganas     : Further ROCIS development; embedding schemes
   Dimitrios Pantazis     : SARC Basis sets
   Anastasios Papadopoulos: AUTO-CI, single reference methods and gradients
   Taras Petrenko         : DFT Hessian,TD-DFT gradient, ASA, ECA, R-Raman, ABS, FL, XAS/XES, NRVS
   Peter Pinski           : DLPNO-MP2, DLPNO-MP2 Gradient
   Christoph Reimann      : Effective Core Potentials
   Marius Retegan         : Local ZFS, SOC
   Christoph Riplinger    : Optimizer, TS searches, QM/MM, DLPNO-CCSD(T), (RO)-DLPNO pert. Triples
   Tobias Risthaus        : Range-separated hybrids, TD-DFT gradient, RPA, STAB
   Michael Roemelt        : Original ROCIS implementation
   Masaaki Saitow         : Open-shell DLPNO-CCSD energy and density
   Barbara Sandhoefer     : DKH picture change effects
   Avijit Sen             : IP-ROCIS
   Kantharuban Sivalingam : CASSCF convergence, NEVPT2, FIC-MRCI
   Bernardo de Souza      : ESD, SOC TD-DFT
   Georgi Stoychev        : AutoAux, RI-MP2 NMR, DLPNO-MP2 response
   Willem Van den Heuvel  : Paramagnetic NMR
   Boris Wezisla          : Elementary symmetry handling
   Frank Wennmohs         : Technical directorship


 We gratefully acknowledge several colleagues who have allowed us to
 interface, adapt or use parts of their codes:
   Stefan Grimme, W. Hujo, H. Kruse, P. Pracht,  : VdW corrections, initial TS optimization,
                  C. Bannwarth, S. Ehlert          DFT functionals, gCP, sTDA/sTD-DF
   Ed Valeev, F. Pavosevic, A. Kumar             : LibInt (2-el integral package), F12 methods
   Garnet Chan, S. Sharma, J. Yang, R. Olivares  : DMRG
   Ulf Ekstrom                                   : XCFun DFT Library
   Mihaly Kallay                                 : mrcc  (arbitrary order and MRCC methods)
   Jiri Pittner, Ondrej Demel                    : Mk-CCSD
   Frank Weinhold                                : gennbo (NPA and NBO analysis)
   Christopher J. Cramer and Donald G. Truhlar   : smd solvation model
   Lars Goerigk                                  : TD-DFT with DH, B97 family of functionals
   V. Asgeirsson, H. Jonsson                     : NEB implementation
   FAccTs GmbH                                   : IRC, NEB, NEB-TS, DLPNO-Multilevel, CI-OPT
                                                   MM, QMMM, 2- and 3-layer-ONIOM, Crystal-QMMM,
                                                   LR-CPCM, SF, NACMEs, symmetry and pop. for TD-DFT,
                                                   nearIR, NL-DFT gradient (VV10), updates on ESD,
                                                   ML-optimized integration grids
   S Lehtola, MJT Oliveira, MAL Marques          : LibXC Library
   Liviu Ungur et al                             : ANISO software


 Your calculation uses the libint2 library for the computation of 2-el integrals
 For citations please refer to: http://libint.valeyev.net

 Your ORCA version has been built with support for libXC version: 5.1.0
 For citations please refer to: https://tddft.org/programs/libxc/

 This ORCA versions uses:
   CBLAS   interface :  Fast vector & matrix operations
   LAPACKE interface :  Fast linear algebra routines
   SCALAPACK package :  Parallel linear algebra routines
   Shared memory     :  Shared parallel matrices
   BLAS/LAPACK       :  OpenBLAS 0.3.15  USE64BITINT DYNAMIC_ARCH NO_AFFINITY SkylakeX SINGLE_THREADED
        Core in use  :  SkylakeX
   Copyright (c) 2011-2014, The OpenBLAS Project




***************************************
The coordinates will be read from file: opt.xyz
***************************************


================================================================================

----- Orbital basis set information -----
Your calculation utilizes the basis: cc-pVDZ 
       H, B-Ne : Obtained from the ccRepo (grant-hill.group.shef.ac.uk/ccrepo) Feb. 2017
                 T. H. Dunning, Jr., J. Chem. Phys. 90, 1007 (1989)
            He : Obtained from the ccRepo (grant-hill.group.shef.ac.uk/ccrepo) Feb. 2017
                 D. E. Woon, T. H. Dunning, Jr., J. Chem. Phys. 100, 2975 (1994)
  Li-Be, Na-Mg : Obtained from the ccRepo (grant-hill.group.shef.ac.uk/ccrepo) Feb. 2017
                 B. P. Prascher, D. E. Woon, K. A. Peterson, T. H. Dunning, Jr., A. K. Wilson, Theor. Chem. Acc. 128, 69 (2011)
         Al-Ar : Obtained from the ccRepo (grant-hill.group.shef.ac.uk/ccrepo) Feb. 2017
                 D. E. Woon, T. H. Dunning, Jr., J. Chem. Phys. 98, 1358 (1993)
            Ca : Obtained from the Peterson Research Group Website (tyr0.chem.wsu.edu/~kipeters) Feb. 2017
                 J. Koput, K. A. Peterson, J. Phys. Chem. 106, 9595 (2002)
         Sc-Zn : Obtained from the ccRepo (grant-hill.group.shef.ac.uk/ccrepo) Feb. 2017
                 N. B. Balabanov, K. A. Peterson, J. Chem. Phys. 123, 064107 (2005)
                 N. B. Balabanov, K. A. Peterson, J. Chem. Phys. 125, 074110 (2006)
         Ga-Kr : Obtained from the ccRepo (grant-hill.group.shef.ac.uk/ccrepo) Feb. 2017
                 A. K. Wilson, D. E. Woon, K. A. Peterson, T. H. Dunning, Jr., J. Chem. Phys. 110, 7667 (1999)

----- AuxJ basis set information -----
Your calculation utilizes the AutoAux generation procedure.
  G. L. Stoychev, A. A. Auer, F. Neese, J. Chem. Theory Comput. 13, 554 (2017)

----- AuxC basis set information -----
Your calculation utilizes the AutoAux generation procedure.
  G. L. Stoychev, A. A. Auer, F. Neese, J. Chem. Theory Comput. 13, 554 (2017)

----- AuxJK basis set information -----
Your calculation utilizes the AutoAux generation procedure.
  G. L. Stoychev, A. A. Auer, F. Neese, J. Chem. Theory Comput. 13, 554 (2017)

================================================================================
                                        WARNINGS
                       Please study these warnings very carefully!
================================================================================


WARNING: your system is open-shell and RHF/RKS was chosen
  ===> : WILL SWITCH to UHF/UKS


INFO   : the flag for use of the SHARK integral package has been found!

================================================================================
                                       INPUT FILE
================================================================================
NAME = cc-pVDZ.inp
|  1> ! B3LYP cc-pVDZ AUTOAUX
|  2> %pal nprocs 16 end
|  3> *XYZFile 0 2 opt.xyz
|  4> %EPRNMR
|  5>         GTENSOR   TRUE
|  6>         NUCLEI    = ALL H {SHIFT, AISO, ADIP, AORB}
|  7> END
|  8> 
|  9>                          ****END OF INPUT****
================================================================================

                       ****************************
                       * Single Point Calculation *
                       ****************************

---------------------------------
CARTESIAN COORDINATES (ANGSTROEM)
---------------------------------
  C     -3.990231    0.213841   -0.298689
  C     -2.777202    0.134401   -0.264168
  C      2.881118   -0.106320   -0.120939
  C     -1.347580    0.049789   -0.226693
  C     -0.698663   -1.210432   -0.168978
  C      0.696414   -1.210949   -0.136033
  C      1.451516   -0.021244   -0.158159
  C      0.802554    1.238942   -0.215585
  C     -0.592525    1.239697   -0.248218
  H      1.240484   -2.154117   -0.091566
  H     -1.136490    2.183031   -0.291658
  C     -1.520796   -2.484849   -0.145693
  H     -2.176647   -2.488350   -1.035776
  H     -2.218070   -2.430135    0.710536
  C     -0.747760   -3.804774   -0.083711
  H     -0.066510   -3.882053   -0.951169
  H     -0.105100   -3.822574    0.815836
  C     -1.671277   -5.028796   -0.062159
  H     -2.353766   -4.954482    0.804809
  H     -2.318821   -5.011894   -0.958437
  C     -0.911004   -6.356092   -0.003542
  H     -0.279819   -6.416782    0.899916
  H     -0.247977   -6.477180   -0.877607
  C      1.625960    2.512302   -0.238909
  H      2.288489    2.510214    0.646135
  H      2.316797    2.461154   -1.100696
  C      0.854747    3.833459   -0.287928
  H      0.209453    3.860975   -1.184672
  H      0.180476    3.912331    0.583195
  C      1.786297    5.054577   -0.308234
  H      2.452926    5.030614    0.576943
  H      2.476574    4.960570   -1.179156
  C      1.071033    6.365835   -0.362651
  H      0.095267    6.402624   -0.863681
  C      1.766851    7.657378   -0.078213
  H      2.447636    7.917283   -0.923106
  H      2.441558    7.532993    0.792881
  C      0.820543    8.841876    0.167056
  H      0.163439    8.964772   -0.713802
  H      0.153001    8.598335    1.013255
  C      1.555999   10.154269    0.446799
  H      2.197776   10.071072    1.341050
  H      2.205841   10.437943   -0.399281
  C      4.094180   -0.186871   -0.089942
  H     -5.059895    0.285441   -0.327738
  H      5.163803   -0.259276   -0.061371
  H     -1.600271   -7.215913    0.013460
  H      0.851264   10.984019    0.618926

----------------------------
CARTESIAN COORDINATES (A.U.)
----------------------------
  NO LB      ZA    FRAG     MASS         X           Y           Z
   0 C     6.0000    0    12.011   -7.540443    0.404102   -0.564441
   1 C     6.0000    0    12.011   -5.248151    0.253982   -0.499205
   2 C     6.0000    0    12.011    5.444523   -0.200916   -0.228541
   3 C     6.0000    0    12.011   -2.546557    0.094088   -0.428388
   4 C     6.0000    0    12.011   -1.320281   -2.287384   -0.319322
   5 C     6.0000    0    12.011    1.316032   -2.288362   -0.257066
   6 C     6.0000    0    12.011    2.742967   -0.040146   -0.298877
   7 C     6.0000    0    12.011    1.516606    2.341260   -0.407397
   8 C     6.0000    0    12.011   -1.119709    2.342688   -0.469065
   9 H     1.0000    0     1.008    2.344176   -4.070692   -0.173035
  10 H     1.0000    0     1.008   -2.147654    4.125332   -0.551153
  11 C     6.0000    0    12.011   -2.873887   -4.695684   -0.275319
  12 H     1.0000    0     1.008   -4.113266   -4.702301   -1.957333
  13 H     1.0000    0     1.008   -4.191546   -4.592290    1.342718
  14 C     6.0000    0    12.011   -1.413063   -7.189981   -0.158191
  15 H     1.0000    0     1.008   -0.125686   -7.336017   -1.797449
  16 H     1.0000    0     1.008   -0.198611   -7.223618    1.541707
  17 C     6.0000    0    12.011   -3.158256   -9.503046   -0.117464
  18 H     1.0000    0     1.008   -4.447973   -9.362614    1.520868
  19 H     1.0000    0     1.008   -4.381937   -9.471107   -1.811183
  20 C     6.0000    0    12.011   -1.721549  -12.011274   -0.006693
  21 H     1.0000    0     1.008   -0.528780  -12.125961    1.700595
  22 H     1.0000    0     1.008   -0.468608  -12.240097   -1.658438
  23 C     6.0000    0    12.011    3.072619    4.747563   -0.451472
  24 H     1.0000    0     1.008    4.324617    4.743617    1.221018
  25 H     1.0000    0     1.008    4.378111    4.650907   -2.080014
  26 C     6.0000    0    12.011    1.615237    7.244188   -0.544106
  27 H     1.0000    0     1.008    0.395809    7.296186   -2.238705
  28 H     1.0000    0     1.008    0.341050    7.393234    1.102078
  29 C     6.0000    0    12.011    3.375613    9.551766   -0.582477
  30 H     1.0000    0     1.008    4.635359    9.506484    1.090264
  31 H     1.0000    0     1.008    4.680046    9.374118   -2.228283
  32 C     6.0000    0    12.011    2.023959   12.029684   -0.685312
  33 H     1.0000    0     1.008    0.180029   12.099206   -1.632121
  34 C     6.0000    0    12.011    3.338865   14.470348   -0.147801
  35 H     1.0000    0     1.008    4.625361   14.961497   -1.744418
  36 H     1.0000    0     1.008    4.613877   14.235294    1.498328
  37 C     6.0000    0    12.011    1.550602   16.708724    0.315689
  38 H     1.0000    0     1.008    0.308854   16.940964   -1.348890
  39 H     1.0000    0     1.008    0.289130   16.248499    1.914775
  40 C     6.0000    0    12.011    2.940412   19.188787    0.844327
  41 H     1.0000    0     1.008    4.153195   19.031567    2.534216
  42 H     1.0000    0     1.008    4.168435   19.724854   -0.754532
  43 C     6.0000    0    12.011    7.736880   -0.353135   -0.169966
  44 H     1.0000    0     1.008   -9.561816    0.539405   -0.619335
  45 H     1.0000    0     1.008    9.758173   -0.489961   -0.115974
  46 H     1.0000    0     1.008   -3.024075  -13.636100    0.025435
  47 H     1.0000    0     1.008    1.608656   20.756787    1.169600

--------------------------------
INTERNAL COORDINATES (ANGSTROEM)
--------------------------------
 C      0   0   0     0.000000000000     0.00000000     0.00000000
 C      1   0   0     1.216117300565     0.00000000     0.00000000
 C      2   1   0     5.665248771760   178.67761451     0.00000000
 C      2   1   3     1.432613825907   179.61834457   348.16914013
 C      4   2   1     1.418654589576   120.66329900   197.73351178
 C      5   4   2     1.395465866938   117.29550747   179.95887674
 C      6   5   4     1.409278387283   122.34215469     0.00000000
 C      7   6   5     1.418632466811   120.36015666     0.00000000
 C      8   7   6     1.395459934866   117.30702135     0.00000000
 H      6   5   4     1.089750567201   120.02688666   180.00645413
 H      9   8   7     1.089800388089   120.02687508   179.94491344
 C      5   4   2     1.516767495352   119.93882327   359.96700702
 H     12   5   4     1.105622523053   108.16965870    56.29388234
 H     12   5   4     1.105582648123   108.18937256   303.69597780
 C     12   5   4     1.530891106325   116.83043287   179.97136075
 H     15  12   5     1.105693044963   109.85347588   301.66257700
 H     15  12   5     1.105673591743   109.89641577    58.16164100
 C     15  12   5     1.533484839186   112.62303170   179.90666597
 H     18  15  12     1.105869607301   109.21106582   302.19410671
 H     18  15  12     1.105853537794   109.21139386    57.50674665
 C     18  15  12     1.530740866611   113.17484615   179.86427273
 H     21  18  15     1.103773146214   111.28686982    59.72408227
 H     21  18  15     1.103747463839   111.29395931   299.99763367
 C      8   7   6     1.516571393193   119.87466156   179.99993926
 H     24   8   7     1.105554226519   108.14795404   304.21875343
 H     24   8   7     1.105689496596   108.20245639    56.80707413
 C     24   8   7     1.530565281228   116.85111328   180.55827679
 H     27  24   8     1.105128420309   109.98027970   301.48969527
 H     27  24   8     1.104408138057   110.12146284    58.39438627
 C     27  24   8     1.536010107097   112.39937940   180.00427198
 H     30  27  24     1.108379926733   109.69518902   303.12781338
 H     30  27  24     1.115269099821   108.58306519    56.70669984
 C     30  27  24     1.494644224834   114.06061672   179.72608076
 H     33  30  27     1.097498554175   118.13176450   330.19856581
 C     33  30  27     1.494374056272   121.90232074   165.79994611
 H     35  33  30     1.115733918676   109.95621207    72.46416976
 H     35  33  30     1.108831076602   109.62757730   318.15960031
 C     35  33  30     1.535803009478   114.20920583   194.69308218
 H     38  35  33     1.105802712550   108.94418458   302.64834308
 H     38  35  33     1.104979023347   108.93839463    57.84670394
 C     38  35  33     1.530204502947   113.23636774   180.38109264
 H     41  38  35     1.103849725868   111.27809064   300.15772310
 H     41  38  35     1.103909711919   111.29745378    59.83305319
 C      3   2   1     1.216129260056   178.63742761   187.23701788
 H      1   2   4     1.072451254423   179.88881240   298.38081564
 H     44   3   7     1.072451049778   179.90112472   313.93426540
 H     21  18  15     1.102120481651   111.49610538   179.85071443
 H     41  38  35     1.102162990591   111.52523936   180.02743401

---------------------------
INTERNAL COORDINATES (A.U.)
---------------------------
 C      0   0   0     0.000000000000     0.00000000     0.00000000
 C      1   0   0     2.298128644791     0.00000000     0.00000000
 C      2   1   0    10.705768659161   178.67761451     0.00000000
 C      2   1   3     2.707247786634   179.61834457   348.16914013
 C      4   2   1     2.680868652928   120.66329900   197.73351178
 C      5   4   2     2.637048317748   117.29550747   179.95887674
 C      6   5   4     2.663150198420   122.34215469     0.00000000
 C      7   6   5     2.680826846961   120.36015666     0.00000000
 C      8   7   6     2.637037107756   117.30702135     0.00000000
 H      6   5   4     2.059330126296   120.02688666   180.00645413
 H      9   8   7     2.059424274130   120.02687508   179.94491344
 C      5   4   2     2.866275175049   119.93882327   359.96700702
 H     12   5   4     2.089323776066   108.16965870    56.29388234
 H     12   5   4     2.089248423368   108.18937256   303.69597780
 C     12   5   4     2.892964931810   116.83043287   179.97136075
 H     15  12   5     2.089457043161   109.85347588   301.66257700
 H     15  12   5     2.089420281904   109.89641577    58.16164100
 C     15  12   5     2.897866376581   112.62303170   179.90666597
 H     18  15  12     2.089790697626   109.21106582   302.19410671
 H     18  15  12     2.089760330659   109.21139386    57.50674665
 C     18  15  12     2.892681019896   113.17484615   179.86427273
 H     21  18  15     2.085828960322   111.28686982    59.72408227
 H     21  18  15     2.085780427665   111.29395931   299.99763367
 C      8   7   6     2.865904595674   119.87466156   179.99993926
 H     24   8   7     2.089194714320   108.14795404   304.21875343
 H     24   8   7     2.089450337720   108.20245639    56.80707413
 C     24   8   7     2.892349211610   116.85111328   180.55827679
 H     27  24   8     2.088390057196   109.98027970   301.48969527
 H     27  24   8     2.087028921001   110.12146284    58.39438627
 C     27  24   8     2.902638441348   112.39937940   180.00427198
 H     30  27  24     2.094534513861   109.69518902   303.12781338
 H     30  27  24     2.107553164287   108.58306519    56.70669984
 C     30  27  24     2.824468252583   114.06061672   179.72608076
 H     33  30  27     2.073971699765   118.13176450   330.19856581
 C     33  30  27     2.823957707992   121.90232074   165.79994611
 H     35  33  30     2.108431544624   109.95621207    72.46416976
 H     35  33  30     2.095387063558   109.62757730   318.15960031
 C     35  33  30     2.902247083566   114.20920583   194.69308218
 H     38  35  33     2.089664284866   108.94418458   302.64834308
 H     38  35  33     2.088107737853   108.93839463    57.84670394
 C     38  35  33     2.891667439463   113.23636774   180.38109264
 H     41  38  35     2.085973674895   111.27809064   300.15772310
 H     41  38  35     2.086087032104   111.29745378    59.83305319
 C      3   2   1     2.298151244954   178.63742761   187.23701788
 H      1   2   4     2.026639162840   179.88881240   298.38081564
 H     44   3   7     2.026638776116   179.90112472   313.93426540
 H     21  18  15     2.082705876905   111.49610538   179.85071443
 H     41  38  35     2.082786207160   111.52523936   180.02743401

---------------------
BASIS SET INFORMATION
---------------------
There are 2 groups of distinct atoms

 Group   1 Type C   : 17s4p1d contracted to 3s2p1d pattern {881/31/1}
 Group   2 Type H   : 4s1p contracted to 2s1p pattern {31/1}

Atom   0C    basis set group =>   1
Atom   1C    basis set group =>   1
Atom   2C    basis set group =>   1
Atom   3C    basis set group =>   1
Atom   4C    basis set group =>   1
Atom   5C    basis set group =>   1
Atom   6C    basis set group =>   1
Atom   7C    basis set group =>   1
Atom   8C    basis set group =>   1
Atom   9H    basis set group =>   2
Atom  10H    basis set group =>   2
Atom  11C    basis set group =>   1
Atom  12H    basis set group =>   2
Atom  13H    basis set group =>   2
Atom  14C    basis set group =>   1
Atom  15H    basis set group =>   2
Atom  16H    basis set group =>   2
Atom  17C    basis set group =>   1
Atom  18H    basis set group =>   2
Atom  19H    basis set group =>   2
Atom  20C    basis set group =>   1
Atom  21H    basis set group =>   2
Atom  22H    basis set group =>   2
Atom  23C    basis set group =>   1
Atom  24H    basis set group =>   2
Atom  25H    basis set group =>   2
Atom  26C    basis set group =>   1
Atom  27H    basis set group =>   2
Atom  28H    basis set group =>   2
Atom  29C    basis set group =>   1
Atom  30H    basis set group =>   2
Atom  31H    basis set group =>   2
Atom  32C    basis set group =>   1
Atom  33H    basis set group =>   2
Atom  34C    basis set group =>   1
Atom  35H    basis set group =>   2
Atom  36H    basis set group =>   2
Atom  37C    basis set group =>   1
Atom  38H    basis set group =>   2
Atom  39H    basis set group =>   2
Atom  40C    basis set group =>   1
Atom  41H    basis set group =>   2
Atom  42H    basis set group =>   2
Atom  43C    basis set group =>   1
Atom  44H    basis set group =>   2
Atom  45H    basis set group =>   2
Atom  46H    basis set group =>   2
Atom  47H    basis set group =>   2
---------------------------------
AUXILIARY/J BASIS SET INFORMATION
---------------------------------
There are 2 groups of distinct atoms

 Group   1 Type C   : 14s11p10d2f contracted to 14s11p10d2f pattern {11111111111111/11111111111/1111111111/11}
 Group   2 Type H   : 9s2p1d contracted to 9s2p1d pattern {111111111/11/1}

Atom   0C    basis set group =>   1
Atom   1C    basis set group =>   1
Atom   2C    basis set group =>   1
Atom   3C    basis set group =>   1
Atom   4C    basis set group =>   1
Atom   5C    basis set group =>   1
Atom   6C    basis set group =>   1
Atom   7C    basis set group =>   1
Atom   8C    basis set group =>   1
Atom   9H    basis set group =>   2
Atom  10H    basis set group =>   2
Atom  11C    basis set group =>   1
Atom  12H    basis set group =>   2
Atom  13H    basis set group =>   2
Atom  14C    basis set group =>   1
Atom  15H    basis set group =>   2
Atom  16H    basis set group =>   2
Atom  17C    basis set group =>   1
Atom  18H    basis set group =>   2
Atom  19H    basis set group =>   2
Atom  20C    basis set group =>   1
Atom  21H    basis set group =>   2
Atom  22H    basis set group =>   2
Atom  23C    basis set group =>   1
Atom  24H    basis set group =>   2
Atom  25H    basis set group =>   2
Atom  26C    basis set group =>   1
Atom  27H    basis set group =>   2
Atom  28H    basis set group =>   2
Atom  29C    basis set group =>   1
Atom  30H    basis set group =>   2
Atom  31H    basis set group =>   2
Atom  32C    basis set group =>   1
Atom  33H    basis set group =>   2
Atom  34C    basis set group =>   1
Atom  35H    basis set group =>   2
Atom  36H    basis set group =>   2
Atom  37C    basis set group =>   1
Atom  38H    basis set group =>   2
Atom  39H    basis set group =>   2
Atom  40C    basis set group =>   1
Atom  41H    basis set group =>   2
Atom  42H    basis set group =>   2
Atom  43C    basis set group =>   1
Atom  44H    basis set group =>   2
Atom  45H    basis set group =>   2
Atom  46H    basis set group =>   2
Atom  47H    basis set group =>   2
---------------------------------
AUXILIARY/C BASIS SET INFORMATION
---------------------------------
There are 2 groups of distinct atoms

 Group   1 Type C   : 14s11p10d2f contracted to 14s11p10d2f pattern {11111111111111/11111111111/1111111111/11}
 Group   2 Type H   : 9s2p1d contracted to 9s2p1d pattern {111111111/11/1}

Atom   0C    basis set group =>   1
Atom   1C    basis set group =>   1
Atom   2C    basis set group =>   1
Atom   3C    basis set group =>   1
Atom   4C    basis set group =>   1
Atom   5C    basis set group =>   1
Atom   6C    basis set group =>   1
Atom   7C    basis set group =>   1
Atom   8C    basis set group =>   1
Atom   9H    basis set group =>   2
Atom  10H    basis set group =>   2
Atom  11C    basis set group =>   1
Atom  12H    basis set group =>   2
Atom  13H    basis set group =>   2
Atom  14C    basis set group =>   1
Atom  15H    basis set group =>   2
Atom  16H    basis set group =>   2
Atom  17C    basis set group =>   1
Atom  18H    basis set group =>   2
Atom  19H    basis set group =>   2
Atom  20C    basis set group =>   1
Atom  21H    basis set group =>   2
Atom  22H    basis set group =>   2
Atom  23C    basis set group =>   1
Atom  24H    basis set group =>   2
Atom  25H    basis set group =>   2
Atom  26C    basis set group =>   1
Atom  27H    basis set group =>   2
Atom  28H    basis set group =>   2
Atom  29C    basis set group =>   1
Atom  30H    basis set group =>   2
Atom  31H    basis set group =>   2
Atom  32C    basis set group =>   1
Atom  33H    basis set group =>   2
Atom  34C    basis set group =>   1
Atom  35H    basis set group =>   2
Atom  36H    basis set group =>   2
Atom  37C    basis set group =>   1
Atom  38H    basis set group =>   2
Atom  39H    basis set group =>   2
Atom  40C    basis set group =>   1
Atom  41H    basis set group =>   2
Atom  42H    basis set group =>   2
Atom  43C    basis set group =>   1
Atom  44H    basis set group =>   2
Atom  45H    basis set group =>   2
Atom  46H    basis set group =>   2
Atom  47H    basis set group =>   2
----------------------------------
AUXILIARY/JK BASIS SET INFORMATION
----------------------------------
There are 2 groups of distinct atoms

 Group   1 Type C   : 14s11p10d2f contracted to 14s11p10d2f pattern {11111111111111/11111111111/1111111111/11}
 Group   2 Type H   : 9s2p1d contracted to 9s2p1d pattern {111111111/11/1}

Atom   0C    basis set group =>   1
Atom   1C    basis set group =>   1
Atom   2C    basis set group =>   1
Atom   3C    basis set group =>   1
Atom   4C    basis set group =>   1
Atom   5C    basis set group =>   1
Atom   6C    basis set group =>   1
Atom   7C    basis set group =>   1
Atom   8C    basis set group =>   1
Atom   9H    basis set group =>   2
Atom  10H    basis set group =>   2
Atom  11C    basis set group =>   1
Atom  12H    basis set group =>   2
Atom  13H    basis set group =>   2
Atom  14C    basis set group =>   1
Atom  15H    basis set group =>   2
Atom  16H    basis set group =>   2
Atom  17C    basis set group =>   1
Atom  18H    basis set group =>   2
Atom  19H    basis set group =>   2
Atom  20C    basis set group =>   1
Atom  21H    basis set group =>   2
Atom  22H    basis set group =>   2
Atom  23C    basis set group =>   1
Atom  24H    basis set group =>   2
Atom  25H    basis set group =>   2
Atom  26C    basis set group =>   1
Atom  27H    basis set group =>   2
Atom  28H    basis set group =>   2
Atom  29C    basis set group =>   1
Atom  30H    basis set group =>   2
Atom  31H    basis set group =>   2
Atom  32C    basis set group =>   1
Atom  33H    basis set group =>   2
Atom  34C    basis set group =>   1
Atom  35H    basis set group =>   2
Atom  36H    basis set group =>   2
Atom  37C    basis set group =>   1
Atom  38H    basis set group =>   2
Atom  39H    basis set group =>   2
Atom  40C    basis set group =>   1
Atom  41H    basis set group =>   2
Atom  42H    basis set group =>   2
Atom  43C    basis set group =>   1
Atom  44H    basis set group =>   2
Atom  45H    basis set group =>   2
Atom  46H    basis set group =>   2
Atom  47H    basis set group =>   2
[1715009054.104832] [cascade-070:2560184:0]        mm_posix.c:174  UCX  ERROR   Not enough memory to write total of 8447 bytes. Please check that /dev/shm or the directory you specified has more available memory.
[1715009054.104870] [cascade-070:2560184:0]         uct_mem.c:155  UCX  ERROR   failed to allocate 8447 bytes using md posix for mm_recv_fifo: Out of memory
[1715009054.104875] [cascade-070:2560184:0]        mm_iface.c:679  UCX  ERROR mm_iface failed to allocate receive FIFO
[1715009054.106504] [cascade-070:2560190:0]        mm_posix.c:174  UCX  ERROR   Not enough memory to write total of 8447 bytes. Please check that /dev/shm or the directory you specified has more available memory.
[1715009054.106531] [cascade-070:2560190:0]         uct_mem.c:155  UCX  ERROR   failed to allocate 8447 bytes using md posix for mm_recv_fifo: Out of memory
[1715009054.106537] [cascade-070:2560190:0]        mm_iface.c:679  UCX  ERROR mm_iface failed to allocate receive FIFO
[1715009054.108779] [cascade-070:2560181:0]        mm_posix.c:174  UCX  ERROR   Not enough memory to write total of 8447 bytes. Please check that /dev/shm or the directory you specified has more available memory.
[1715009054.108803] [cascade-070:2560181:0]         uct_mem.c:155  UCX  ERROR   failed to allocate 8447 bytes using md posix for mm_recv_fifo: Out of memory
[1715009054.108809] [cascade-070:2560181:0]        mm_iface.c:679  UCX  ERROR mm_iface failed to allocate receive FIFO
[1715009054.110718] [cascade-070:2560186:0]        mm_posix.c:174  UCX  ERROR   Not enough memory to write total of 8447 bytes. Please check that /dev/shm or the directory you specified has more available memory.
[1715009054.110742] [cascade-070:2560186:0]         uct_mem.c:155  UCX  ERROR   failed to allocate 8447 bytes using md posix for mm_recv_fifo: Out of memory
[1715009054.110747] [cascade-070:2560186:0]        mm_iface.c:679  UCX  ERROR mm_iface failed to allocate receive FIFO
[1715009054.112837] [cascade-070:2560193:0]        mm_posix.c:174  UCX  ERROR   Not enough memory to write total of 8447 bytes. Please check that /dev/shm or the directory you specified has more available memory.
[1715009054.112860] [cascade-070:2560193:0]         uct_mem.c:155  UCX  ERROR   failed to allocate 8447 bytes using md posix for mm_recv_fifo: Out of memory
[1715009054.112866] [cascade-070:2560193:0]        mm_iface.c:679  UCX  ERROR mm_iface failed to allocate receive FIFO
[1715009054.114774] [cascade-070:2560187:0]        mm_posix.c:174  UCX  ERROR   Not enough memory to write total of 8447 bytes. Please check that /dev/shm or the directory you specified has more available memory.
[1715009054.114798] [cascade-070:2560187:0]         uct_mem.c:155  UCX  ERROR   failed to allocate 8447 bytes using md posix for mm_recv_fifo: Out of memory
[1715009054.114804] [cascade-070:2560187:0]        mm_iface.c:679  UCX  ERROR mm_iface failed to allocate receive FIFO
[1715009054.117096] [cascade-070:2560185:0]        mm_posix.c:174  UCX  ERROR   Not enough memory to write total of 8447 bytes. Please check that /dev/shm or the directory you specified has more available memory.
[1715009054.117120] [cascade-070:2560185:0]         uct_mem.c:155  UCX  ERROR   failed to allocate 8447 bytes using md posix for mm_recv_fifo: Out of memory
[1715009054.117126] [cascade-070:2560185:0]        mm_iface.c:679  UCX  ERROR mm_iface failed to allocate receive FIFO
[1715009054.118840] [cascade-070:2560191:0]        mm_posix.c:174  UCX  ERROR   Not enough memory to write total of 8447 bytes. Please check that /dev/shm or the directory you specified has more available memory.
[1715009054.118864] [cascade-070:2560191:0]         uct_mem.c:155  UCX  ERROR   failed to allocate 8447 bytes using md posix for mm_recv_fifo: Out of memory
[1715009054.118869] [cascade-070:2560191:0]        mm_iface.c:679  UCX  ERROR mm_iface failed to allocate receive FIFO
[1715009054.121235] [cascade-070:2560195:0]        mm_posix.c:174  UCX  ERROR   Not enough memory to write total of 8447 bytes. Please check that /dev/shm or the directory you specified has more available memory.
[1715009054.121258] [cascade-070:2560195:0]         uct_mem.c:155  UCX  ERROR   failed to allocate 8447 bytes using md posix for mm_recv_fifo: Out of memory
[1715009054.121264] [cascade-070:2560195:0]        mm_iface.c:679  UCX  ERROR mm_iface failed to allocate receive FIFO
[1715009054.123196] [cascade-070:2560180:0]        mm_posix.c:174  UCX  ERROR   Not enough memory to write total of 8447 bytes. Please check that /dev/shm or the directory you specified has more available memory.
[1715009054.123219] [cascade-070:2560180:0]         uct_mem.c:155  UCX  ERROR   failed to allocate 8447 bytes using md posix for mm_recv_fifo: Out of memory
[1715009054.123225] [cascade-070:2560180:0]        mm_iface.c:679  UCX  ERROR mm_iface failed to allocate receive FIFO
[1715009054.125224] [cascade-070:2560183:0]        mm_posix.c:174  UCX  ERROR   Not enough memory to write total of 8447 bytes. Please check that /dev/shm or the directory you specified has more available memory.
[1715009054.125247] [cascade-070:2560183:0]         uct_mem.c:155  UCX  ERROR   failed to allocate 8447 bytes using md posix for mm_recv_fifo: Out of memory
[1715009054.125253] [cascade-070:2560183:0]        mm_iface.c:679  UCX  ERROR mm_iface failed to allocate receive FIFO
[1715009054.127110] [cascade-070:2560188:0]        mm_posix.c:174  UCX  ERROR   Not enough memory to write total of 8447 bytes. Please check that /dev/shm or the directory you specified has more available memory.
[1715009054.127138] [cascade-070:2560188:0]         uct_mem.c:155  UCX  ERROR   failed to allocate 8447 bytes using md posix for mm_recv_fifo: Out of memory
[1715009054.127146] [cascade-070:2560188:0]        mm_iface.c:679  UCX  ERROR mm_iface failed to allocate receive FIFO
[1715009054.136607] [cascade-070:2560196:0]        mm_posix.c:174  UCX  ERROR   Not enough memory to write total of 8447 bytes. Please check that /dev/shm or the directory you specified has more available memory.
[1715009054.136639] [cascade-070:2560196:0]         uct_mem.c:155  UCX  ERROR   failed to allocate 8447 bytes using md posix for mm_recv_fifo: Out of memory
[1715009054.136645] [cascade-070:2560196:0]        mm_iface.c:679  UCX  ERROR mm_iface failed to allocate receive FIFO
[1715009054.138744] [cascade-070:2560194:0]        mm_posix.c:174  UCX  ERROR   Not enough memory to write total of 8447 bytes. Please check that /dev/shm or the directory you specified has more available memory.
[1715009054.138770] [cascade-070:2560194:0]         uct_mem.c:155  UCX  ERROR   failed to allocate 8447 bytes using md posix for mm_recv_fifo: Out of memory
[1715009054.138775] [cascade-070:2560194:0]        mm_iface.c:679  UCX  ERROR mm_iface failed to allocate receive FIFO
[1715009054.140616] [cascade-070:2560192:0]        mm_posix.c:174  UCX  ERROR   Not enough memory to write total of 8447 bytes. Please check that /dev/shm or the directory you specified has more available memory.
[1715009054.140641] [cascade-070:2560192:0]         uct_mem.c:155  UCX  ERROR   failed to allocate 8447 bytes using md posix for mm_recv_fifo: Out of memory
[1715009054.140647] [cascade-070:2560192:0]        mm_iface.c:679  UCX  ERROR mm_iface failed to allocate receive FIFO
[1715009054.149329] [cascade-070:2560189:0]        mm_posix.c:174  UCX  ERROR   Not enough memory to write total of 8447 bytes. Please check that /dev/shm or the directory you specified has more available memory.
[1715009054.149355] [cascade-070:2560189:0]         uct_mem.c:155  UCX  ERROR   failed to allocate 8447 bytes using md posix for mm_recv_fifo: Out of memory
[1715009054.149360] [cascade-070:2560189:0]        mm_iface.c:679  UCX  ERROR mm_iface failed to allocate receive FIFO


           ************************************************************
           *        Program running with 16 parallel MPI-processes    *
           *              working on a common directory               *
           ************************************************************
------------------------------------------------------------------------------
                           ORCA GTO INTEGRAL CALCULATION
                           -- RI-GTO INTEGRALS CHOSEN --
------------------------------------------------------------------------------
------------------------------------------------------------------------------
                   ___                                                        
                  /   \      - P O W E R E D   B Y -                         
                 /     \                                                     
                 |  |  |   _    _      __       _____    __    __             
                 |  |  |  | |  | |    /  \     |  _  \  |  |  /  |          
                  \  \/   | |  | |   /    \    | | | |  |  | /  /          
                 / \  \   | |__| |  /  /\  \   | |_| |  |  |/  /          
                |  |  |   |  __  | /  /__\  \  |    /   |      \           
                |  |  |   | |  | | |   __   |  |    \   |  |\   \          
                \     /   | |  | | |  |  |  |  | |\  \  |  | \   \       
                 \___/    |_|  |_| |__|  |__|  |_| \__\ |__|  \__/        
                                                                              
                      - O R C A' S   B I G   F R I E N D -                    
                                      &                                       
                       - I N T E G R A L  F E E D E R -                       
                                                                              
 v1 FN, 2020, v2 2021                                                         
------------------------------------------------------------------------------


Reading SHARK input file cc-pVDZ.SHARKINP.tmp ... 
ORCA finished by error termination in GTOInt
Calling Command: mpirun -np 16  /hits/basement/mbm/sucerquia/sw/orca/orca_5_0_4_linux_x86-64_openmpi411/orca_gtoint_mpi cc-pVDZ.int.tmp cc-pVDZ 
[file orca_tools/qcmsg.cpp, line 465]: 
  .... aborting the run

