
                                 *****************
                                 * O   R   C   A *
                                 *****************

                                            #,                                       
                                            ###                                      
                                            ####                                     
                                            #####                                    
                                            ######                                   
                                           ########,                                 
                                     ,,################,,,,,                         
                               ,,#################################,,                 
                          ,,##########################################,,             
                       ,#########################################, ''#####,          
                    ,#############################################,,   '####,        
                  ,##################################################,,,,####,       
                ,###########''''           ''''###############################       
              ,#####''   ,,,,##########,,,,          '''####'''          '####       
            ,##' ,,,,###########################,,,                        '##       
           ' ,,###''''                  '''############,,,                           
         ,,##''                                '''############,,,,        ,,,,,,###''
      ,#''                                            '''#######################'''  
     '                                                          ''''####''''         
             ,#######,   #######,   ,#######,      ##                                
            ,#'     '#,  ##    ##  ,#'     '#,    #''#        ######   ,####,        
            ##       ##  ##   ,#'  ##            #'  '#       #        #'  '#        
            ##       ##  #######   ##           ,######,      #####,   #    #        
            '#,     ,#'  ##    ##  '#,     ,#' ,#      #,         ##   #,  ,#        
             '#######'   ##     ##  '#######'  #'      '#     #####' # '####'        



                  #######################################################
                  #                        -***-                        #
                  #          Department of theory and spectroscopy      #
                  #    Directorship and core code : Frank Neese         #
                  #        Max Planck Institute fuer Kohlenforschung    #
                  #                Kaiser Wilhelm Platz 1               #
                  #                 D-45470 Muelheim/Ruhr               #
                  #                      Germany                        #
                  #                                                     #
                  #                  All rights reserved                #
                  #                        -***-                        #
                  #######################################################


                         Program Version 5.0.4 -  RELEASE  -


 With contributions from (in alphabetic order):
   Daniel Aravena         : Magnetic Suceptibility
   Michael Atanasov       : Ab Initio Ligand Field Theory (pilot matlab implementation)
   Alexander A. Auer      : GIAO ZORA, VPT2 properties, NMR spectrum
   Ute Becker             : Parallelization
   Giovanni Bistoni       : ED, misc. LED, open-shell LED, HFLD
   Martin Brehm           : Molecular dynamics
   Dmytro Bykov           : SCF Hessian
   Vijay G. Chilkuri      : MRCI spin determinant printing, contributions to CSF-ICE
   Dipayan Datta          : RHF DLPNO-CCSD density
   Achintya Kumar Dutta   : EOM-CC, STEOM-CC
   Dmitry Ganyushin       : Spin-Orbit,Spin-Spin,Magnetic field MRCI
   Miquel Garcia          : C-PCM and meta-GGA Hessian, CC/C-PCM, Gaussian charge scheme
   Yang Guo               : DLPNO-NEVPT2, F12-NEVPT2, CIM, IAO-localization
   Andreas Hansen         : Spin unrestricted coupled pair/coupled cluster methods
   Benjamin Helmich-Paris : MC-RPA, TRAH-SCF, COSX integrals
   Lee Huntington         : MR-EOM, pCC
   Robert Izsak           : Overlap fitted RIJCOSX, COSX-SCS-MP3, EOM
   Marcus Kettner         : VPT2
   Christian Kollmar      : KDIIS, OOCD, Brueckner-CCSD(T), CCSD density, CASPT2, CASPT2-K
   Simone Kossmann        : Meta GGA functionals, TD-DFT gradient, OOMP2, MP2 Hessian
   Martin Krupicka        : Initial AUTO-CI
   Lucas Lang             : DCDCAS
   Marvin Lechner         : AUTO-CI (C++ implementation), FIC-MRCC
   Dagmar Lenk            : GEPOL surface, SMD
   Dimitrios Liakos       : Extrapolation schemes; Compound Job, initial MDCI parallelization
   Dimitrios Manganas     : Further ROCIS development; embedding schemes
   Dimitrios Pantazis     : SARC Basis sets
   Anastasios Papadopoulos: AUTO-CI, single reference methods and gradients
   Taras Petrenko         : DFT Hessian,TD-DFT gradient, ASA, ECA, R-Raman, ABS, FL, XAS/XES, NRVS
   Peter Pinski           : DLPNO-MP2, DLPNO-MP2 Gradient
   Christoph Reimann      : Effective Core Potentials
   Marius Retegan         : Local ZFS, SOC
   Christoph Riplinger    : Optimizer, TS searches, QM/MM, DLPNO-CCSD(T), (RO)-DLPNO pert. Triples
   Tobias Risthaus        : Range-separated hybrids, TD-DFT gradient, RPA, STAB
   Michael Roemelt        : Original ROCIS implementation
   Masaaki Saitow         : Open-shell DLPNO-CCSD energy and density
   Barbara Sandhoefer     : DKH picture change effects
   Avijit Sen             : IP-ROCIS
   Kantharuban Sivalingam : CASSCF convergence, NEVPT2, FIC-MRCI
   Bernardo de Souza      : ESD, SOC TD-DFT
   Georgi Stoychev        : AutoAux, RI-MP2 NMR, DLPNO-MP2 response
   Willem Van den Heuvel  : Paramagnetic NMR
   Boris Wezisla          : Elementary symmetry handling
   Frank Wennmohs         : Technical directorship


 We gratefully acknowledge several colleagues who have allowed us to
 interface, adapt or use parts of their codes:
   Stefan Grimme, W. Hujo, H. Kruse, P. Pracht,  : VdW corrections, initial TS optimization,
                  C. Bannwarth, S. Ehlert          DFT functionals, gCP, sTDA/sTD-DF
   Ed Valeev, F. Pavosevic, A. Kumar             : LibInt (2-el integral package), F12 methods
   Garnet Chan, S. Sharma, J. Yang, R. Olivares  : DMRG
   Ulf Ekstrom                                   : XCFun DFT Library
   Mihaly Kallay                                 : mrcc  (arbitrary order and MRCC methods)
   Jiri Pittner, Ondrej Demel                    : Mk-CCSD
   Frank Weinhold                                : gennbo (NPA and NBO analysis)
   Christopher J. Cramer and Donald G. Truhlar   : smd solvation model
   Lars Goerigk                                  : TD-DFT with DH, B97 family of functionals
   V. Asgeirsson, H. Jonsson                     : NEB implementation
   FAccTs GmbH                                   : IRC, NEB, NEB-TS, DLPNO-Multilevel, CI-OPT
                                                   MM, QMMM, 2- and 3-layer-ONIOM, Crystal-QMMM,
                                                   LR-CPCM, SF, NACMEs, symmetry and pop. for TD-DFT,
                                                   nearIR, NL-DFT gradient (VV10), updates on ESD,
                                                   ML-optimized integration grids
   S Lehtola, MJT Oliveira, MAL Marques          : LibXC Library
   Liviu Ungur et al                             : ANISO software


 Your calculation uses the libint2 library for the computation of 2-el integrals
 For citations please refer to: http://libint.valeyev.net

 Your ORCA version has been built with support for libXC version: 5.1.0
 For citations please refer to: https://tddft.org/programs/libxc/

 This ORCA versions uses:
   CBLAS   interface :  Fast vector & matrix operations
   LAPACKE interface :  Fast linear algebra routines
   SCALAPACK package :  Parallel linear algebra routines
   Shared memory     :  Shared parallel matrices
   BLAS/LAPACK       :  OpenBLAS 0.3.15  USE64BITINT DYNAMIC_ARCH NO_AFFINITY SkylakeX SINGLE_THREADED
        Core in use  :  SkylakeX
   Copyright (c) 2011-2014, The OpenBLAS Project




***************************************
The coordinates will be read from file: opt_cc-pVDZ.xyz
***************************************


================================================================================

----- Orbital basis set information -----
Your calculation utilizes the basis: cc-pVDZ 
       H, B-Ne : Obtained from the ccRepo (grant-hill.group.shef.ac.uk/ccrepo) Feb. 2017
                 T. H. Dunning, Jr., J. Chem. Phys. 90, 1007 (1989)
            He : Obtained from the ccRepo (grant-hill.group.shef.ac.uk/ccrepo) Feb. 2017
                 D. E. Woon, T. H. Dunning, Jr., J. Chem. Phys. 100, 2975 (1994)
  Li-Be, Na-Mg : Obtained from the ccRepo (grant-hill.group.shef.ac.uk/ccrepo) Feb. 2017
                 B. P. Prascher, D. E. Woon, K. A. Peterson, T. H. Dunning, Jr., A. K. Wilson, Theor. Chem. Acc. 128, 69 (2011)
         Al-Ar : Obtained from the ccRepo (grant-hill.group.shef.ac.uk/ccrepo) Feb. 2017
                 D. E. Woon, T. H. Dunning, Jr., J. Chem. Phys. 98, 1358 (1993)
            Ca : Obtained from the Peterson Research Group Website (tyr0.chem.wsu.edu/~kipeters) Feb. 2017
                 J. Koput, K. A. Peterson, J. Phys. Chem. 106, 9595 (2002)
         Sc-Zn : Obtained from the ccRepo (grant-hill.group.shef.ac.uk/ccrepo) Feb. 2017
                 N. B. Balabanov, K. A. Peterson, J. Chem. Phys. 123, 064107 (2005)
                 N. B. Balabanov, K. A. Peterson, J. Chem. Phys. 125, 074110 (2006)
         Ga-Kr : Obtained from the ccRepo (grant-hill.group.shef.ac.uk/ccrepo) Feb. 2017
                 A. K. Wilson, D. E. Woon, K. A. Peterson, T. H. Dunning, Jr., J. Chem. Phys. 110, 7667 (1999)

----- AuxJ basis set information -----
Your calculation utilizes the AutoAux generation procedure.
  G. L. Stoychev, A. A. Auer, F. Neese, J. Chem. Theory Comput. 13, 554 (2017)

----- AuxC basis set information -----
Your calculation utilizes the AutoAux generation procedure.
  G. L. Stoychev, A. A. Auer, F. Neese, J. Chem. Theory Comput. 13, 554 (2017)

----- AuxJK basis set information -----
Your calculation utilizes the AutoAux generation procedure.
  G. L. Stoychev, A. A. Auer, F. Neese, J. Chem. Theory Comput. 13, 554 (2017)

================================================================================
                                        WARNINGS
                       Please study these warnings very carefully!
================================================================================


WARNING: your system is open-shell and RHF/RKS was chosen
  ===> : WILL SWITCH to UHF/UKS


INFO   : the flag for use of the SHARK integral package has been found!

================================================================================
                                       INPUT FILE
================================================================================
NAME = cc-pVDZ.inp
|  1> ! B3LYP cc-pVDZ AUTOAUX
|  2> %pal nprocs 16 end
|  3> *XYZFile 0 2 opt_cc-pVDZ.xyz
|  4> %EPRNMR
|  5>         GTENSOR   TRUE
|  6>         NUCLEI    = ALL H {SHIFT, AISO, ADIP, AORB}
|  7>         ORI       CenterOfElCharge
|  8> END
|  9> 
| 10>                          ****END OF INPUT****
================================================================================

                       ****************************
                       * Single Point Calculation *
                       ****************************

---------------------------------
CARTESIAN COORDINATES (ANGSTROEM)
---------------------------------
  C     -3.990474    0.213479   -0.298481
  C     -2.777441    0.134144   -0.263858
  C      2.880897   -0.106043   -0.120379
  C     -1.347815    0.049669   -0.226224
  C     -0.698776   -1.210494   -0.168570
  C      0.696296   -1.210879   -0.135530
  C      1.451284   -0.021100   -0.157551
  C      0.802212    1.239014   -0.215171
  C     -0.592868    1.239641   -0.247866
  H      1.240450   -2.154000   -0.091082
  H     -1.136912    2.182924   -0.291454
  C     -1.520782   -2.484996   -0.145490
  H     -2.176636   -2.488439   -1.035570
  H     -2.218060   -2.430466    0.710748
  C     -0.747611   -3.804844   -0.083670
  H     -0.066124   -3.881843   -0.950966
  H     -0.105187   -3.822789    0.816044
  C     -1.670990   -5.028982   -0.062709
  H     -2.353926   -4.954869    0.803925
  H     -2.318086   -5.012047   -0.959309
  C     -0.910579   -6.356190   -0.003882
  H     -0.279930   -6.416960    0.899945
  H     -0.247011   -6.477025   -0.877573
  C      1.625503    2.512447   -0.238701
  H      2.287808    2.510699    0.646515
  H      2.316549    2.461102   -1.100306
  C      0.854202    3.833514   -0.288322
  H      0.209212    3.860788   -1.185293
  H      0.179615    3.912600    0.582541
  C      1.785706    5.054697   -0.308651
  H      2.452363    5.030736    0.576528
  H      2.476200    4.960447   -1.179361
  C      1.070499    6.365994   -0.363119
  H      0.094601    6.402918   -0.863870
  C      1.766767    7.657330   -0.078817
  H      2.447342    7.917413   -0.923811
  H      2.441944    7.532628    0.791881
  C      0.820963    8.842124    0.167214
  H      0.163448    8.965423   -0.713282
  H      0.153759    8.598599    1.013688
  C      1.557033   10.154162    0.446888
  H      2.199385   10.070464    1.340682
  H      2.206392   10.437938   -0.399527
  C      4.093969   -0.186466   -0.089393
  H     -5.060140    0.285000   -0.327657
  H      5.163597   -0.258788   -0.060858
  H     -1.599741   -7.216105    0.012542
  H      0.852686   10.984082    0.619795

----------------------------
CARTESIAN COORDINATES (A.U.)
----------------------------
  NO LB      ZA    FRAG     MASS         X           Y           Z
   0 C     6.0000    0    12.011   -7.540902    0.403416   -0.564047
   1 C     6.0000    0    12.011   -5.248603    0.253496   -0.498619
   2 C     6.0000    0    12.011    5.444106   -0.200393   -0.227482
   3 C     6.0000    0    12.011   -2.547002    0.093861   -0.427500
   4 C     6.0000    0    12.011   -1.320496   -2.287502   -0.318551
   5 C     6.0000    0    12.011    1.315808   -2.288230   -0.256115
   6 C     6.0000    0    12.011    2.742530   -0.039873   -0.297729
   7 C     6.0000    0    12.011    1.515960    2.341397   -0.406614
   8 C     6.0000    0    12.011   -1.120359    2.342582   -0.468399
   9 H     1.0000    0     1.008    2.344111   -4.070470   -0.172120
  10 H     1.0000    0     1.008   -2.148451    4.125128   -0.550769
  11 C     6.0000    0    12.011   -2.873861   -4.695962   -0.274936
  12 H     1.0000    0     1.008   -4.113245   -4.702468   -1.956944
  13 H     1.0000    0     1.008   -4.191527   -4.592915    1.343120
  14 C     6.0000    0    12.011   -1.412780   -7.190113   -0.158113
  15 H     1.0000    0     1.008   -0.124957   -7.335620   -1.797064
  16 H     1.0000    0     1.008   -0.198775   -7.224024    1.542100
  17 C     6.0000    0    12.011   -3.157713   -9.503399   -0.118503
  18 H     1.0000    0     1.008   -4.448275   -9.363345    1.519197
  19 H     1.0000    0     1.008   -4.380547   -9.471397   -1.812831
  20 C     6.0000    0    12.011   -1.720745  -12.011458   -0.007336
  21 H     1.0000    0     1.008   -0.528990  -12.126296    1.700649
  22 H     1.0000    0     1.008   -0.466784  -12.239803   -1.658373
  23 C     6.0000    0    12.011    3.071756    4.747838   -0.451080
  24 H     1.0000    0     1.008    4.323330    4.744533    1.221736
  25 H     1.0000    0     1.008    4.377644    4.650808   -2.079276
  26 C     6.0000    0    12.011    1.614208    7.244291   -0.544849
  27 H     1.0000    0     1.008    0.395353    7.295832   -2.239879
  28 H     1.0000    0     1.008    0.339423    7.393743    1.100844
  29 C     6.0000    0    12.011    3.374496    9.551993   -0.583266
  30 H     1.0000    0     1.008    4.634294    9.506713    1.089481
  31 H     1.0000    0     1.008    4.679340    9.373887   -2.228670
  32 C     6.0000    0    12.011    2.022950   12.029985   -0.686195
  33 H     1.0000    0     1.008    0.178770   12.099762   -1.632478
  34 C     6.0000    0    12.011    3.338707   14.470257   -0.148942
  35 H     1.0000    0     1.008    4.624807   14.961742   -1.745749
  36 H     1.0000    0     1.008    4.614606   14.234604    1.496438
  37 C     6.0000    0    12.011    1.551396   16.709192    0.315989
  38 H     1.0000    0     1.008    0.308872   16.942194   -1.347908
  39 H     1.0000    0     1.008    0.290562   16.248996    1.915593
  40 C     6.0000    0    12.011    2.942366   19.188585    0.844495
  41 H     1.0000    0     1.008    4.156235   19.030420    2.533521
  42 H     1.0000    0     1.008    4.169477   19.724845   -0.754997
  43 C     6.0000    0    12.011    7.736480   -0.352369   -0.168928
  44 H     1.0000    0     1.008   -9.562279    0.538572   -0.619182
  45 H     1.0000    0     1.008    9.757784   -0.489038   -0.115005
  46 H     1.0000    0     1.008   -3.023073  -13.636463    0.023700
  47 H     1.0000    0     1.008    1.611343   20.756907    1.171243

--------------------------------
INTERNAL COORDINATES (ANGSTROEM)
--------------------------------
 C      0   0   0     0.000000000000     0.00000000     0.00000000
 C      1   0   0     1.216117048964     0.00000000     0.00000000
 C      2   1   0     5.665250845458   178.67690058     0.00000000
 C      2   1   3     1.432613641180   179.61839919   348.51471949
 C      4   2   1     1.418656911374   120.66342226   197.48915390
 C      5   4   2     1.395463399374   117.29562187   179.95563944
 C      6   5   4     1.409279329350   122.34211427     0.00000000
 C      7   6   5     1.418626585465   120.36014119     0.00000000
 C      8   7   6     1.395463207708   117.30719735     0.00000000
 H      6   5   4     1.089750611707   120.02668432   180.00503417
 H      9   8   7     1.089800685934   120.02663200   179.94500310
 C      5   4   2     1.516766341709   119.93889579   359.96566536
 H     12   5   4     1.105621851246   108.17066398    56.28753182
 H     12   5   4     1.105583610811   108.18819747   303.68982800
 C     12   5   4     1.530886647860   116.83009643   179.96689466
 H     15  12   5     1.105691648918   109.85535805   301.67706615
 H     15  12   5     1.105674457952   109.89498223    58.17654675
 C     15  12   5     1.533486934293   112.62308235   179.92243918
 H     18  15  12     1.105869968237   109.21233816   302.21020716
 H     18  15  12     1.105853184166   109.21055803    57.52293167
 C     18  15  12     1.530740091535   113.17463012   179.87961782
 H     21  18  15     1.103772867665   111.28655044    59.73184939
 H     21  18  15     1.103747911436   111.29376926   300.00545303
 C      8   7   6     1.516573614468   119.87476155   180.01400651
 H     24   8   7     1.105557659475   108.14726392   304.20113623
 H     24   8   7     1.105686759515   108.20289873    56.79042516
 C     24   8   7     1.530550087108   116.85196812   180.54152745
 H     27  24   8     1.105130525235   109.98226514   301.48185071
 H     27  24   8     1.104411466795   110.12411363    58.38797032
 C     27  24   8     1.536034686535   112.39775374   179.99864835
 H     30  27  24     1.108398893802   109.69353459   303.15347104
 H     30  27  24     1.115258215389   108.57888004    56.70894640
 C     30  27  24     1.494652755992   114.06616069   179.74837481
 H     33  30  27     1.097494019470   118.14071046   330.21628955
 C     33  30  27     1.494378321848   121.88659648   165.80827816
 H     35  33  30     1.115723905966   109.97181459    72.48294426
 H     35  33  30     1.108841226921   109.62789594   318.18794351
 C     35  33  30     1.535842757822   114.21516115   194.72016183
 H     38  35  33     1.105804126030   108.94324381   302.64514087
 H     38  35  33     1.104981647181   108.93795562    57.84153776
 C     38  35  33     1.530183016459   113.23485052   180.37660150
 H     41  38  35     1.103851735232   111.27836734   300.16845774
 H     41  38  35     1.103908620284   111.29934569    59.84525482
 C      3   2   1     1.216129597064   178.63812476   187.45895279
 H      1   2   4     1.072451998093   179.88953708   299.69912567
 H     44   3   7     1.072449899166   179.90087495   315.37611192
 H     21  18  15     1.102120298937   111.49623828   179.85876125
 H     41  38  35     1.102166028654   111.52504963   180.04034595

---------------------------
INTERNAL COORDINATES (A.U.)
---------------------------
 C      0   0   0     0.000000000000     0.00000000     0.00000000
 C      1   0   0     2.298128169335     0.00000000     0.00000000
 C      2   1   0    10.705772577881   178.67690058     0.00000000
 C      2   1   3     2.707247437549   179.61839919   348.51471949
 C      4   2   1     2.680873040492   120.66342226   197.48915390
 C      5   4   2     2.637043654727   117.29562187   179.95563944
 C      6   5   4     2.663151978668   122.34211427     0.00000000
 C      7   6   5     2.680815732828   120.36014119     0.00000000
 C      8   7   6     2.637043292532   117.30719735     0.00000000
 H      6   5   4     2.059330210400   120.02668432   180.00503417
 H      9   8   7     2.059424836974   120.02663200   179.94500310
 C      5   4   2     2.866272994980   119.93889579   359.96566536
 H     12   5   4     2.089322506534   108.17066398    56.28753182
 H     12   5   4     2.089250242585   108.18819747   303.68982800
 C     12   5   4     2.892956506533   116.83009643   179.96689466
 H     15  12   5     2.089454405019   109.85535805   301.67706615
 H     15  12   5     2.089421918802   109.89498223    58.17654675
 C     15  12   5     2.897870335760   112.62308235   179.92243918
 H     18  15  12     2.089791379697   109.21233816   302.21020716
 H     18  15  12     2.089759662399   109.21055803    57.52293167
 C     18  15  12     2.892679555216   113.17463012   179.87961782
 H     21  18  15     2.085828433940   111.28655044    59.73184939
 H     21  18  15     2.085781273501   111.29376926   300.00545303
 C      8   7   6     2.865908793276   119.87476155   180.01400651
 H     24   8   7     2.089201201667   108.14726392   304.20113623
 H     24   8   7     2.089445165387   108.20289873    56.79042516
 C     24   8   7     2.892320498883   116.85196812   180.54152745
 H     27  24   8     2.088394034931   109.98226514   301.48185071
 H     27  24   8     2.087035211405   110.12411363    58.38797032
 C     27  24   8     2.902684889755   112.39775374   179.99864835
 H     30  27  24     2.094570356427   109.69353459   303.15347104
 H     30  27  24     2.107532595691   108.57888004    56.70894640
 C     30  27  24     2.824484374136   114.06616069   179.74837481
 H     33  30  27     2.073963130414   118.14071046   330.21628955
 C     33  30  27     2.823965768761   121.88659648   165.80827816
 H     35  33  30     2.108412623345   109.97181459    72.48294426
 H     35  33  30     2.095406244882   109.62789594   318.18794351
 C     35  33  30     2.902322197049   114.21516115   194.72016183
 H     38  35  33     2.089666955956   108.94324381   302.64514087
 H     38  35  33     2.088112696182   108.93795562    57.84153776
 C     38  35  33     2.891626835885   113.23485052   180.37660150
 H     41  38  35     2.085977472041   111.27836734   300.16845774
 H     41  38  35     2.086084969212   111.29934569    59.84525482
 C      3   2   1     2.298151881808   178.63812476   187.45895279
 H      1   2   4     2.026640568173   179.88953708   299.69912567
 H     44   3   7     2.026636601775   179.90087495   315.37611192
 H     21  18  15     2.082705531626   111.49623828   179.85876125
 H     41  38  35     2.082791948268   111.52504963   180.04034595

---------------------
BASIS SET INFORMATION
---------------------
There are 2 groups of distinct atoms

 Group   1 Type C   : 17s4p1d contracted to 3s2p1d pattern {881/31/1}
 Group   2 Type H   : 4s1p contracted to 2s1p pattern {31/1}

Atom   0C    basis set group =>   1
Atom   1C    basis set group =>   1
Atom   2C    basis set group =>   1
Atom   3C    basis set group =>   1
Atom   4C    basis set group =>   1
Atom   5C    basis set group =>   1
Atom   6C    basis set group =>   1
Atom   7C    basis set group =>   1
Atom   8C    basis set group =>   1
Atom   9H    basis set group =>   2
Atom  10H    basis set group =>   2
Atom  11C    basis set group =>   1
Atom  12H    basis set group =>   2
Atom  13H    basis set group =>   2
Atom  14C    basis set group =>   1
Atom  15H    basis set group =>   2
Atom  16H    basis set group =>   2
Atom  17C    basis set group =>   1
Atom  18H    basis set group =>   2
Atom  19H    basis set group =>   2
Atom  20C    basis set group =>   1
Atom  21H    basis set group =>   2
Atom  22H    basis set group =>   2
Atom  23C    basis set group =>   1
Atom  24H    basis set group =>   2
Atom  25H    basis set group =>   2
Atom  26C    basis set group =>   1
Atom  27H    basis set group =>   2
Atom  28H    basis set group =>   2
Atom  29C    basis set group =>   1
Atom  30H    basis set group =>   2
Atom  31H    basis set group =>   2
Atom  32C    basis set group =>   1
Atom  33H    basis set group =>   2
Atom  34C    basis set group =>   1
Atom  35H    basis set group =>   2
Atom  36H    basis set group =>   2
Atom  37C    basis set group =>   1
Atom  38H    basis set group =>   2
Atom  39H    basis set group =>   2
Atom  40C    basis set group =>   1
Atom  41H    basis set group =>   2
Atom  42H    basis set group =>   2
Atom  43C    basis set group =>   1
Atom  44H    basis set group =>   2
Atom  45H    basis set group =>   2
Atom  46H    basis set group =>   2
Atom  47H    basis set group =>   2
---------------------------------
AUXILIARY/J BASIS SET INFORMATION
---------------------------------
There are 2 groups of distinct atoms

 Group   1 Type C   : 14s11p10d2f contracted to 14s11p10d2f pattern {11111111111111/11111111111/1111111111/11}
 Group   2 Type H   : 9s2p1d contracted to 9s2p1d pattern {111111111/11/1}

Atom   0C    basis set group =>   1
Atom   1C    basis set group =>   1
Atom   2C    basis set group =>   1
Atom   3C    basis set group =>   1
Atom   4C    basis set group =>   1
Atom   5C    basis set group =>   1
Atom   6C    basis set group =>   1
Atom   7C    basis set group =>   1
Atom   8C    basis set group =>   1
Atom   9H    basis set group =>   2
Atom  10H    basis set group =>   2
Atom  11C    basis set group =>   1
Atom  12H    basis set group =>   2
Atom  13H    basis set group =>   2
Atom  14C    basis set group =>   1
Atom  15H    basis set group =>   2
Atom  16H    basis set group =>   2
Atom  17C    basis set group =>   1
Atom  18H    basis set group =>   2
Atom  19H    basis set group =>   2
Atom  20C    basis set group =>   1
Atom  21H    basis set group =>   2
Atom  22H    basis set group =>   2
Atom  23C    basis set group =>   1
Atom  24H    basis set group =>   2
Atom  25H    basis set group =>   2
Atom  26C    basis set group =>   1
Atom  27H    basis set group =>   2
Atom  28H    basis set group =>   2
Atom  29C    basis set group =>   1
Atom  30H    basis set group =>   2
Atom  31H    basis set group =>   2
Atom  32C    basis set group =>   1
Atom  33H    basis set group =>   2
Atom  34C    basis set group =>   1
Atom  35H    basis set group =>   2
Atom  36H    basis set group =>   2
Atom  37C    basis set group =>   1
Atom  38H    basis set group =>   2
Atom  39H    basis set group =>   2
Atom  40C    basis set group =>   1
Atom  41H    basis set group =>   2
Atom  42H    basis set group =>   2
Atom  43C    basis set group =>   1
Atom  44H    basis set group =>   2
Atom  45H    basis set group =>   2
Atom  46H    basis set group =>   2
Atom  47H    basis set group =>   2
---------------------------------
AUXILIARY/C BASIS SET INFORMATION
---------------------------------
There are 2 groups of distinct atoms

 Group   1 Type C   : 14s11p10d2f contracted to 14s11p10d2f pattern {11111111111111/11111111111/1111111111/11}
 Group   2 Type H   : 9s2p1d contracted to 9s2p1d pattern {111111111/11/1}

Atom   0C    basis set group =>   1
Atom   1C    basis set group =>   1
Atom   2C    basis set group =>   1
Atom   3C    basis set group =>   1
Atom   4C    basis set group =>   1
Atom   5C    basis set group =>   1
Atom   6C    basis set group =>   1
Atom   7C    basis set group =>   1
Atom   8C    basis set group =>   1
Atom   9H    basis set group =>   2
Atom  10H    basis set group =>   2
Atom  11C    basis set group =>   1
Atom  12H    basis set group =>   2
Atom  13H    basis set group =>   2
Atom  14C    basis set group =>   1
Atom  15H    basis set group =>   2
Atom  16H    basis set group =>   2
Atom  17C    basis set group =>   1
Atom  18H    basis set group =>   2
Atom  19H    basis set group =>   2
Atom  20C    basis set group =>   1
Atom  21H    basis set group =>   2
Atom  22H    basis set group =>   2
Atom  23C    basis set group =>   1
Atom  24H    basis set group =>   2
Atom  25H    basis set group =>   2
Atom  26C    basis set group =>   1
Atom  27H    basis set group =>   2
Atom  28H    basis set group =>   2
Atom  29C    basis set group =>   1
Atom  30H    basis set group =>   2
Atom  31H    basis set group =>   2
Atom  32C    basis set group =>   1
Atom  33H    basis set group =>   2
Atom  34C    basis set group =>   1
Atom  35H    basis set group =>   2
Atom  36H    basis set group =>   2
Atom  37C    basis set group =>   1
Atom  38H    basis set group =>   2
Atom  39H    basis set group =>   2
Atom  40C    basis set group =>   1
Atom  41H    basis set group =>   2
Atom  42H    basis set group =>   2
Atom  43C    basis set group =>   1
Atom  44H    basis set group =>   2
Atom  45H    basis set group =>   2
Atom  46H    basis set group =>   2
Atom  47H    basis set group =>   2
----------------------------------
AUXILIARY/JK BASIS SET INFORMATION
----------------------------------
There are 2 groups of distinct atoms

 Group   1 Type C   : 14s11p10d2f contracted to 14s11p10d2f pattern {11111111111111/11111111111/1111111111/11}
 Group   2 Type H   : 9s2p1d contracted to 9s2p1d pattern {111111111/11/1}

Atom   0C    basis set group =>   1
Atom   1C    basis set group =>   1
Atom   2C    basis set group =>   1
Atom   3C    basis set group =>   1
Atom   4C    basis set group =>   1
Atom   5C    basis set group =>   1
Atom   6C    basis set group =>   1
Atom   7C    basis set group =>   1
Atom   8C    basis set group =>   1
Atom   9H    basis set group =>   2
Atom  10H    basis set group =>   2
Atom  11C    basis set group =>   1
Atom  12H    basis set group =>   2
Atom  13H    basis set group =>   2
Atom  14C    basis set group =>   1
Atom  15H    basis set group =>   2
Atom  16H    basis set group =>   2
Atom  17C    basis set group =>   1
Atom  18H    basis set group =>   2
Atom  19H    basis set group =>   2
Atom  20C    basis set group =>   1
Atom  21H    basis set group =>   2
Atom  22H    basis set group =>   2
Atom  23C    basis set group =>   1
Atom  24H    basis set group =>   2
Atom  25H    basis set group =>   2
Atom  26C    basis set group =>   1
Atom  27H    basis set group =>   2
Atom  28H    basis set group =>   2
Atom  29C    basis set group =>   1
Atom  30H    basis set group =>   2
Atom  31H    basis set group =>   2
Atom  32C    basis set group =>   1
Atom  33H    basis set group =>   2
Atom  34C    basis set group =>   1
Atom  35H    basis set group =>   2
Atom  36H    basis set group =>   2
Atom  37C    basis set group =>   1
Atom  38H    basis set group =>   2
Atom  39H    basis set group =>   2
Atom  40C    basis set group =>   1
Atom  41H    basis set group =>   2
Atom  42H    basis set group =>   2
Atom  43C    basis set group =>   1
Atom  44H    basis set group =>   2
Atom  45H    basis set group =>   2
Atom  46H    basis set group =>   2
Atom  47H    basis set group =>   2

Checking for AutoStart:
The File: cc-pVDZ.gbw exists
Trying to determine its content:
     ... Fine, the file contains calculation information
     ... Fine, the calculation information was read
     ... Fine, the file contains a basis set
     ... Fine, the basis set was read
     ... Fine, the file contains a geometry
     ... Fine, the geometry was read
     ... The file does not contain orbitals - skipping AutoStart


           ************************************************************
           *        Program running with 16 parallel MPI-processes    *
           *              working on a common directory               *
           ************************************************************
------------------------------------------------------------------------------
                           ORCA GTO INTEGRAL CALCULATION
                           -- RI-GTO INTEGRALS CHOSEN --
------------------------------------------------------------------------------
------------------------------------------------------------------------------
                   ___                                                        
                  /   \      - P O W E R E D   B Y -                         
                 /     \                                                     
                 |  |  |   _    _      __       _____    __    __             
                 |  |  |  | |  | |    /  \     |  _  \  |  |  /  |          
                  \  \/   | |  | |   /    \    | | | |  |  | /  /          
                 / \  \   | |__| |  /  /\  \   | |_| |  |  |/  /          
                |  |  |   |  __  | /  /__\  \  |    /   |      \           
                |  |  |   | |  | | |   __   |  |    \   |  |\   \          
                \     /   | |  | | |  |  |  |  | |\  \  |  | \   \       
                 \___/    |_|  |_| |__|  |__|  |_| \__\ |__|  \__/        
                                                                              
                      - O R C A' S   B I G   F R I E N D -                    
                                      &                                       
                       - I N T E G R A L  F E E D E R -                       
                                                                              
 v1 FN, 2020, v2 2021                                                         
------------------------------------------------------------------------------


Reading SHARK input file cc-pVDZ.SHARKINP.tmp ... [file orca_tools/Tool-Parallel/pal3.cpp, line 652, Process 12]: Error TPAL_WinContD::SetMemory - Invalid size)

[file orca_tools/Tool-Parallel/pal3.cpp, line 652, Process 13]: Error TPAL_WinContD::SetMemory - Invalid size)

[file orca_tools/Tool-Parallel/pal3.cpp, line 652, Process 14]: Error TPAL_WinContD::SetMemory - Invalid size)

[file orca_tools/Tool-Parallel/pal3.cpp, line 652, Process 15]: Error TPAL_WinContD::SetMemory - Invalid size)

[file orca_tools/Tool-Parallel/pal3.cpp, line 652, Process 0]: Error TPAL_WinContD::SetMemory - Invalid size)

[file orca_tools/Tool-Parallel/pal3.cpp, line 652, Process 1]: Error TPAL_WinContD::SetMemory - Invalid size)

[file orca_tools/Tool-Parallel/pal3.cpp, line 652, Process 2]: Error TPAL_WinContD::SetMemory - Invalid size)

[file orca_tools/Tool-Parallel/pal3.cpp, line 652, Process 3]: Error TPAL_WinContD::SetMemory - Invalid size)

[file orca_tools/Tool-Parallel/pal3.cpp, line 652, Process 4]: Error TPAL_WinContD::SetMemory - Invalid size)

[file orca_tools/Tool-Parallel/pal3.cpp, line 652, Process 5]: Error TPAL_WinContD::SetMemory - Invalid size)

[file orca_tools/Tool-Parallel/pal3.cpp, line 652, Process 6]: Error TPAL_WinContD::SetMemory - Invalid size)

[file orca_tools/Tool-Parallel/pal3.cpp, line 652, Process 7]: Error TPAL_WinContD::SetMemory - Invalid size)

[file orca_tools/Tool-Parallel/pal3.cpp, line 652, Process 8]: Error TPAL_WinContD::SetMemory - Invalid size)

[file orca_tools/Tool-Parallel/pal3.cpp, line 652, Process 9]: Error TPAL_WinContD::SetMemory - Invalid size)

[file orca_tools/Tool-Parallel/pal3.cpp, line 652, Process 10]: Error TPAL_WinContD::SetMemory - Invalid size)

[file orca_tools/Tool-Parallel/pal3.cpp, line 652, Process 11]: Error TPAL_WinContD::SetMemory - Invalid size)


ORCA finished by error termination in GTOInt
Calling Command: mpirun -np 16  /hits/basement/mbm/sucerquia/sw/orca/orca_5_0_4_linux_x86-64_openmpi411/orca_gtoint_mpi cc-pVDZ.int.tmp cc-pVDZ 
[file orca_tools/qcmsg.cpp, line 465]: 
  .... aborting the run

