
                                 *****************
                                 * O   R   C   A *
                                 *****************

                                            #,                                       
                                            ###                                      
                                            ####                                     
                                            #####                                    
                                            ######                                   
                                           ########,                                 
                                     ,,################,,,,,                         
                               ,,#################################,,                 
                          ,,##########################################,,             
                       ,#########################################, ''#####,          
                    ,#############################################,,   '####,        
                  ,##################################################,,,,####,       
                ,###########''''           ''''###############################       
              ,#####''   ,,,,##########,,,,          '''####'''          '####       
            ,##' ,,,,###########################,,,                        '##       
           ' ,,###''''                  '''############,,,                           
         ,,##''                                '''############,,,,        ,,,,,,###''
      ,#''                                            '''#######################'''  
     '                                                          ''''####''''         
             ,#######,   #######,   ,#######,      ##                                
            ,#'     '#,  ##    ##  ,#'     '#,    #''#        ######   ,####,        
            ##       ##  ##   ,#'  ##            #'  '#       #        #'  '#        
            ##       ##  #######   ##           ,######,      #####,   #    #        
            '#,     ,#'  ##    ##  '#,     ,#' ,#      #,         ##   #,  ,#        
             '#######'   ##     ##  '#######'  #'      '#     #####' # '####'        



                  #######################################################
                  #                        -***-                        #
                  #          Department of theory and spectroscopy      #
                  #    Directorship and core code : Frank Neese         #
                  #        Max Planck Institute fuer Kohlenforschung    #
                  #                Kaiser Wilhelm Platz 1               #
                  #                 D-45470 Muelheim/Ruhr               #
                  #                      Germany                        #
                  #                                                     #
                  #                  All rights reserved                #
                  #                        -***-                        #
                  #######################################################


                         Program Version 5.0.4 -  RELEASE  -


 With contributions from (in alphabetic order):
   Daniel Aravena         : Magnetic Suceptibility
   Michael Atanasov       : Ab Initio Ligand Field Theory (pilot matlab implementation)
   Alexander A. Auer      : GIAO ZORA, VPT2 properties, NMR spectrum
   Ute Becker             : Parallelization
   Giovanni Bistoni       : ED, misc. LED, open-shell LED, HFLD
   Martin Brehm           : Molecular dynamics
   Dmytro Bykov           : SCF Hessian
   Vijay G. Chilkuri      : MRCI spin determinant printing, contributions to CSF-ICE
   Dipayan Datta          : RHF DLPNO-CCSD density
   Achintya Kumar Dutta   : EOM-CC, STEOM-CC
   Dmitry Ganyushin       : Spin-Orbit,Spin-Spin,Magnetic field MRCI
   Miquel Garcia          : C-PCM and meta-GGA Hessian, CC/C-PCM, Gaussian charge scheme
   Yang Guo               : DLPNO-NEVPT2, F12-NEVPT2, CIM, IAO-localization
   Andreas Hansen         : Spin unrestricted coupled pair/coupled cluster methods
   Benjamin Helmich-Paris : MC-RPA, TRAH-SCF, COSX integrals
   Lee Huntington         : MR-EOM, pCC
   Robert Izsak           : Overlap fitted RIJCOSX, COSX-SCS-MP3, EOM
   Marcus Kettner         : VPT2
   Christian Kollmar      : KDIIS, OOCD, Brueckner-CCSD(T), CCSD density, CASPT2, CASPT2-K
   Simone Kossmann        : Meta GGA functionals, TD-DFT gradient, OOMP2, MP2 Hessian
   Martin Krupicka        : Initial AUTO-CI
   Lucas Lang             : DCDCAS
   Marvin Lechner         : AUTO-CI (C++ implementation), FIC-MRCC
   Dagmar Lenk            : GEPOL surface, SMD
   Dimitrios Liakos       : Extrapolation schemes; Compound Job, initial MDCI parallelization
   Dimitrios Manganas     : Further ROCIS development; embedding schemes
   Dimitrios Pantazis     : SARC Basis sets
   Anastasios Papadopoulos: AUTO-CI, single reference methods and gradients
   Taras Petrenko         : DFT Hessian,TD-DFT gradient, ASA, ECA, R-Raman, ABS, FL, XAS/XES, NRVS
   Peter Pinski           : DLPNO-MP2, DLPNO-MP2 Gradient
   Christoph Reimann      : Effective Core Potentials
   Marius Retegan         : Local ZFS, SOC
   Christoph Riplinger    : Optimizer, TS searches, QM/MM, DLPNO-CCSD(T), (RO)-DLPNO pert. Triples
   Tobias Risthaus        : Range-separated hybrids, TD-DFT gradient, RPA, STAB
   Michael Roemelt        : Original ROCIS implementation
   Masaaki Saitow         : Open-shell DLPNO-CCSD energy and density
   Barbara Sandhoefer     : DKH picture change effects
   Avijit Sen             : IP-ROCIS
   Kantharuban Sivalingam : CASSCF convergence, NEVPT2, FIC-MRCI
   Bernardo de Souza      : ESD, SOC TD-DFT
   Georgi Stoychev        : AutoAux, RI-MP2 NMR, DLPNO-MP2 response
   Willem Van den Heuvel  : Paramagnetic NMR
   Boris Wezisla          : Elementary symmetry handling
   Frank Wennmohs         : Technical directorship


 We gratefully acknowledge several colleagues who have allowed us to
 interface, adapt or use parts of their codes:
   Stefan Grimme, W. Hujo, H. Kruse, P. Pracht,  : VdW corrections, initial TS optimization,
                  C. Bannwarth, S. Ehlert          DFT functionals, gCP, sTDA/sTD-DF
   Ed Valeev, F. Pavosevic, A. Kumar             : LibInt (2-el integral package), F12 methods
   Garnet Chan, S. Sharma, J. Yang, R. Olivares  : DMRG
   Ulf Ekstrom                                   : XCFun DFT Library
   Mihaly Kallay                                 : mrcc  (arbitrary order and MRCC methods)
   Jiri Pittner, Ondrej Demel                    : Mk-CCSD
   Frank Weinhold                                : gennbo (NPA and NBO analysis)
   Christopher J. Cramer and Donald G. Truhlar   : smd solvation model
   Lars Goerigk                                  : TD-DFT with DH, B97 family of functionals
   V. Asgeirsson, H. Jonsson                     : NEB implementation
   FAccTs GmbH                                   : IRC, NEB, NEB-TS, DLPNO-Multilevel, CI-OPT
                                                   MM, QMMM, 2- and 3-layer-ONIOM, Crystal-QMMM,
                                                   LR-CPCM, SF, NACMEs, symmetry and pop. for TD-DFT,
                                                   nearIR, NL-DFT gradient (VV10), updates on ESD,
                                                   ML-optimized integration grids
   S Lehtola, MJT Oliveira, MAL Marques          : LibXC Library
   Liviu Ungur et al                             : ANISO software


 Your calculation uses the libint2 library for the computation of 2-el integrals
 For citations please refer to: http://libint.valeyev.net

 Your ORCA version has been built with support for libXC version: 5.1.0
 For citations please refer to: https://tddft.org/programs/libxc/

 This ORCA versions uses:
   CBLAS   interface :  Fast vector & matrix operations
   LAPACKE interface :  Fast linear algebra routines
   SCALAPACK package :  Parallel linear algebra routines
   Shared memory     :  Shared parallel matrices
   BLAS/LAPACK       :  OpenBLAS 0.3.15  USE64BITINT DYNAMIC_ARCH NO_AFFINITY SkylakeX SINGLE_THREADED
        Core in use  :  SkylakeX
   Copyright (c) 2011-2014, The OpenBLAS Project




***************************************
The coordinates will be read from file: opt.xyz
***************************************


================================================================================

----- Orbital basis set information -----
Your calculation utilizes the basis: cc-pVDZ 
       H, B-Ne : Obtained from the ccRepo (grant-hill.group.shef.ac.uk/ccrepo) Feb. 2017
                 T. H. Dunning, Jr., J. Chem. Phys. 90, 1007 (1989)
            He : Obtained from the ccRepo (grant-hill.group.shef.ac.uk/ccrepo) Feb. 2017
                 D. E. Woon, T. H. Dunning, Jr., J. Chem. Phys. 100, 2975 (1994)
  Li-Be, Na-Mg : Obtained from the ccRepo (grant-hill.group.shef.ac.uk/ccrepo) Feb. 2017
                 B. P. Prascher, D. E. Woon, K. A. Peterson, T. H. Dunning, Jr., A. K. Wilson, Theor. Chem. Acc. 128, 69 (2011)
         Al-Ar : Obtained from the ccRepo (grant-hill.group.shef.ac.uk/ccrepo) Feb. 2017
                 D. E. Woon, T. H. Dunning, Jr., J. Chem. Phys. 98, 1358 (1993)
            Ca : Obtained from the Peterson Research Group Website (tyr0.chem.wsu.edu/~kipeters) Feb. 2017
                 J. Koput, K. A. Peterson, J. Phys. Chem. 106, 9595 (2002)
         Sc-Zn : Obtained from the ccRepo (grant-hill.group.shef.ac.uk/ccrepo) Feb. 2017
                 N. B. Balabanov, K. A. Peterson, J. Chem. Phys. 123, 064107 (2005)
                 N. B. Balabanov, K. A. Peterson, J. Chem. Phys. 125, 074110 (2006)
         Ga-Kr : Obtained from the ccRepo (grant-hill.group.shef.ac.uk/ccrepo) Feb. 2017
                 A. K. Wilson, D. E. Woon, K. A. Peterson, T. H. Dunning, Jr., J. Chem. Phys. 110, 7667 (1999)

----- AuxJ basis set information -----
Your calculation utilizes the AutoAux generation procedure.
  G. L. Stoychev, A. A. Auer, F. Neese, J. Chem. Theory Comput. 13, 554 (2017)

----- AuxC basis set information -----
Your calculation utilizes the AutoAux generation procedure.
  G. L. Stoychev, A. A. Auer, F. Neese, J. Chem. Theory Comput. 13, 554 (2017)

----- AuxJK basis set information -----
Your calculation utilizes the AutoAux generation procedure.
  G. L. Stoychev, A. A. Auer, F. Neese, J. Chem. Theory Comput. 13, 554 (2017)

================================================================================
                                        WARNINGS
                       Please study these warnings very carefully!
================================================================================


WARNING: your system is open-shell and RHF/RKS was chosen
  ===> : WILL SWITCH to UHF/UKS


INFO   : the flag for use of the SHARK integral package has been found!

================================================================================
                                       INPUT FILE
================================================================================
NAME = cc-pVDZ_i.inp
|  1> ! B3LYP cc-pVDZ AUTOAUX
|  2> %pal nprocs 16 end
|  3> *XYZFile 0 2 opt.xyz
|  4> %EPRNMR
|  5>         GTENSOR   TRUE
|  6>         NUCLEI    = ALL H {SHIFT, AISO, ADIP, AORB}
|  7>         ORI       GIAO
|  8> END
|  9> 
| 10>                          ****END OF INPUT****
================================================================================

                       ****************************
                       * Single Point Calculation *
                       ****************************

---------------------------------
CARTESIAN COORDINATES (ANGSTROEM)
---------------------------------
  C     -3.990231    0.213841   -0.298689
  C     -2.777202    0.134401   -0.264168
  C      2.881118   -0.106320   -0.120939
  C     -1.347580    0.049789   -0.226693
  C     -0.698663   -1.210432   -0.168978
  C      0.696414   -1.210949   -0.136033
  C      1.451516   -0.021244   -0.158159
  C      0.802554    1.238942   -0.215585
  C     -0.592525    1.239697   -0.248218
  H      1.240484   -2.154117   -0.091566
  H     -1.136490    2.183031   -0.291658
  C     -1.520796   -2.484849   -0.145693
  H     -2.176647   -2.488350   -1.035776
  H     -2.218070   -2.430135    0.710536
  C     -0.747760   -3.804774   -0.083711
  H     -0.066510   -3.882053   -0.951169
  H     -0.105100   -3.822574    0.815836
  C     -1.671277   -5.028796   -0.062159
  H     -2.353766   -4.954482    0.804809
  H     -2.318821   -5.011894   -0.958437
  C     -0.911004   -6.356092   -0.003542
  H     -0.279819   -6.416782    0.899916
  H     -0.247977   -6.477180   -0.877607
  C      1.625960    2.512302   -0.238909
  H      2.288489    2.510214    0.646135
  H      2.316797    2.461154   -1.100696
  C      0.854747    3.833459   -0.287928
  H      0.209453    3.860975   -1.184672
  H      0.180476    3.912331    0.583195
  C      1.786297    5.054577   -0.308234
  H      2.452926    5.030614    0.576943
  H      2.476574    4.960570   -1.179156
  C      1.071033    6.365835   -0.362651
  H      0.095267    6.402624   -0.863681
  C      1.766851    7.657378   -0.078213
  H      2.447636    7.917283   -0.923106
  H      2.441558    7.532993    0.792881
  C      0.820543    8.841876    0.167056
  H      0.163439    8.964772   -0.713802
  H      0.153001    8.598335    1.013255
  C      1.555999   10.154269    0.446799
  H      2.197776   10.071072    1.341050
  H      2.205841   10.437943   -0.399281
  C      4.094180   -0.186871   -0.089942
  H     -5.059895    0.285441   -0.327738
  H      5.163803   -0.259276   -0.061371
  H     -1.600271   -7.215913    0.013460
  H      0.851264   10.984019    0.618926

----------------------------
CARTESIAN COORDINATES (A.U.)
----------------------------
  NO LB      ZA    FRAG     MASS         X           Y           Z
   0 C     6.0000    0    12.011   -7.540443    0.404102   -0.564441
   1 C     6.0000    0    12.011   -5.248151    0.253982   -0.499205
   2 C     6.0000    0    12.011    5.444523   -0.200916   -0.228541
   3 C     6.0000    0    12.011   -2.546557    0.094088   -0.428388
   4 C     6.0000    0    12.011   -1.320281   -2.287384   -0.319322
   5 C     6.0000    0    12.011    1.316032   -2.288362   -0.257066
   6 C     6.0000    0    12.011    2.742967   -0.040146   -0.298877
   7 C     6.0000    0    12.011    1.516606    2.341260   -0.407397
   8 C     6.0000    0    12.011   -1.119709    2.342688   -0.469065
   9 H     1.0000    0     1.008    2.344176   -4.070692   -0.173035
  10 H     1.0000    0     1.008   -2.147654    4.125332   -0.551153
  11 C     6.0000    0    12.011   -2.873887   -4.695684   -0.275319
  12 H     1.0000    0     1.008   -4.113266   -4.702301   -1.957333
  13 H     1.0000    0     1.008   -4.191546   -4.592290    1.342718
  14 C     6.0000    0    12.011   -1.413063   -7.189981   -0.158191
  15 H     1.0000    0     1.008   -0.125686   -7.336017   -1.797449
  16 H     1.0000    0     1.008   -0.198611   -7.223618    1.541707
  17 C     6.0000    0    12.011   -3.158256   -9.503046   -0.117464
  18 H     1.0000    0     1.008   -4.447973   -9.362614    1.520868
  19 H     1.0000    0     1.008   -4.381937   -9.471107   -1.811183
  20 C     6.0000    0    12.011   -1.721549  -12.011274   -0.006693
  21 H     1.0000    0     1.008   -0.528780  -12.125961    1.700595
  22 H     1.0000    0     1.008   -0.468608  -12.240097   -1.658438
  23 C     6.0000    0    12.011    3.072619    4.747563   -0.451472
  24 H     1.0000    0     1.008    4.324617    4.743617    1.221018
  25 H     1.0000    0     1.008    4.378111    4.650907   -2.080014
  26 C     6.0000    0    12.011    1.615237    7.244188   -0.544106
  27 H     1.0000    0     1.008    0.395809    7.296186   -2.238705
  28 H     1.0000    0     1.008    0.341050    7.393234    1.102078
  29 C     6.0000    0    12.011    3.375613    9.551766   -0.582477
  30 H     1.0000    0     1.008    4.635359    9.506484    1.090264
  31 H     1.0000    0     1.008    4.680046    9.374118   -2.228283
  32 C     6.0000    0    12.011    2.023959   12.029684   -0.685312
  33 H     1.0000    0     1.008    0.180029   12.099206   -1.632121
  34 C     6.0000    0    12.011    3.338865   14.470348   -0.147801
  35 H     1.0000    0     1.008    4.625361   14.961497   -1.744418
  36 H     1.0000    0     1.008    4.613877   14.235294    1.498328
  37 C     6.0000    0    12.011    1.550602   16.708724    0.315689
  38 H     1.0000    0     1.008    0.308854   16.940964   -1.348890
  39 H     1.0000    0     1.008    0.289130   16.248499    1.914775
  40 C     6.0000    0    12.011    2.940412   19.188787    0.844327
  41 H     1.0000    0     1.008    4.153195   19.031567    2.534216
  42 H     1.0000    0     1.008    4.168435   19.724854   -0.754532
  43 C     6.0000    0    12.011    7.736880   -0.353135   -0.169966
  44 H     1.0000    0     1.008   -9.561816    0.539405   -0.619335
  45 H     1.0000    0     1.008    9.758173   -0.489961   -0.115974
  46 H     1.0000    0     1.008   -3.024075  -13.636100    0.025435
  47 H     1.0000    0     1.008    1.608656   20.756787    1.169600

--------------------------------
INTERNAL COORDINATES (ANGSTROEM)
--------------------------------
 C      0   0   0     0.000000000000     0.00000000     0.00000000
 C      1   0   0     1.216117300565     0.00000000     0.00000000
 C      2   1   0     5.665248771760   178.67761451     0.00000000
 C      2   1   3     1.432613825907   179.61834457   348.16914013
 C      4   2   1     1.418654589576   120.66329900   197.73351178
 C      5   4   2     1.395465866938   117.29550747   179.95887674
 C      6   5   4     1.409278387283   122.34215469     0.00000000
 C      7   6   5     1.418632466811   120.36015666     0.00000000
 C      8   7   6     1.395459934866   117.30702135     0.00000000
 H      6   5   4     1.089750567201   120.02688666   180.00645413
 H      9   8   7     1.089800388089   120.02687508   179.94491344
 C      5   4   2     1.516767495352   119.93882327   359.96700702
 H     12   5   4     1.105622523053   108.16965870    56.29388234
 H     12   5   4     1.105582648123   108.18937256   303.69597780
 C     12   5   4     1.530891106325   116.83043287   179.97136075
 H     15  12   5     1.105693044963   109.85347588   301.66257700
 H     15  12   5     1.105673591743   109.89641577    58.16164100
 C     15  12   5     1.533484839186   112.62303170   179.90666597
 H     18  15  12     1.105869607301   109.21106582   302.19410671
 H     18  15  12     1.105853537794   109.21139386    57.50674665
 C     18  15  12     1.530740866611   113.17484615   179.86427273
 H     21  18  15     1.103773146214   111.28686982    59.72408227
 H     21  18  15     1.103747463839   111.29395931   299.99763367
 C      8   7   6     1.516571393193   119.87466156   179.99993926
 H     24   8   7     1.105554226519   108.14795404   304.21875343
 H     24   8   7     1.105689496596   108.20245639    56.80707413
 C     24   8   7     1.530565281228   116.85111328   180.55827679
 H     27  24   8     1.105128420309   109.98027970   301.48969527
 H     27  24   8     1.104408138057   110.12146284    58.39438627
 C     27  24   8     1.536010107097   112.39937940   180.00427198
 H     30  27  24     1.108379926733   109.69518902   303.12781338
 H     30  27  24     1.115269099821   108.58306519    56.70669984
 C     30  27  24     1.494644224834   114.06061672   179.72608076
 H     33  30  27     1.097498554175   118.13176450   330.19856581
 C     33  30  27     1.494374056272   121.90232074   165.79994611
 H     35  33  30     1.115733918676   109.95621207    72.46416976
 H     35  33  30     1.108831076602   109.62757730   318.15960031
 C     35  33  30     1.535803009478   114.20920583   194.69308218
 H     38  35  33     1.105802712550   108.94418458   302.64834308
 H     38  35  33     1.104979023347   108.93839463    57.84670394
 C     38  35  33     1.530204502947   113.23636774   180.38109264
 H     41  38  35     1.103849725868   111.27809064   300.15772310
 H     41  38  35     1.103909711919   111.29745378    59.83305319
 C      3   2   1     1.216129260056   178.63742761   187.23701788
 H      1   2   4     1.072451254423   179.88881240   298.38081564
 H     44   3   7     1.072451049778   179.90112472   313.93426540
 H     21  18  15     1.102120481651   111.49610538   179.85071443
 H     41  38  35     1.102162990591   111.52523936   180.02743401

---------------------------
INTERNAL COORDINATES (A.U.)
---------------------------
 C      0   0   0     0.000000000000     0.00000000     0.00000000
 C      1   0   0     2.298128644791     0.00000000     0.00000000
 C      2   1   0    10.705768659161   178.67761451     0.00000000
 C      2   1   3     2.707247786634   179.61834457   348.16914013
 C      4   2   1     2.680868652928   120.66329900   197.73351178
 C      5   4   2     2.637048317748   117.29550747   179.95887674
 C      6   5   4     2.663150198420   122.34215469     0.00000000
 C      7   6   5     2.680826846961   120.36015666     0.00000000
 C      8   7   6     2.637037107756   117.30702135     0.00000000
 H      6   5   4     2.059330126296   120.02688666   180.00645413
 H      9   8   7     2.059424274130   120.02687508   179.94491344
 C      5   4   2     2.866275175049   119.93882327   359.96700702
 H     12   5   4     2.089323776066   108.16965870    56.29388234
 H     12   5   4     2.089248423368   108.18937256   303.69597780
 C     12   5   4     2.892964931810   116.83043287   179.97136075
 H     15  12   5     2.089457043161   109.85347588   301.66257700
 H     15  12   5     2.089420281904   109.89641577    58.16164100
 C     15  12   5     2.897866376581   112.62303170   179.90666597
 H     18  15  12     2.089790697626   109.21106582   302.19410671
 H     18  15  12     2.089760330659   109.21139386    57.50674665
 C     18  15  12     2.892681019896   113.17484615   179.86427273
 H     21  18  15     2.085828960322   111.28686982    59.72408227
 H     21  18  15     2.085780427665   111.29395931   299.99763367
 C      8   7   6     2.865904595674   119.87466156   179.99993926
 H     24   8   7     2.089194714320   108.14795404   304.21875343
 H     24   8   7     2.089450337720   108.20245639    56.80707413
 C     24   8   7     2.892349211610   116.85111328   180.55827679
 H     27  24   8     2.088390057196   109.98027970   301.48969527
 H     27  24   8     2.087028921001   110.12146284    58.39438627
 C     27  24   8     2.902638441348   112.39937940   180.00427198
 H     30  27  24     2.094534513861   109.69518902   303.12781338
 H     30  27  24     2.107553164287   108.58306519    56.70669984
 C     30  27  24     2.824468252583   114.06061672   179.72608076
 H     33  30  27     2.073971699765   118.13176450   330.19856581
 C     33  30  27     2.823957707992   121.90232074   165.79994611
 H     35  33  30     2.108431544624   109.95621207    72.46416976
 H     35  33  30     2.095387063558   109.62757730   318.15960031
 C     35  33  30     2.902247083566   114.20920583   194.69308218
 H     38  35  33     2.089664284866   108.94418458   302.64834308
 H     38  35  33     2.088107737853   108.93839463    57.84670394
 C     38  35  33     2.891667439463   113.23636774   180.38109264
 H     41  38  35     2.085973674895   111.27809064   300.15772310
 H     41  38  35     2.086087032104   111.29745378    59.83305319
 C      3   2   1     2.298151244954   178.63742761   187.23701788
 H      1   2   4     2.026639162840   179.88881240   298.38081564
 H     44   3   7     2.026638776116   179.90112472   313.93426540
 H     21  18  15     2.082705876905   111.49610538   179.85071443
 H     41  38  35     2.082786207160   111.52523936   180.02743401

---------------------
BASIS SET INFORMATION
---------------------
There are 2 groups of distinct atoms

 Group   1 Type C   : 17s4p1d contracted to 3s2p1d pattern {881/31/1}
 Group   2 Type H   : 4s1p contracted to 2s1p pattern {31/1}

Atom   0C    basis set group =>   1
Atom   1C    basis set group =>   1
Atom   2C    basis set group =>   1
Atom   3C    basis set group =>   1
Atom   4C    basis set group =>   1
Atom   5C    basis set group =>   1
Atom   6C    basis set group =>   1
Atom   7C    basis set group =>   1
Atom   8C    basis set group =>   1
Atom   9H    basis set group =>   2
Atom  10H    basis set group =>   2
Atom  11C    basis set group =>   1
Atom  12H    basis set group =>   2
Atom  13H    basis set group =>   2
Atom  14C    basis set group =>   1
Atom  15H    basis set group =>   2
Atom  16H    basis set group =>   2
Atom  17C    basis set group =>   1
Atom  18H    basis set group =>   2
Atom  19H    basis set group =>   2
Atom  20C    basis set group =>   1
Atom  21H    basis set group =>   2
Atom  22H    basis set group =>   2
Atom  23C    basis set group =>   1
Atom  24H    basis set group =>   2
Atom  25H    basis set group =>   2
Atom  26C    basis set group =>   1
Atom  27H    basis set group =>   2
Atom  28H    basis set group =>   2
Atom  29C    basis set group =>   1
Atom  30H    basis set group =>   2
Atom  31H    basis set group =>   2
Atom  32C    basis set group =>   1
Atom  33H    basis set group =>   2
Atom  34C    basis set group =>   1
Atom  35H    basis set group =>   2
Atom  36H    basis set group =>   2
Atom  37C    basis set group =>   1
Atom  38H    basis set group =>   2
Atom  39H    basis set group =>   2
Atom  40C    basis set group =>   1
Atom  41H    basis set group =>   2
Atom  42H    basis set group =>   2
Atom  43C    basis set group =>   1
Atom  44H    basis set group =>   2
Atom  45H    basis set group =>   2
Atom  46H    basis set group =>   2
Atom  47H    basis set group =>   2
---------------------------------
AUXILIARY/J BASIS SET INFORMATION
---------------------------------
There are 2 groups of distinct atoms

 Group   1 Type C   : 14s11p10d2f contracted to 14s11p10d2f pattern {11111111111111/11111111111/1111111111/11}
 Group   2 Type H   : 9s2p1d contracted to 9s2p1d pattern {111111111/11/1}

Atom   0C    basis set group =>   1
Atom   1C    basis set group =>   1
Atom   2C    basis set group =>   1
Atom   3C    basis set group =>   1
Atom   4C    basis set group =>   1
Atom   5C    basis set group =>   1
Atom   6C    basis set group =>   1
Atom   7C    basis set group =>   1
Atom   8C    basis set group =>   1
Atom   9H    basis set group =>   2
Atom  10H    basis set group =>   2
Atom  11C    basis set group =>   1
Atom  12H    basis set group =>   2
Atom  13H    basis set group =>   2
Atom  14C    basis set group =>   1
Atom  15H    basis set group =>   2
Atom  16H    basis set group =>   2
Atom  17C    basis set group =>   1
Atom  18H    basis set group =>   2
Atom  19H    basis set group =>   2
Atom  20C    basis set group =>   1
Atom  21H    basis set group =>   2
Atom  22H    basis set group =>   2
Atom  23C    basis set group =>   1
Atom  24H    basis set group =>   2
Atom  25H    basis set group =>   2
Atom  26C    basis set group =>   1
Atom  27H    basis set group =>   2
Atom  28H    basis set group =>   2
Atom  29C    basis set group =>   1
Atom  30H    basis set group =>   2
Atom  31H    basis set group =>   2
Atom  32C    basis set group =>   1
Atom  33H    basis set group =>   2
Atom  34C    basis set group =>   1
Atom  35H    basis set group =>   2
Atom  36H    basis set group =>   2
Atom  37C    basis set group =>   1
Atom  38H    basis set group =>   2
Atom  39H    basis set group =>   2
Atom  40C    basis set group =>   1
Atom  41H    basis set group =>   2
Atom  42H    basis set group =>   2
Atom  43C    basis set group =>   1
Atom  44H    basis set group =>   2
Atom  45H    basis set group =>   2
Atom  46H    basis set group =>   2
Atom  47H    basis set group =>   2
---------------------------------
AUXILIARY/C BASIS SET INFORMATION
---------------------------------
There are 2 groups of distinct atoms

 Group   1 Type C   : 14s11p10d2f contracted to 14s11p10d2f pattern {11111111111111/11111111111/1111111111/11}
 Group   2 Type H   : 9s2p1d contracted to 9s2p1d pattern {111111111/11/1}

Atom   0C    basis set group =>   1
Atom   1C    basis set group =>   1
Atom   2C    basis set group =>   1
Atom   3C    basis set group =>   1
Atom   4C    basis set group =>   1
Atom   5C    basis set group =>   1
Atom   6C    basis set group =>   1
Atom   7C    basis set group =>   1
Atom   8C    basis set group =>   1
Atom   9H    basis set group =>   2
Atom  10H    basis set group =>   2
Atom  11C    basis set group =>   1
Atom  12H    basis set group =>   2
Atom  13H    basis set group =>   2
Atom  14C    basis set group =>   1
Atom  15H    basis set group =>   2
Atom  16H    basis set group =>   2
Atom  17C    basis set group =>   1
Atom  18H    basis set group =>   2
Atom  19H    basis set group =>   2
Atom  20C    basis set group =>   1
Atom  21H    basis set group =>   2
Atom  22H    basis set group =>   2
Atom  23C    basis set group =>   1
Atom  24H    basis set group =>   2
Atom  25H    basis set group =>   2
Atom  26C    basis set group =>   1
Atom  27H    basis set group =>   2
Atom  28H    basis set group =>   2
Atom  29C    basis set group =>   1
Atom  30H    basis set group =>   2
Atom  31H    basis set group =>   2
Atom  32C    basis set group =>   1
Atom  33H    basis set group =>   2
Atom  34C    basis set group =>   1
Atom  35H    basis set group =>   2
Atom  36H    basis set group =>   2
Atom  37C    basis set group =>   1
Atom  38H    basis set group =>   2
Atom  39H    basis set group =>   2
Atom  40C    basis set group =>   1
Atom  41H    basis set group =>   2
Atom  42H    basis set group =>   2
Atom  43C    basis set group =>   1
Atom  44H    basis set group =>   2
Atom  45H    basis set group =>   2
Atom  46H    basis set group =>   2
Atom  47H    basis set group =>   2
----------------------------------
AUXILIARY/JK BASIS SET INFORMATION
----------------------------------
There are 2 groups of distinct atoms

 Group   1 Type C   : 14s11p10d2f contracted to 14s11p10d2f pattern {11111111111111/11111111111/1111111111/11}
 Group   2 Type H   : 9s2p1d contracted to 9s2p1d pattern {111111111/11/1}

Atom   0C    basis set group =>   1
Atom   1C    basis set group =>   1
Atom   2C    basis set group =>   1
Atom   3C    basis set group =>   1
Atom   4C    basis set group =>   1
Atom   5C    basis set group =>   1
Atom   6C    basis set group =>   1
Atom   7C    basis set group =>   1
Atom   8C    basis set group =>   1
Atom   9H    basis set group =>   2
Atom  10H    basis set group =>   2
Atom  11C    basis set group =>   1
Atom  12H    basis set group =>   2
Atom  13H    basis set group =>   2
Atom  14C    basis set group =>   1
Atom  15H    basis set group =>   2
Atom  16H    basis set group =>   2
Atom  17C    basis set group =>   1
Atom  18H    basis set group =>   2
Atom  19H    basis set group =>   2
Atom  20C    basis set group =>   1
Atom  21H    basis set group =>   2
Atom  22H    basis set group =>   2
Atom  23C    basis set group =>   1
Atom  24H    basis set group =>   2
Atom  25H    basis set group =>   2
Atom  26C    basis set group =>   1
Atom  27H    basis set group =>   2
Atom  28H    basis set group =>   2
Atom  29C    basis set group =>   1
Atom  30H    basis set group =>   2
Atom  31H    basis set group =>   2
Atom  32C    basis set group =>   1
Atom  33H    basis set group =>   2
Atom  34C    basis set group =>   1
Atom  35H    basis set group =>   2
Atom  36H    basis set group =>   2
Atom  37C    basis set group =>   1
Atom  38H    basis set group =>   2
Atom  39H    basis set group =>   2
Atom  40C    basis set group =>   1
Atom  41H    basis set group =>   2
Atom  42H    basis set group =>   2
Atom  43C    basis set group =>   1
Atom  44H    basis set group =>   2
Atom  45H    basis set group =>   2
Atom  46H    basis set group =>   2
Atom  47H    basis set group =>   2


           ************************************************************
           *        Program running with 16 parallel MPI-processes    *
           *              working on a common directory               *
           ************************************************************
------------------------------------------------------------------------------
                           ORCA GTO INTEGRAL CALCULATION
                           -- RI-GTO INTEGRALS CHOSEN --
------------------------------------------------------------------------------
------------------------------------------------------------------------------
                   ___                                                        
                  /   \      - P O W E R E D   B Y -                         
                 /     \                                                     
                 |  |  |   _    _      __       _____    __    __             
                 |  |  |  | |  | |    /  \     |  _  \  |  |  /  |          
                  \  \/   | |  | |   /    \    | | | |  |  | /  /          
                 / \  \   | |__| |  /  /\  \   | |_| |  |  |/  /          
                |  |  |   |  __  | /  /__\  \  |    /   |      \           
                |  |  |   | |  | | |   __   |  |    \   |  |\   \          
                \     /   | |  | | |  |  |  |  | |\  \  |  | \   \       
                 \___/    |_|  |_| |__|  |__|  |_| \__\ |__|  \__/        
                                                                              
                      - O R C A' S   B I G   F R I E N D -                    
                                      &                                       
                       - I N T E G R A L  F E E D E R -                       
                                                                              
 v1 FN, 2020, v2 2021                                                         
------------------------------------------------------------------------------


Reading SHARK input file cc-pVDZ_i.SHARKINP.tmp ... ok
----------------------
SHARK INTEGRAL PACKAGE
----------------------

Number of atoms                             ...     48
Number of basis functions                   ...    555
Number of shells                            ...    333
Maximum angular momentum                    ...      2
Integral batch strategy                     ... SHARK/LIBINT Hybrid
RI-J (if used) integral strategy            ... SPLIT-RIJ (Revised 2003 algorithm where possible)
Printlevel                                  ...      1
Contraction scheme used                     ... PARTIAL GENERAL contraction
Coulomb Range Separation                    ... NOT USED
Exchange Range Separation                   ... NOT USED
Finite Nucleus Model                        ... NOT USED
Auxiliary Coulomb fitting basis             ... AVAILABLE
   # of basis functions in Aux-J            ...   2871
   # of shells in Aux-J                     ...   1101
   Maximum angular momentum in Aux-J        ...      3
Auxiliary J/K fitting basis                 ... AVAILABLE
   # of basis functions in Aux-JK           ...   2871
   # of shells in Aux-JK                    ...   1101
   Maximum angular momentum in Aux-JK       ...      3
Auxiliary Correlation fitting basis         ... AVAILABLE
   # of basis functions in Aux-C            ...   2871
   # of shells in Aux-C                     ...   1101
   Maximum angular momentum in Aux-C        ...      3
Auxiliary 'external' fitting basis          ... NOT available
Integral threshold                          ...     1.000000e-10
Primitive cut-off                           ...     1.000000e-11
Primitive pair pre-selection threshold      ...     1.000000e-11

Calculating pre-screening integrals         ... done (  0.0 sec) Dimension = 333
Calculating pre-screening integrals (ORCA)  ... done (  0.1 sec) Dimension = 207
Organizing shell pair data                  ... done (  0.2 sec)
Shell pair information
Total number of shell pairs                 ...     55611
Shell pairs after pre-screening             ...     22660
Total number of primitive shell pairs       ...     92379
Primitive shell pairs kept                  ...     31323
          la=0 lb=0:  10018 shell pairs
          la=1 lb=0:   7976 shell pairs
          la=1 lb=1:   1410 shell pairs
          la=2 lb=0:   2291 shell pairs
          la=2 lb=1:    830 shell pairs
          la=2 lb=2:    135 shell pairs

Calculating one electron integrals          ... done (  0.0 sec)
Calculating RI/J V-Matrix + Cholesky decomp.... done (  0.5 sec)
Calculating RI/JK V-Matrix + Cholesky decomp... done (  0.5 sec)
Calculating RI/C V-Matrix + Cholesky decomp.... done (  0.5 sec)
Calculating Nuclear repulsion               ... done (  0.0 sec) ENN=   1438.090867443210 Eh

SHARK setup successfully completed in   2.4 seconds

Maximum memory used throughout the entire GTOINT-calculation: 36.5 MB


           ************************************************************
           *        Program running with 16 parallel MPI-processes    *
           *              working on a common directory               *
           ************************************************************
-------------------------------------------------------------------------------
                                 ORCA SCF
-------------------------------------------------------------------------------

------------
SCF SETTINGS
------------
Hamiltonian:
 Density Functional     Method          .... DFT(GTOs)
 Exchange Functional    Exchange        .... B88
   X-Alpha parameter    XAlpha          ....  0.666667
   Becke's b parameter  XBeta           ....  0.004200
 Correlation Functional Correlation     .... LYP
 LDA part of GGA corr.  LDAOpt          .... VWN-5
 Gradients option       PostSCFGGA      .... off
 Hybrid DFT is turned on
   Fraction HF Exchange ScalHFX         ....  0.200000
   Scaling of DF-GGA-X  ScalDFX         ....  0.720000
   Scaling of DF-GGA-C  ScalDFC         ....  0.810000
   Scaling of DF-LDA-C  ScalLDAC        ....  1.000000
   Perturbative correction              ....  0.000000
   Density functional embedding theory  .... OFF
   NL short-range parameter             ....  4.800000
 RI-approximation to the Coulomb term is turned on
   Number of AuxJ basis functions       .... 2871
   RIJ-COSX (HFX calculated with COS-X)).... on


General Settings:
 Integral files         IntName         .... cc-pVDZ_i
 Hartree-Fock type      HFTyp           .... UHF
 Total Charge           Charge          ....    0
 Multiplicity           Mult            ....    2
 Number of Electrons    NEL             ....  153
 Basis Dimension        Dim             ....  429
 Nuclear Repulsion      ENuc            ....   1438.0908674432 Eh

Convergence Acceleration:
 DIIS                   CNVDIIS         .... on
   Start iteration      DIISMaxIt       ....    12
   Startup error        DIISStart       ....  0.200000
   # of expansion vecs  DIISMaxEq       ....     5
   Bias factor          DIISBfac        ....   1.050
   Max. coefficient     DIISMaxC        ....  10.000
 Trust-Rad. Augm. Hess. CNVTRAH         .... auto
   Auto Start mean grad. ratio tolernc. ....  1.125000
   Auto Start start iteration           ....    20
   Auto Start num. interpolation iter.  ....    10
   Max. Number of Micro iterations      ....    16
   Max. Number of Macro iterations      .... Maxiter - #DIIS iter
   Number of Davidson start vectors     ....     2
   Converg. threshold I  (grad. norm)   ....   5.000e-05
   Converg. threshold II (energy diff.) ....   1.000e-06
   Grad. Scal. Fac. for Micro threshold ....   0.100
   Minimum threshold for Micro iter.    ....   0.010
   NR start threshold (gradient norm)   ....   0.001
   Initial trust radius                 ....   0.400
   Minimum AH scaling param. (alpha)    ....   1.000
   Maximum AH scaling param. (alpha)    .... 1000.000
   Orbital update algorithm             .... Taylor
   White noise on init. David. guess    .... on
   Maximum white noise                  ....   0.010
   Quad. conv. algorithm                .... NR
 SOSCF                  CNVSOSCF        .... off
 Level Shifting         CNVShift        .... on
   Level shift para.    LevelShift      ....    0.2500
   Turn off err/grad.   ShiftErr        ....    0.0010
 Zerner damping         CNVZerner       .... off
 Static damping         CNVDamp         .... on
   Fraction old density DampFac         ....    0.7000
   Max. Damping (<1)    DampMax         ....    0.9800
   Min. Damping (>=0)   DampMin         ....    0.0000
   Turn off err/grad.   DampErr         ....    0.1000
 Fernandez-Rico         CNVRico         .... off

SCF Procedure:
 Maximum # iterations   MaxIter         ....   125
 SCF integral mode      SCFMode         .... Direct
   Integral package                     .... SHARK and LIBINT hybrid scheme
 Reset frequency        DirectResetFreq ....    20
 Integral Threshold     Thresh          ....  1.000e-10 Eh
 Primitive CutOff       TCut            ....  1.000e-11 Eh

Convergence Tolerance:
 Convergence Check Mode ConvCheckMode   .... Total+1el-Energy
 Convergence forced     ConvForced      .... 0
 Energy Change          TolE            ....  1.000e-06 Eh
 1-El. energy change                    ....  1.000e-03 Eh
 DIIS Error             TolErr          ....  1.000e-06


Diagonalization of the overlap matrix:
Smallest eigenvalue                        ... 1.270e-04
Time for diagonalization                   ...    0.035 sec
Threshold for overlap eigenvalues          ... 1.000e-08
Number of eigenvalues below threshold      ... 0
Time for construction of square roots      ...    0.040 sec
Total time needed                          ...    0.076 sec

Time for model grid setup =    0.293 sec

------------------------------
INITIAL GUESS: MODEL POTENTIAL
------------------------------
Loading Hartree-Fock densities                     ... done
Calculating cut-offs                               ... done
Initializing the effective Hamiltonian             ... done
Setting up the integral package (SHARK)            ... done
Starting the Coulomb interaction                   ... done (   0.2 sec)
Reading the grid                                   ... done
Mapping shells                                     ... done
Starting the XC term evaluation                    ... done (   0.1 sec)
  promolecular density results
     # of electrons  =    152.992176209
     EX              =   -115.840313921
     EC              =     -4.989820734
     EX+EC           =   -120.830134655
Transforming the Hamiltonian                       ... done (   0.0 sec)
Diagonalizing the Hamiltonian                      ... done (   0.0 sec)
Back transforming the eigenvectors                 ... done (   0.0 sec)
Now organizing SCF variables                       ... done
                      ------------------
                      INITIAL GUESS DONE (   0.9 sec)
                      ------------------
-------------------
DFT GRID GENERATION
-------------------

General Integration Accuracy     IntAcc      ... 4.388
Radial Grid Type                 RadialGrid  ... OptM3 with GC (2021)
Angular Grid (max. ang.)         AngularGrid ... 4 (Lebedev-302)
Angular grid pruning method      GridPruning ... 4 (adaptive)
Weight generation scheme         WeightScheme... Becke
Basis function cutoff            BFCut       ... 1.0000e-10
Integration weight cutoff        WCut        ... 1.0000e-14
Angular grids for H and He will be reduced by one unit
Partially contracted basis set               ... off
Rotationally invariant grid construction     ... off

Total number of grid points                  ...   211627
Total number of batches                      ...     3329
Average number of points per batch           ...       63
Average number of grid points per atom       ...     4409
Time for grid setup =    1.125 sec

--------------------
COSX GRID GENERATION
--------------------

GRIDX 1
-------
General Integration Accuracy     IntAcc      ... 3.816
Radial Grid Type                 RadialGrid  ... OptM3 with GC (2021)
Angular Grid (max. ang.)         AngularGrid ... 1 (Lebedev-50)
Angular grid pruning method      GridPruning ... 4 (adaptive)
Weight generation scheme         WeightScheme... Becke
Basis function cutoff            BFCut       ... 1.0000e-10
Integration weight cutoff        WCut        ... 1.0000e-14
Angular grids for H and He will be reduced by one unit
Partially contracted basis set               ... on
Rotationally invariant grid construction     ... off

Total number of grid points                  ...    27004
Total number of batches                      ...      449
Average number of points per batch           ...       60
Average number of grid points per atom       ...      563
UseSFitting                                  ... on

GRIDX 2
-------
General Integration Accuracy     IntAcc      ... 4.020
Radial Grid Type                 RadialGrid  ... OptM3 with GC (2021)
Angular Grid (max. ang.)         AngularGrid ... 2 (Lebedev-110)
Angular grid pruning method      GridPruning ... 4 (adaptive)
Weight generation scheme         WeightScheme... Becke
Basis function cutoff            BFCut       ... 1.0000e-10
Integration weight cutoff        WCut        ... 1.0000e-14
Angular grids for H and He will be reduced by one unit
Partially contracted basis set               ... on
Rotationally invariant grid construction     ... off

Total number of grid points                  ...    56988
Total number of batches                      ...      916
Average number of points per batch           ...       62
Average number of grid points per atom       ...     1187
UseSFitting                                  ... on

GRIDX 3
-------
General Integration Accuracy     IntAcc      ... 4.338
Radial Grid Type                 RadialGrid  ... OptM3 with GC (2021)
Angular Grid (max. ang.)         AngularGrid ... 3 (Lebedev-194)
Angular grid pruning method      GridPruning ... 4 (adaptive)
Weight generation scheme         WeightScheme... Becke
Basis function cutoff            BFCut       ... 1.0000e-10
Integration weight cutoff        WCut        ... 1.0000e-14
Angular grids for H and He will be reduced by one unit
Partially contracted basis set               ... on
Rotationally invariant grid construction     ... off

Total number of grid points                  ...   124376
Total number of batches                      ...     1970
Average number of points per batch           ...       63
Average number of grid points per atom       ...     2591
UseSFitting                                  ... on

Time for X-Grid setup             =    2.078 sec

 re-compute Schwartz prescreening matrix in partically contracted basis (1) ...done (   0.124 sec)
--------------
SCF ITERATIONS
--------------
ITER       Energy         Delta-E        Max-DP      RMS-DP      [F,P]     Damp
               ***  Starting incremental Fock matrix formation  ***
  0   -815.2621818336   0.000000000000 0.06530210  0.00086516  0.0869861 0.7000
  1   -815.5028003806  -0.240618546982 0.04827754  0.00063942  0.0458308 0.7000
                               ***Turning on DIIS***
  2   -815.6100635619  -0.107263181331 0.09476332  0.00121897  0.0176524 0.0000
  3   -815.7588573709  -0.148793808934 0.01903085  0.00033510  0.0249357 0.0000
  4   -815.7995947663  -0.040737395381 0.00871021  0.00011853  0.0060420 0.0000
  5   -815.8018771096  -0.002282343298 0.00144141  0.00003327  0.0015179 0.0000
  6   -815.8020620792  -0.000184969642 0.00158651  0.00002093  0.0007201 0.0000
               *** Restarting incremental Fock matrix formation ***
                                   *** Resetting DIIS ***
  7   -815.8023258597  -0.000263780512 0.00147558  0.00001736  0.0009618 0.0000
  8   -815.8022824949   0.000043364828 0.00064962  0.00000703  0.0024296 0.0000
  9   -815.8023281020  -0.000045607108 0.00042634  0.00000494  0.0008843 0.0000
 10   -815.8023353932  -0.000007291199 0.00007710  0.00000117  0.0001143 0.0000
 11   -815.8023355930  -0.000000199782 0.00003222  0.00000055  0.0000347 0.0000
                 **** Energy Check signals convergence ****

               *****************************************************
               *                     SUCCESS                       *
               *           SCF CONVERGED AFTER  12 CYCLES          *
               *****************************************************

Old exchange energy                            =    -23.670296639 Eh
New exchange energy                            =    -23.670323685 Eh
Exchange energy change after final integration =     -0.000027047 Eh
Total energy after final integration           =   -815.802362793 Eh
Final COS-X integration done in                =     6.309 sec

----------------
TOTAL SCF ENERGY
----------------

Total Energy       :         -815.80236279 Eh          -22199.11087 eV

Components:
Nuclear Repulsion  :         1438.09086744 Eh           39132.44196 eV
Electronic Energy  :        -2253.89323024 Eh          -61331.55283 eV
One Electron Energy:        -3954.85100752 Eh         -107616.96706 eV
Two Electron Energy:         1700.95777728 Eh           46285.41422 eV
Max COSX asymmetry :            0.00000038 Eh               0.00001 eV

Virial components:
Potential Energy   :        -1625.73865285 Eh          -44238.59779 eV
Kinetic Energy     :          809.93629006 Eh           22039.48692 eV
Virial Ratio       :            2.00724263


DFT components:
N(Alpha)           :       77.000105031162 electrons
N(Beta)            :       76.000094886333 electrons
N(Total)           :      153.000199917495 electrons
E(X)               :      -93.828322171215 Eh       
E(C)               :       -5.897405319826 Eh       
E(XC)              :      -99.725727491041 Eh       
DFET-embed. en.    :        0.000000000000 Eh       

---------------
SCF CONVERGENCE
---------------

  Last Energy change         ...   -1.5332e-07  Tolerance :   1.0000e-06
  Last MAX-Density change    ...    0.0000e+00  Tolerance :   1.0000e-05
  Last RMS-Density change    ...    0.0000e+00  Tolerance :   1.0000e-06
  Last DIIS Error            ...    1.3015e-05  Tolerance :   1.0000e-06

             **** THE GBW FILE WAS UPDATED (cc-pVDZ_i.gbw) ****
             **** DENSITY cc-pVDZ_i.scfp WAS UPDATED ****
             **** ENERGY FILE WAS UPDATED (cc-pVDZ_i.en.tmp) ****
----------------------
UHF SPIN CONTAMINATION
----------------------

Warning: in a DFT calculation there is little theoretical justification to 
         calculate <S**2> as in Hartree-Fock theory. We will do it anyways
         but you should keep in mind that the values have only limited relevance

Expectation value of <S**2>     :     0.754004
Ideal value S*(S+1) for S=0.5   :     0.750000
Deviation                       :     0.004004

             **** THE GBW FILE WAS UPDATED (cc-pVDZ_i.gbw) ****
             **** DENSITY cc-pVDZ_i.scfp WAS UPDATED ****
----------------
ORBITAL ENERGIES
----------------
                 SPIN UP ORBITALS
  NO   OCC          E(Eh)            E(eV) 
   0   1.0000     -10.212405      -277.8937 
   1   1.0000     -10.212375      -277.8928 
   2   1.0000     -10.201645      -277.6009 
   3   1.0000     -10.201528      -277.5977 
   4   1.0000     -10.192173      -277.3431 
   5   1.0000     -10.192114      -277.3415 
   6   1.0000     -10.191826      -277.3337 
   7   1.0000     -10.191661      -277.3292 
   8   1.0000     -10.187273      -277.2098 
   9   1.0000     -10.186974      -277.2017 
  10   1.0000     -10.186828      -277.1977 
  11   1.0000     -10.186770      -277.1961 
  12   1.0000     -10.184214      -277.1266 
  13   1.0000     -10.183177      -277.0983 
  14   1.0000     -10.181985      -277.0659 
  15   1.0000     -10.181824      -277.0615 
  16   1.0000     -10.181579      -277.0549 
  17   1.0000     -10.181367      -277.0491 
  18   1.0000     -10.179610      -277.0013 
  19   1.0000     -10.175525      -276.8901 
  20   1.0000     -10.174130      -276.8522 
  21   1.0000      -0.874595       -23.7989 
  22   1.0000      -0.819282       -22.2938 
  23   1.0000      -0.805851       -21.9283 
  24   1.0000      -0.795100       -21.6358 
  25   1.0000      -0.785320       -21.3696 
  26   1.0000      -0.763109       -20.7653 
  27   1.0000      -0.751765       -20.4566 
  28   1.0000      -0.732844       -19.9417 
  29   1.0000      -0.720204       -19.5978 
  30   1.0000      -0.706964       -19.2375 
  31   1.0000      -0.675115       -18.3708 
  32   1.0000      -0.643036       -17.4979 
  33   1.0000      -0.637550       -17.3486 
  34   1.0000      -0.611972       -16.6526 
  35   1.0000      -0.590116       -16.0579 
  36   1.0000      -0.579215       -15.7612 
  37   1.0000      -0.564566       -15.3626 
  38   1.0000      -0.562738       -15.3129 
  39   1.0000      -0.541599       -14.7376 
  40   1.0000      -0.524762       -14.2795 
  41   1.0000      -0.498664       -13.5693 
  42   1.0000      -0.484113       -13.1734 
  43   1.0000      -0.476189       -12.9578 
  44   1.0000      -0.471443       -12.8286 
  45   1.0000      -0.470020       -12.7899 
  46   1.0000      -0.455184       -12.3862 
  47   1.0000      -0.433040       -11.7836 
  48   1.0000      -0.430170       -11.7055 
  49   1.0000      -0.427550       -11.6342 
  50   1.0000      -0.421034       -11.4569 
  51   1.0000      -0.416324       -11.3288 
  52   1.0000      -0.409321       -11.1382 
  53   1.0000      -0.407425       -11.0866 
  54   1.0000      -0.388671       -10.5763 
  55   1.0000      -0.384015       -10.4496 
  56   1.0000      -0.382972       -10.4212 
  57   1.0000      -0.370049       -10.0695 
  58   1.0000      -0.364152        -9.9091 
  59   1.0000      -0.357619        -9.7313 
  60   1.0000      -0.356577        -9.7030 
  61   1.0000      -0.349759        -9.5174 
  62   1.0000      -0.336880        -9.1670 
  63   1.0000      -0.335397        -9.1266 
  64   1.0000      -0.329899        -8.9770 
  65   1.0000      -0.328518        -8.9394 
  66   1.0000      -0.326261        -8.8780 
  67   1.0000      -0.325047        -8.8450 
  68   1.0000      -0.322518        -8.7762 
  69   1.0000      -0.319800        -8.7022 
  70   1.0000      -0.315319        -8.5803 
  71   1.0000      -0.279075        -7.5940 
  72   1.0000      -0.275799        -7.5049 
  73   1.0000      -0.274701        -7.4750 
  74   1.0000      -0.246056        -6.6955 
  75   1.0000      -0.219021        -5.9599 
  76   1.0000      -0.181611        -4.9419 
  77   0.0000      -0.050455        -1.3730 
  78   0.0000      -0.002711        -0.0738 
  79   0.0000       0.041101         1.1184 
  80   0.0000       0.048114         1.3092 
  81   0.0000       0.050468         1.3733 
  82   0.0000       0.062964         1.7133 
  83   0.0000       0.063976         1.7409 
  84   0.0000       0.071372         1.9421 
  85   0.0000       0.079963         2.1759 
  86   0.0000       0.084794         2.3074 
  87   0.0000       0.086968         2.3665 
  88   0.0000       0.090926         2.4742 
  89   0.0000       0.093851         2.5538 
  90   0.0000       0.094995         2.5849 
  91   0.0000       0.095631         2.6023 
  92   0.0000       0.101688         2.7671 
  93   0.0000       0.106468         2.8972 
  94   0.0000       0.111838         3.0433 
  95   0.0000       0.115013         3.1297 
  96   0.0000       0.126342         3.4380 
  97   0.0000       0.133517         3.6332 
  98   0.0000       0.138388         3.7657 
  99   0.0000       0.146881         3.9968 
 100   0.0000       0.151405         4.1199 
 101   0.0000       0.156476         4.2579 
 102   0.0000       0.158308         4.3078 
 103   0.0000       0.160025         4.3545 
 104   0.0000       0.162156         4.4125 
 105   0.0000       0.162989         4.4352 
 106   0.0000       0.167763         4.5651 
 107   0.0000       0.174275         4.7423 
 108   0.0000       0.177522         4.8306 
 109   0.0000       0.184318         5.0156 
 110   0.0000       0.199013         5.4154 
 111   0.0000       0.199946         5.4408 
 112   0.0000       0.208755         5.6805 
 113   0.0000       0.213581         5.8118 
 114   0.0000       0.222954         6.0669 
 115   0.0000       0.227818         6.1992 
 116   0.0000       0.238365         6.4862 
 117   0.0000       0.242443         6.5972 
 118   0.0000       0.258812         7.0426 
 119   0.0000       0.261902         7.1267 
 120   0.0000       0.272429         7.4132 
 121   0.0000       0.278753         7.5853 
 122   0.0000       0.292785         7.9671 
 123   0.0000       0.317806         8.6480 
 124   0.0000       0.326429         8.8826 
 125   0.0000       0.333457         9.0738 
 126   0.0000       0.349842         9.5197 
 127   0.0000       0.368217        10.0197 
 128   0.0000       0.372268        10.1299 
 129   0.0000       0.381422        10.3790 
 130   0.0000       0.411180        11.1888 
 131   0.0000       0.412007        11.2113 
 132   0.0000       0.414772        11.2865 
 133   0.0000       0.416800        11.3417 
 134   0.0000       0.418592        11.3905 
 135   0.0000       0.420022        11.4294 
 136   0.0000       0.425096        11.5675 
 137   0.0000       0.431922        11.7532 
 138   0.0000       0.448925        12.2159 
 139   0.0000       0.454011        12.3543 
 140   0.0000       0.458475        12.4757 
 141   0.0000       0.463013        12.5992 
 142   0.0000       0.467618        12.7245 
 143   0.0000       0.469763        12.7829 
 144   0.0000       0.473183        12.8760 
 145   0.0000       0.484760        13.1910 
 146   0.0000       0.485843        13.2204 
 147   0.0000       0.491631        13.3780 
 148   0.0000       0.503220        13.6933 
 149   0.0000       0.504991        13.7415 
 150   0.0000       0.512443        13.9443 
 151   0.0000       0.519885        14.1468 
 152   0.0000       0.528673        14.3859 
 153   0.0000       0.532344        14.4858 
 154   0.0000       0.536985        14.6121 
 155   0.0000       0.550736        14.9863 
 156   0.0000       0.551895        15.0178 
 157   0.0000       0.555117        15.1055 
 158   0.0000       0.565279        15.3820 
 159   0.0000       0.578826        15.7507 
 160   0.0000       0.591974        16.1084 
 161   0.0000       0.596068        16.2198 
 162   0.0000       0.601179        16.3589 
 163   0.0000       0.606696        16.5090 
 164   0.0000       0.611390        16.6368 
 165   0.0000       0.614753        16.7283 
 166   0.0000       0.618394        16.8274 
 167   0.0000       0.622275        16.9330 
 168   0.0000       0.627808        17.0835 
 169   0.0000       0.633112        17.2278 
 170   0.0000       0.638266        17.3681 
 171   0.0000       0.641513        17.4565 
 172   0.0000       0.644819        17.5464 
 173   0.0000       0.646349        17.5881 
 174   0.0000       0.651842        17.7375 
 175   0.0000       0.656545        17.8655 
 176   0.0000       0.657169        17.8825 
 177   0.0000       0.658528        17.9195 
 178   0.0000       0.659469        17.9451 
 179   0.0000       0.661468        17.9995 
 180   0.0000       0.662746        18.0342 
 181   0.0000       0.664551        18.0834 
 182   0.0000       0.670253        18.2385 
 183   0.0000       0.671290        18.2667 
 184   0.0000       0.673205        18.3188 
 185   0.0000       0.677776        18.4432 
 186   0.0000       0.684738        18.6327 
 187   0.0000       0.686265        18.6742 
 188   0.0000       0.694215        18.8906 
 189   0.0000       0.695617        18.9287 
 190   0.0000       0.698306        19.0019 
 191   0.0000       0.702274        19.1099 
 192   0.0000       0.708600        19.2820 
 193   0.0000       0.712935        19.3999 
 194   0.0000       0.716518        19.4975 
 195   0.0000       0.719432        19.5767 
 196   0.0000       0.722519        19.6608 
 197   0.0000       0.730263        19.8715 
 198   0.0000       0.730746        19.8846 
 199   0.0000       0.736956        20.0536 
 200   0.0000       0.747255        20.3338 
 201   0.0000       0.756121        20.5751 
 202   0.0000       0.759137        20.6572 
 203   0.0000       0.768323        20.9071 
 204   0.0000       0.776389        21.1266 
 205   0.0000       0.781663        21.2701 
 206   0.0000       0.807929        21.9849 
 207   0.0000       0.813941        22.1485 
 208   0.0000       0.829809        22.5803 
 209   0.0000       0.830992        22.6124 
 210   0.0000       0.838577        22.8188 
 211   0.0000       0.847729        23.0679 
 212   0.0000       0.851011        23.1572 
 213   0.0000       0.855322        23.2745 
 214   0.0000       0.877187        23.8695 
 215   0.0000       0.885509        24.0959 
 216   0.0000       0.892426        24.2841 
 217   0.0000       0.903626        24.5889 
 218   0.0000       0.917126        24.9563 
 219   0.0000       0.934827        25.4379 
 220   0.0000       0.943149        25.6644 
 221   0.0000       0.977485        26.5987 
 222   0.0000       0.979523        26.6542 
 223   0.0000       0.989770        26.9330 
 224   0.0000       1.014363        27.6022 
 225   0.0000       1.014996        27.6195 
 226   0.0000       1.027638        27.9635 
 227   0.0000       1.032627        28.0992 
 228   0.0000       1.043691        28.4003 
 229   0.0000       1.048441        28.5295 
 230   0.0000       1.050906        28.5966 
 231   0.0000       1.052597        28.6426 
 232   0.0000       1.069999        29.1161 
 233   0.0000       1.077413        29.3179 
 234   0.0000       1.088111        29.6090 
 235   0.0000       1.089450        29.6454 
 236   0.0000       1.127194        30.6725 
 237   0.0000       1.150268        31.3004 
 238   0.0000       1.159802        31.5598 
 239   0.0000       1.161141        31.5963 
 240   0.0000       1.176314        32.0091 
 241   0.0000       1.194362        32.5003 
 242   0.0000       1.204342        32.7718 
 243   0.0000       1.208308        32.8797 
 244   0.0000       1.211354        32.9626 
 245   0.0000       1.213543        33.0222 
 246   0.0000       1.214327        33.0435 
 247   0.0000       1.216752        33.1095 
 248   0.0000       1.222904        33.2769 
 249   0.0000       1.223812        33.3016 
 250   0.0000       1.233032        33.5525 
 251   0.0000       1.242599        33.8128 
 252   0.0000       1.266650        34.4673 
 253   0.0000       1.274846        34.6903 
 254   0.0000       1.293357        35.1940 
 255   0.0000       1.305511        35.5248 
 256   0.0000       1.315888        35.8071 
 257   0.0000       1.317177        35.8422 
 258   0.0000       1.320426        35.9306 
 259   0.0000       1.327641        36.1270 
 260   0.0000       1.331141        36.2222 
 261   0.0000       1.334003        36.3001 
 262   0.0000       1.336727        36.3742 
 263   0.0000       1.348131        36.6845 
 264   0.0000       1.363480        37.1022 
 265   0.0000       1.388753        37.7899 
 266   0.0000       1.396320        37.9958 
 267   0.0000       1.399820        38.0910 
 268   0.0000       1.416291        38.5392 
 269   0.0000       1.417866        38.5821 
 270   0.0000       1.426586        38.8194 
 271   0.0000       1.427794        38.8523 
 272   0.0000       1.428039        38.8589 
 273   0.0000       1.438232        39.1363 
 274   0.0000       1.461631        39.7730 
 275   0.0000       1.463278        39.8178 
 276   0.0000       1.467461        39.9316 
 277   0.0000       1.472830        40.0777 
 278   0.0000       1.483544        40.3693 
 279   0.0000       1.490957        40.5710 
 280   0.0000       1.504104        40.9288 
 281   0.0000       1.515305        41.2335 
 282   0.0000       1.519270        41.3414 
 283   0.0000       1.530010        41.6337 
 284   0.0000       1.531503        41.6743 
 285   0.0000       1.543686        42.0058 
 286   0.0000       1.557440        42.3801 
 287   0.0000       1.576744        42.9054 
 288   0.0000       1.588259        43.2187 
 289   0.0000       1.593395        43.3585 
 290   0.0000       1.601435        43.5773 
 291   0.0000       1.609803        43.8050 
 292   0.0000       1.618889        44.0522 
 293   0.0000       1.625714        44.2379 
 294   0.0000       1.626745        44.2660 
 295   0.0000       1.628388        44.3107 
 296   0.0000       1.630468        44.3673 
 297   0.0000       1.633228        44.4424 
 298   0.0000       1.640105        44.6295 
 299   0.0000       1.645930        44.7880 
 300   0.0000       1.649070        44.8735 
 301   0.0000       1.652000        44.9532 
 302   0.0000       1.657848        45.1123 
 303   0.0000       1.662173        45.2300 
 304   0.0000       1.666426        45.3458 
 305   0.0000       1.673047        45.5259 
 306   0.0000       1.679997        45.7150 
 307   0.0000       1.685456        45.8636 
 308   0.0000       1.687279        45.9132 
 309   0.0000       1.689257        45.9670 
 310   0.0000       1.693277        46.0764 
 311   0.0000       1.696007        46.1507 
 312   0.0000       1.701001        46.2866 
 313   0.0000       1.703772        46.3620 
 314   0.0000       1.713119        46.6163 
 315   0.0000       1.716995        46.7218 
 316   0.0000       1.719915        46.8013 
 317   0.0000       1.722302        46.8662 
 318   0.0000       1.726956        46.9929 
 319   0.0000       1.735587        47.2277 
 320   0.0000       1.742939        47.4278 
 321   0.0000       1.754252        47.7356 
 322   0.0000       1.758293        47.8456 
 323   0.0000       1.761435        47.9311 
 324   0.0000       1.763032        47.9745 
 325   0.0000       1.768505        48.1235 
 326   0.0000       1.785484        48.5855 
 327   0.0000       1.792154        48.7670 
 328   0.0000       1.794647        48.8348 
 329   0.0000       1.801174        49.0124 
 330   0.0000       1.804819        49.1116 
 331   0.0000       1.806252        49.1506 
 332   0.0000       1.822454        49.5915 
 333   0.0000       1.827877        49.7391 
 334   0.0000       1.845500        50.2186 
 335   0.0000       1.847436        50.2713 
 336   0.0000       1.858787        50.5802 
 337   0.0000       1.865302        50.7574 
 338   0.0000       1.871995        50.9396 
 339   0.0000       1.876980        51.0752 
 340   0.0000       1.893862        51.5346 
 341   0.0000       1.901061        51.7305 
 342   0.0000       1.908696        51.9383 
 343   0.0000       1.917280        52.1718 
 344   0.0000       1.930026        52.5187 
 345   0.0000       1.946495        52.9668 
 346   0.0000       1.954352        53.1806 
 347   0.0000       1.969458        53.5917 
 348   0.0000       1.977083        53.7992 
 349   0.0000       1.989365        54.1334 
 350   0.0000       1.991216        54.1837 
 351   0.0000       2.011404        54.7331 
 352   0.0000       2.014131        54.8073 
 353   0.0000       2.020919        54.9920 
 354   0.0000       2.030678        55.2576 
 355   0.0000       2.038354        55.4664 
 356   0.0000       2.051176        55.8153 
 357   0.0000       2.062210        56.1156 
 358   0.0000       2.079308        56.5808 
 359   0.0000       2.083382        56.6917 
 360   0.0000       2.091516        56.9130 
 361   0.0000       2.104750        57.2732 
 362   0.0000       2.108038        57.3626 
 363   0.0000       2.119199        57.6663 
 364   0.0000       2.124579        57.8127 
 365   0.0000       2.133158        58.0462 
 366   0.0000       2.158747        58.7425 
 367   0.0000       2.166936        58.9653 
 368   0.0000       2.184112        59.4327 
 369   0.0000       2.192891        59.6716 
 370   0.0000       2.201083        59.8945 
 371   0.0000       2.204108        59.9768 
 372   0.0000       2.215452        60.2855 
 373   0.0000       2.217236        60.3341 
 374   0.0000       2.221637        60.4538 
 375   0.0000       2.247524        61.1582 
 376   0.0000       2.261906        61.5496 
 377   0.0000       2.265176        61.6386 
 378   0.0000       2.268858        61.7388 
 379   0.0000       2.283640        62.1410 
 380   0.0000       2.294169        62.4275 
 381   0.0000       2.294954        62.4489 
 382   0.0000       2.299750        62.5794 
 383   0.0000       2.305998        62.7494 
 384   0.0000       2.316122        63.0249 
 385   0.0000       2.320141        63.1343 
 386   0.0000       2.323758        63.2327 
 387   0.0000       2.335151        63.5427 
 388   0.0000       2.346490        63.8512 
 389   0.0000       2.356472        64.1229 
 390   0.0000       2.363528        64.3149 
 391   0.0000       2.385877        64.9230 
 392   0.0000       2.406825        65.4930 
 393   0.0000       2.410047        65.5807 
 394   0.0000       2.412625        65.6509 
 395   0.0000       2.415746        65.7358 
 396   0.0000       2.422877        65.9298 
 397   0.0000       2.426403        66.0258 
 398   0.0000       2.430461        66.1362 
 399   0.0000       2.440279        66.4034 
 400   0.0000       2.451491        66.7085 
 401   0.0000       2.481525        67.5257 
 402   0.0000       2.495013        67.8927 
 403   0.0000       2.499954        68.0272 
 404   0.0000       2.532166        68.9038 
 405   0.0000       2.536575        69.0237 
 406   0.0000       2.547901        69.3319 
 407   0.0000       2.560535        69.6757 
 408   0.0000       2.582159        70.2641 
 409   0.0000       2.595934        70.6390 
 410   0.0000       2.608882        70.9913 
 411   0.0000       2.635619        71.7188 
 412   0.0000       2.646455        72.0137 
 413   0.0000       2.655166        72.2507 
 414   0.0000       2.671093        72.6841 
 415   0.0000       2.714397        73.8625 
 416   0.0000       2.720153        74.0191 
 417   0.0000       2.727099        74.2081 
 418   0.0000       2.737205        74.4831 
 419   0.0000       2.765032        75.2404 
 420   0.0000       2.795648        76.0735 
 421   0.0000       2.829767        77.0019 
 422   0.0000       2.834629        77.1342 
 423   0.0000       2.870246        78.1034 
 424   0.0000       2.887749        78.5796 
 425   0.0000       2.951154        80.3050 
 426   0.0000       3.189098        86.7798 
 427   0.0000       3.194732        86.9331 
 428   0.0000       3.384455        92.0957 

                 SPIN DOWN ORBITALS
  NO   OCC          E(Eh)            E(eV) 
   0   1.0000     -10.212400      -277.8935 
   1   1.0000     -10.212377      -277.8929 
   2   1.0000     -10.201653      -277.6011 
   3   1.0000     -10.201523      -277.5975 
   4   1.0000     -10.192167      -277.3430 
   5   1.0000     -10.192116      -277.3416 
   6   1.0000     -10.191827      -277.3337 
   7   1.0000     -10.191660      -277.3292 
   8   1.0000     -10.187261      -277.2095 
   9   1.0000     -10.186973      -277.2016 
  10   1.0000     -10.186829      -277.1977 
  11   1.0000     -10.186770      -277.1961 
  12   1.0000     -10.185112      -277.1510 
  13   1.0000     -10.182949      -277.0921 
  14   1.0000     -10.182288      -277.0741 
  15   1.0000     -10.181824      -277.0615 
  16   1.0000     -10.181579      -277.0549 
  17   1.0000     -10.179371      -276.9948 
  18   1.0000     -10.175525      -276.8901 
  19   1.0000     -10.174123      -276.8520 
  20   1.0000     -10.168130      -276.6889 
  21   1.0000      -0.874581       -23.7986 
  22   1.0000      -0.818298       -22.2670 
  23   1.0000      -0.799188       -21.7470 
  24   1.0000      -0.795097       -21.6357 
  25   1.0000      -0.783854       -21.3298 
  26   1.0000      -0.761926       -20.7331 
  27   1.0000      -0.751416       -20.4471 
  28   1.0000      -0.728547       -19.8248 
  29   1.0000      -0.720072       -19.5942 
  30   1.0000      -0.703638       -19.1470 
  31   1.0000      -0.674370       -18.3506 
  32   1.0000      -0.642382       -17.4801 
  33   1.0000      -0.636910       -17.3312 
  34   1.0000      -0.609765       -16.5926 
  35   1.0000      -0.588774       -16.0213 
  36   1.0000      -0.578224       -15.7343 
  37   1.0000      -0.564065       -15.3490 
  38   1.0000      -0.547944       -14.9103 
  39   1.0000      -0.541422       -14.7328 
  40   1.0000      -0.524140       -14.2626 
  41   1.0000      -0.498343       -13.5606 
  42   1.0000      -0.484084       -13.1726 
  43   1.0000      -0.476016       -12.9531 
  44   1.0000      -0.470335       -12.7985 
  45   1.0000      -0.466360       -12.6903 
  46   1.0000      -0.452926       -12.3247 
  47   1.0000      -0.431365       -11.7380 
  48   1.0000      -0.427809       -11.6413 
  49   1.0000      -0.426810       -11.6141 
  50   1.0000      -0.420682       -11.4473 
  51   1.0000      -0.416024       -11.3206 
  52   1.0000      -0.406829       -11.0704 
  53   1.0000      -0.402140       -10.9428 
  54   1.0000      -0.387196       -10.5361 
  55   1.0000      -0.382412       -10.4060 
  56   1.0000      -0.379738       -10.3332 
  57   1.0000      -0.368833       -10.0365 
  58   1.0000      -0.362738        -9.8706 
  59   1.0000      -0.356742        -9.7075 
  60   1.0000      -0.354872        -9.6566 
  61   1.0000      -0.348717        -9.4891 
  62   1.0000      -0.335634        -9.1331 
  63   1.0000      -0.333912        -9.0862 
  64   1.0000      -0.328446        -8.9375 
  65   1.0000      -0.327200        -8.9036 
  66   1.0000      -0.325566        -8.8591 
  67   1.0000      -0.324753        -8.8370 
  68   1.0000      -0.321168        -8.7394 
  69   1.0000      -0.319345        -8.6898 
  70   1.0000      -0.312620        -8.5068 
  71   1.0000      -0.279065        -7.5937 
  72   1.0000      -0.275798        -7.5048 
  73   1.0000      -0.274691        -7.4747 
  74   1.0000      -0.245984        -6.6936 
  75   1.0000      -0.218980        -5.9587 
  76   0.0000      -0.050508        -1.3744 
  77   0.0000      -0.036744        -0.9999 
  78   0.0000      -0.002576        -0.0701 
  79   0.0000       0.041134         1.1193 
  80   0.0000       0.048132         1.3098 
  81   0.0000       0.050474         1.3735 
  82   0.0000       0.063013         1.7147 
  83   0.0000       0.065045         1.7700 
  84   0.0000       0.071853         1.9552 
  85   0.0000       0.081408         2.2152 
  86   0.0000       0.084910         2.3105 
  87   0.0000       0.087369         2.3774 
  88   0.0000       0.090941         2.4746 
  89   0.0000       0.094689         2.5766 
  90   0.0000       0.095203         2.5906 
  91   0.0000       0.095741         2.6053 
  92   0.0000       0.102939         2.8011 
  93   0.0000       0.107202         2.9171 
  94   0.0000       0.112416         3.0590 
  95   0.0000       0.115088         3.1317 
  96   0.0000       0.126429         3.4403 
  97   0.0000       0.133913         3.6440 
  98   0.0000       0.139251         3.7892 
  99   0.0000       0.147575         4.0157 
 100   0.0000       0.151478         4.1219 
 101   0.0000       0.157042         4.2733 
 102   0.0000       0.160966         4.3801 
 103   0.0000       0.161888         4.4052 
 104   0.0000       0.162201         4.4137 
 105   0.0000       0.163735         4.4554 
 106   0.0000       0.170028         4.6267 
 107   0.0000       0.175417         4.7733 
 108   0.0000       0.178262         4.8508 
 109   0.0000       0.185670         5.0523 
 110   0.0000       0.199226         5.4212 
 111   0.0000       0.203489         5.5372 
 112   0.0000       0.209859         5.7106 
 113   0.0000       0.214033         5.8241 
 114   0.0000       0.223350         6.0777 
 115   0.0000       0.228793         6.2258 
 116   0.0000       0.239123         6.5069 
 117   0.0000       0.244601         6.6559 
 118   0.0000       0.259516         7.0618 
 119   0.0000       0.262016         7.1298 
 120   0.0000       0.274024         7.4566 
 121   0.0000       0.283738         7.7209 
 122   0.0000       0.294919         8.0252 
 123   0.0000       0.320176         8.7124 
 124   0.0000       0.326834         8.8936 
 125   0.0000       0.334279         9.0962 
 126   0.0000       0.350095         9.5266 
 127   0.0000       0.368375        10.0240 
 128   0.0000       0.372312        10.1311 
 129   0.0000       0.382555        10.4099 
 130   0.0000       0.411839        11.2067 
 131   0.0000       0.412035        11.2120 
 132   0.0000       0.415553        11.3078 
 133   0.0000       0.417790        11.3686 
 134   0.0000       0.419200        11.4070 
 135   0.0000       0.420128        11.4323 
 136   0.0000       0.426912        11.6169 
 137   0.0000       0.432862        11.7788 
 138   0.0000       0.450795        12.2668 
 139   0.0000       0.455700        12.4002 
 140   0.0000       0.462136        12.5753 
 141   0.0000       0.467754        12.7282 
 142   0.0000       0.470368        12.7994 
 143   0.0000       0.476188        12.9577 
 144   0.0000       0.478706        13.0263 
 145   0.0000       0.487303        13.2602 
 146   0.0000       0.492461        13.4005 
 147   0.0000       0.494343        13.4518 
 148   0.0000       0.504946        13.7403 
 149   0.0000       0.505678        13.7602 
 150   0.0000       0.513548        13.9743 
 151   0.0000       0.520979        14.1766 
 152   0.0000       0.529252        14.4017 
 153   0.0000       0.535052        14.5595 
 154   0.0000       0.539302        14.6752 
 155   0.0000       0.550993        14.9933 
 156   0.0000       0.554872        15.0988 
 157   0.0000       0.555899        15.1268 
 158   0.0000       0.567882        15.4528 
 159   0.0000       0.587773        15.9941 
 160   0.0000       0.594480        16.1766 
 161   0.0000       0.602117        16.3844 
 162   0.0000       0.604657        16.4535 
 163   0.0000       0.607557        16.5325 
 164   0.0000       0.613083        16.6828 
 165   0.0000       0.614875        16.7316 
 166   0.0000       0.618893        16.8409 
 167   0.0000       0.624110        16.9829 
 168   0.0000       0.631805        17.1923 
 169   0.0000       0.635093        17.2818 
 170   0.0000       0.639769        17.4090 
 171   0.0000       0.641644        17.4600 
 172   0.0000       0.647018        17.6062 
 173   0.0000       0.647576        17.6214 
 174   0.0000       0.652114        17.7449 
 175   0.0000       0.657406        17.8889 
 176   0.0000       0.658671        17.9234 
 177   0.0000       0.659503        17.9460 
 178   0.0000       0.661085        17.9890 
 179   0.0000       0.661581        18.0025 
 180   0.0000       0.664085        18.0707 
 181   0.0000       0.667176        18.1548 
 182   0.0000       0.671115        18.2620 
 183   0.0000       0.671951        18.2847 
 184   0.0000       0.673894        18.3376 
 185   0.0000       0.679850        18.4997 
 186   0.0000       0.685868        18.6634 
 187   0.0000       0.687066        18.6960 
 188   0.0000       0.695286        18.9197 
 189   0.0000       0.695883        18.9359 
 190   0.0000       0.699478        19.0338 
 191   0.0000       0.703559        19.1448 
 192   0.0000       0.708908        19.2904 
 193   0.0000       0.715005        19.4563 
 194   0.0000       0.717909        19.5353 
 195   0.0000       0.721449        19.6316 
 196   0.0000       0.723259        19.6809 
 197   0.0000       0.731347        19.9010 
 198   0.0000       0.733717        19.9654 
 199   0.0000       0.737846        20.0778 
 200   0.0000       0.747373        20.3371 
 201   0.0000       0.757363        20.6089 
 202   0.0000       0.760792        20.7022 
 203   0.0000       0.772599        21.0235 
 204   0.0000       0.777238        21.1497 
 205   0.0000       0.783960        21.3326 
 206   0.0000       0.808352        21.9964 
 207   0.0000       0.817456        22.2441 
[...]
  Y           0.4402525           -0.5589742            0.7026561
  Z           0.7790435            0.6268806            0.0105801

Notes:  (1) The A matrix conforms to the "SAI" spin Hamiltonian convention.
        (2) Tensor is right-handed.

 -----------------------------------------------------------
 Nucleus  45H : A:ISTP=    1 I=  0.5 P=533.5514 MHz/au**3
                Q:ISTP=    2 I=  1.0 Q=  0.0029 barn     
 -----------------------------------------------------------
 Solving for nuclear perturbation:
Forming RHS of the CP-SCF equations         ... 
Calc. nucleus orbit integrals (SHARK)       ... done

------------------------------------------------------------------------------
                           ORCA CP-SCF CALCULATION
------------------------------------------------------------------------------

Input orbitals are from        ... cc-pVDZ_i.gbw
Input Perturbation             ... cc-pVDZ_i.pin.tmp
Wavefunction output            ... cc-pVDZ_i.pout.tmp
Perturbation mode              ... Imaginary perturbation
Solver                         ... POPLE
Max. number of iterations      ... 64
Convergence tolerance          ... 1.000e-03
Integral handling              ... Direct
DFT GridXC                     ... 1
COSX GridX                     ... 1
COSX IntAccX                   ... 3.067
COSX Algorithm                 ... Auto
Number of perturbations        ... 3
Number of operators            ... 2
Orbital ranges used for CP-SCF:
 Operator 0:  Orbitals   0... 76  to  77...428
 Operator 1:  Orbitals   0... 75  to  76...428
Variables per perturbation     ... 53932
DFT calculation                         ... on
XC functional terms                     ... off
Hybrid DFT                              ... on
   Exchange mixing (SCF)                ...  0.200
   Exchange mixing (CP-SCF)             ...  0.200
   GGA exch. scaling(SCF)               ...  0.720
   GGA exch. scaling (CP-SCF)           ...  0.720
   GGA corr. scaling (SCF)              ...  0.810
   GGA corr. scaling (CP-SCF)           ...  0.810

CP-SCF GRID
-----------

General Integration Accuracy     IntAcc      ... 3.467
Radial Grid Type                 RadialGrid  ... OptM3 with GC (2021)
Angular Grid (max. ang.)         AngularGrid ... 1 (Lebedev-50)
Angular grid pruning method      GridPruning ... 4 (adaptive)
Weight generation scheme         WeightScheme... Becke
Basis function cutoff            BFCut       ... 1.0000e-10
Integration weight cutoff        WCut        ... 1.0000e-14
Angular grids for H and He will be reduced by one unit
Partially contracted basis set               ... off
Rotationally invariant grid construction     ... off

Total number of grid points                  ...    29776
Total number of batches                      ...      486
Average number of points per batch           ...       61
Average number of grid points per atom       ...      620

CP-SCF GRIDX
------------

General Integration Accuracy     IntAcc      ... 3.067
Radial Grid Type                 RadialGrid  ... OptM3 with GC (2021)
Angular Grid (max. ang.)         AngularGrid ... 1 (Lebedev-50)
Angular grid pruning method      GridPruning ... 4 (adaptive)
Weight generation scheme         WeightScheme... Becke
Basis function cutoff            BFCut       ... 1.0000e-10
Integration weight cutoff        WCut        ... 1.0000e-14
Angular grids for H and He will be reduced by one unit
Partially contracted basis set               ... on
Rotationally invariant grid construction     ... off

Total number of grid points                  ...    14110
Total number of batches                      ...      250
Average number of points per batch           ...       56
Average number of grid points per atom       ...      294

Memory available               ... 886.4 MB
Memory needed per perturbation ...  11.6 MB
Perturbations treated per batch... 3
Number of batches              ... 1
     CP-SCF ITERATION   0:   1.0089e-01 (   1.7 sec   0/  3 done)
     CP-SCF ITERATION   1:   1.5902e-03 (   1.6 sec   1/  3 done)
     CP-SCF ITERATION   2:   1.4175e-04 (   1.3 sec   3/  3 done)
                    *** THE CP-SCF HAS CONVERGED ***

Forming final perturbed densities           ... done
Transforming perturbed density to AO basis  ... done

 Raw HFC matrix (all values in MHz): 
 -----------------------------------
                -0.0397              -0.2306               0.0109
                -0.2306               0.1948              -0.0206
                 0.0109              -0.0206              -0.1806

 A(FC)          -0.0085              -0.0085              -0.0085
 A(SD)          -0.1714              -0.1743               0.3457
 A(ORB+DIA)      0.0000               0.0000               0.0001    A(PC) =   0.0000
 A(ORB)         -0.0000              -0.0000               0.0001    A(PC) =   0.0000
 A(DIA)          0.0000               0.0000               0.0000    A(PC) =   0.0000
             ----------           ----------           ----------
 A(Tot)         -0.1799              -0.1829               0.3373    A(iso)=   -0.0085
 Orientation: 
  X          -0.6666672            0.5318729           -0.5221744
  Y          -0.3748395            0.3662937            0.8516597
  Z           0.6442439            0.7635052           -0.0448290

Notes:  (1) The A matrix conforms to the "SAI" spin Hamiltonian convention.
        (2) Tensor is right-handed.

 -----------------------------------------------------------
 Nucleus  46H : A:ISTP=    1 I=  0.5 P=533.5514 MHz/au**3
                Q:ISTP=    2 I=  1.0 Q=  0.0029 barn     
 -----------------------------------------------------------
 Solving for nuclear perturbation:
Forming RHS of the CP-SCF equations         ... 
Calc. nucleus orbit integrals (SHARK)       ... done

------------------------------------------------------------------------------
                           ORCA CP-SCF CALCULATION
------------------------------------------------------------------------------

Input orbitals are from        ... cc-pVDZ_i.gbw
Input Perturbation             ... cc-pVDZ_i.pin.tmp
Wavefunction output            ... cc-pVDZ_i.pout.tmp
Perturbation mode              ... Imaginary perturbation
Solver                         ... POPLE
Max. number of iterations      ... 64
Convergence tolerance          ... 1.000e-03
Integral handling              ... Direct
DFT GridXC                     ... 1
COSX GridX                     ... 1
COSX IntAccX                   ... 3.067
COSX Algorithm                 ... Auto
Number of perturbations        ... 3
Number of operators            ... 2
Orbital ranges used for CP-SCF:
 Operator 0:  Orbitals   0... 76  to  77...428
 Operator 1:  Orbitals   0... 75  to  76...428
Variables per perturbation     ... 53932
DFT calculation                         ... on
XC functional terms                     ... off
Hybrid DFT                              ... on
   Exchange mixing (SCF)                ...  0.200
   Exchange mixing (CP-SCF)             ...  0.200
   GGA exch. scaling(SCF)               ...  0.720
   GGA exch. scaling (CP-SCF)           ...  0.720
   GGA corr. scaling (SCF)              ...  0.810
   GGA corr. scaling (CP-SCF)           ...  0.810

CP-SCF GRID
-----------

General Integration Accuracy     IntAcc      ... 3.467
Radial Grid Type                 RadialGrid  ... OptM3 with GC (2021)
Angular Grid (max. ang.)         AngularGrid ... 1 (Lebedev-50)
Angular grid pruning method      GridPruning ... 4 (adaptive)
Weight generation scheme         WeightScheme... Becke
Basis function cutoff            BFCut       ... 1.0000e-10
Integration weight cutoff        WCut        ... 1.0000e-14
Angular grids for H and He will be reduced by one unit
Partially contracted basis set               ... off
Rotationally invariant grid construction     ... off

Total number of grid points                  ...    29776
Total number of batches                      ...      486
Average number of points per batch           ...       61
Average number of grid points per atom       ...      620

CP-SCF GRIDX
------------

General Integration Accuracy     IntAcc      ... 3.067
Radial Grid Type                 RadialGrid  ... OptM3 with GC (2021)
Angular Grid (max. ang.)         AngularGrid ... 1 (Lebedev-50)
Angular grid pruning method      GridPruning ... 4 (adaptive)
Weight generation scheme         WeightScheme... Becke
Basis function cutoff            BFCut       ... 1.0000e-10
Integration weight cutoff        WCut        ... 1.0000e-14
Angular grids for H and He will be reduced by one unit
Partially contracted basis set               ... on
Rotationally invariant grid construction     ... off

Total number of grid points                  ...    14110
Total number of batches                      ...      250
Average number of points per batch           ...       56
Average number of grid points per atom       ...      294

Memory available               ... 885.9 MB
Memory needed per perturbation ...  11.6 MB
Perturbations treated per batch... 3
Number of batches              ... 1
     CP-SCF ITERATION   0:   3.6640e-02 (   1.7 sec   0/  3 done)
     CP-SCF ITERATION   1:   6.3015e-04 (   1.6 sec   3/  3 done)
                    *** THE CP-SCF HAS CONVERGED ***

Forming final perturbed densities           ... done
Transforming perturbed density to AO basis  ... done

 Raw HFC matrix (all values in MHz): 
 -----------------------------------
                -0.0260               0.0177              -0.0005
                 0.0177               0.0558              -0.0020
                -0.0005              -0.0020              -0.0297

 A(FC)           0.0000               0.0000               0.0000
 A(SD)          -0.0296              -0.0298               0.0595
 A(ORB+DIA)      0.0000               0.0000               0.0000    A(PC) =   0.0000
 A(ORB)         -0.0000              -0.0000               0.0000    A(PC) =   0.0000
 A(DIA)          0.0000               0.0000               0.0000    A(PC) =   0.0000
             ----------           ----------           ----------
 A(Tot)         -0.0296              -0.0298               0.0595    A(iso)=    0.0000
 Orientation: 
  X           0.6771415            0.7073950           -0.2026613
  Y          -0.1569152           -0.1302643           -0.9789836
  Z          -0.7189277            0.6947111            0.0227936

Notes:  (1) The A matrix conforms to the "SAI" spin Hamiltonian convention.
        (2) Tensor is right-handed.

 -----------------------------------------------------------
 Nucleus  47H : A:ISTP=    1 I=  0.5 P=533.5514 MHz/au**3
                Q:ISTP=    2 I=  1.0 Q=  0.0029 barn     
 -----------------------------------------------------------
 Solving for nuclear perturbation:
Forming RHS of the CP-SCF equations         ... 
Calc. nucleus orbit integrals (SHARK)       ... done

------------------------------------------------------------------------------
                           ORCA CP-SCF CALCULATION
------------------------------------------------------------------------------

Input orbitals are from        ... cc-pVDZ_i.gbw
Input Perturbation             ... cc-pVDZ_i.pin.tmp
Wavefunction output            ... cc-pVDZ_i.pout.tmp
Perturbation mode              ... Imaginary perturbation
Solver                         ... POPLE
Max. number of iterations      ... 64
Convergence tolerance          ... 1.000e-03
Integral handling              ... Direct
DFT GridXC                     ... 1
COSX GridX                     ... 1
COSX IntAccX                   ... 3.067
COSX Algorithm                 ... Auto
Number of perturbations        ... 3
Number of operators            ... 2
Orbital ranges used for CP-SCF:
 Operator 0:  Orbitals   0... 76  to  77...428
 Operator 1:  Orbitals   0... 75  to  76...428
Variables per perturbation     ... 53932
DFT calculation                         ... on
XC functional terms                     ... off
Hybrid DFT                              ... on
   Exchange mixing (SCF)                ...  0.200
   Exchange mixing (CP-SCF)             ...  0.200
   GGA exch. scaling(SCF)               ...  0.720
   GGA exch. scaling (CP-SCF)           ...  0.720
   GGA corr. scaling (SCF)              ...  0.810
   GGA corr. scaling (CP-SCF)           ...  0.810

CP-SCF GRID
-----------

General Integration Accuracy     IntAcc      ... 3.467
Radial Grid Type                 RadialGrid  ... OptM3 with GC (2021)
Angular Grid (max. ang.)         AngularGrid ... 1 (Lebedev-50)
Angular grid pruning method      GridPruning ... 4 (adaptive)
Weight generation scheme         WeightScheme... Becke
Basis function cutoff            BFCut       ... 1.0000e-10
Integration weight cutoff        WCut        ... 1.0000e-14
Angular grids for H and He will be reduced by one unit
Partially contracted basis set               ... off
Rotationally invariant grid construction     ... off

Total number of grid points                  ...    29776
Total number of batches                      ...      486
Average number of points per batch           ...       61
Average number of grid points per atom       ...      620

CP-SCF GRIDX
------------

General Integration Accuracy     IntAcc      ... 3.067
Radial Grid Type                 RadialGrid  ... OptM3 with GC (2021)
Angular Grid (max. ang.)         AngularGrid ... 1 (Lebedev-50)
Angular grid pruning method      GridPruning ... 4 (adaptive)
Weight generation scheme         WeightScheme... Becke
Basis function cutoff            BFCut       ... 1.0000e-10
Integration weight cutoff        WCut        ... 1.0000e-14
Angular grids for H and He will be reduced by one unit
Partially contracted basis set               ... on
Rotationally invariant grid construction     ... off

Total number of grid points                  ...    14110
Total number of batches                      ...      250
Average number of points per batch           ...       56
Average number of grid points per atom       ...      294

Memory available               ... 885.5 MB
Memory needed per perturbation ...  11.6 MB
Perturbations treated per batch... 3
Number of batches              ... 1
     CP-SCF ITERATION   0:   3.6299e-02 (   1.6 sec   0/  3 done)
     CP-SCF ITERATION   1:   5.4061e-04 (   1.6 sec   3/  3 done)
                    *** THE CP-SCF HAS CONVERGED ***

Forming final perturbed densities           ... done
Transforming perturbed density to AO basis  ... done

 Raw HFC matrix (all values in MHz): 
 -----------------------------------
                -0.9037              -0.2092              -0.1387
                -0.2092               1.0786               0.4023
                -0.1387               0.4022              -0.9206

 A(FC)          -0.2486              -0.2486              -0.2486
 A(SD)          -0.6134              -0.8170               1.4304
 A(ORB+DIA)     -0.0001              -0.0002               0.0006    A(PC) =   0.0001
 A(ORB)         -0.0000              -0.0002               0.0004    A(PC) =   0.0001
 A(DIA)         -0.0001              -0.0000               0.0001    A(PC) =  -0.0000
             ----------           ----------           ----------
 A(Tot)         -0.8621              -1.0659               1.1823    A(iso)=   -0.2486
 Orientation: 
  X          -0.8130487            0.5715875           -0.1106323
  Y          -0.2009158           -0.0971187            0.9747824
  Z           0.5464290            0.8147734            0.1938032

Notes:  (1) The A matrix conforms to the "SAI" spin Hamiltonian convention.
        (2) Tensor is right-handed.


--------------------------------------------------------------------------------
----------------------------------------------------------------------------
                           ORCA EULER ANGLE PROGRAM
----------------------------------------------------------------------------

Only g-tensor available        -->  using g-tensor as reference tensor

Reference tensor               ...  g

g-tensor ordering              ...  |g_min> --> |gx>
                                    |g_mid> --> |gy>
                                    |g_max> --> |gz>

A- and EFG-tensor ordering     ...  the axes |Ax>, |Qx>, |Ay>, etc. are assigned
                                    such that the Euler rotation is minimal. You
                                    can find the respective eigenvalues as Ax,
                                    EFGx, Ay, etc. in the tables below.
                                    The relation of |Ax>, |Ay>,  etc. to Amin, Amid, etc.
                                    (as printed in the ORCA EPR/NMR CALCULATION Output)
                                    is obtained in the detailed printout.

Euler rotation around          ...  z - y - z
   First rotation              -->  by alpha around z
   Second rotation             -->  by beta around y'
   Third rotation              -->  by gamma around z''
   Positive / Negative angle   -->  clockwise / counterclockwise rotation

Plot EFG-tensors                    (-)
Plot HFC-tensors                    (-)
Detailed Printout                   (-)

-------------------------------------------------------------------------
          Euler rotation of hyperfine tensor to g-tensor
-------------------------------------------------------------------------

-------------------------------------------------------------------
 Atom  |   Alpha    Beta    Gamma   |   Ax       Ay       Az 
       |          [degrees]         |           [MHz]         
-------------------------------------------------------------------
  9H      151.3     35.0   -163.2      -0.12     0.27    -0.11
 10H     -160.7     36.9    151.3      -0.74     1.34    -0.71
 12H     -126.6      7.1    119.4      -0.06     0.22    -0.06
 13H       -4.9     34.9    -13.8      -0.06     0.22    -0.06
 15H       14.4     35.7    -16.0      -0.07     0.14    -0.07
 16H       16.0     43.9    -25.7      -0.07     0.14    -0.07
 18H        1.9     28.2    -17.6      -0.05     0.09    -0.05
 19H       -3.3     24.5     -4.7      -0.05     0.09    -0.05
 21H       21.7     32.0    -31.6      -0.04     0.07    -0.04
 22H       18.2     30.6    -21.0      -0.04     0.07    -0.04
 24H       95.0     35.6   -112.8      -0.36     2.74    -0.32
 25H       48.5     32.4    -39.2       0.07     3.04    -0.48
 27H     -118.1     10.1    125.1      -4.12     4.03    -4.30
 28H        2.6     40.8    -28.3      -4.29     4.79    -5.62
 30H      -29.4     25.6     68.4      35.99    35.22    49.30
 31H       88.3     44.9    -55.5     108.40   119.38   106.45
 33H       55.9     18.1    -55.0     -56.08   -91.95   -16.25
 35H      -47.9     24.8     20.8     108.93   119.91   107.00
 36H     -132.6     52.5    156.8      34.39    48.42    35.16
 38H       91.2     38.7   -100.7      -4.13     4.01    -4.30
 39H       45.8     35.8    -11.2      -4.32     4.75    -5.66
 41H     -171.1     43.1   -173.4      -0.29     2.70    -0.27
 42H       15.8     25.6    -19.6       0.13     2.97    -0.37
 44H      -56.2     33.6     32.4      -0.11     0.24    -0.11
 45H      -62.0     43.3     93.8      -0.18    -0.18     0.34
 46H       11.4     27.9    -20.5      -0.03     0.06    -0.03
 47H       30.7     38.3    -17.3      -0.86     1.18    -1.07
-------------------------------------------------------------------


Maximum memory used throughout the entire EPRNMR-calculation: 199.0 MB

Timings for individual modules:

Sum of individual times         ...     4124.217 sec (=  68.737 min)
GTO integral calculation        ...        4.775 sec (=   0.080 min)   0.1 %
Spin-Orbit-Coupling Matrices    ...        8.112 sec (=   0.135 min)   0.2 %
SCF iterations                  ...       75.891 sec (=   1.265 min)   1.8 %
EPR/NMR calculation             ...     4035.439 sec (=  67.257 min)  97.8 %
                             ****ORCA TERMINATED NORMALLY****
TOTAL RUN TIME: 0 days 1 hours 8 minutes 48 seconds 576 msec
