
                                 *****************
                                 * O   R   C   A *
                                 *****************

                                            #,                                       
                                            ###                                      
                                            ####                                     
                                            #####                                    
                                            ######                                   
                                           ########,                                 
                                     ,,################,,,,,                         
                               ,,#################################,,                 
                          ,,##########################################,,             
                       ,#########################################, ''#####,          
                    ,#############################################,,   '####,        
                  ,##################################################,,,,####,       
                ,###########''''           ''''###############################       
              ,#####''   ,,,,##########,,,,          '''####'''          '####       
            ,##' ,,,,###########################,,,                        '##       
           ' ,,###''''                  '''############,,,                           
         ,,##''                                '''############,,,,        ,,,,,,###''
      ,#''                                            '''#######################'''  
     '                                                          ''''####''''         
             ,#######,   #######,   ,#######,      ##                                
            ,#'     '#,  ##    ##  ,#'     '#,    #''#        ######   ,####,        
            ##       ##  ##   ,#'  ##            #'  '#       #        #'  '#        
            ##       ##  #######   ##           ,######,      #####,   #    #        
            '#,     ,#'  ##    ##  '#,     ,#' ,#      #,         ##   #,  ,#        
             '#######'   ##     ##  '#######'  #'      '#     #####' # '####'        



                  #######################################################
                  #                        -***-                        #
                  #          Department of theory and spectroscopy      #
                  #    Directorship and core code : Frank Neese         #
                  #        Max Planck Institute fuer Kohlenforschung    #
                  #                Kaiser Wilhelm Platz 1               #
                  #                 D-45470 Muelheim/Ruhr               #
                  #                      Germany                        #
                  #                                                     #
                  #                  All rights reserved                #
                  #                        -***-                        #
                  #######################################################


                         Program Version 5.0.4 -  RELEASE  -


 With contributions from (in alphabetic order):
   Daniel Aravena         : Magnetic Suceptibility
   Michael Atanasov       : Ab Initio Ligand Field Theory (pilot matlab implementation)
   Alexander A. Auer      : GIAO ZORA, VPT2 properties, NMR spectrum
   Ute Becker             : Parallelization
   Giovanni Bistoni       : ED, misc. LED, open-shell LED, HFLD
   Martin Brehm           : Molecular dynamics
   Dmytro Bykov           : SCF Hessian
   Vijay G. Chilkuri      : MRCI spin determinant printing, contributions to CSF-ICE
   Dipayan Datta          : RHF DLPNO-CCSD density
   Achintya Kumar Dutta   : EOM-CC, STEOM-CC
   Dmitry Ganyushin       : Spin-Orbit,Spin-Spin,Magnetic field MRCI
   Miquel Garcia          : C-PCM and meta-GGA Hessian, CC/C-PCM, Gaussian charge scheme
   Yang Guo               : DLPNO-NEVPT2, F12-NEVPT2, CIM, IAO-localization
   Andreas Hansen         : Spin unrestricted coupled pair/coupled cluster methods
   Benjamin Helmich-Paris : MC-RPA, TRAH-SCF, COSX integrals
   Lee Huntington         : MR-EOM, pCC
   Robert Izsak           : Overlap fitted RIJCOSX, COSX-SCS-MP3, EOM
   Marcus Kettner         : VPT2
   Christian Kollmar      : KDIIS, OOCD, Brueckner-CCSD(T), CCSD density, CASPT2, CASPT2-K
   Simone Kossmann        : Meta GGA functionals, TD-DFT gradient, OOMP2, MP2 Hessian
   Martin Krupicka        : Initial AUTO-CI
   Lucas Lang             : DCDCAS
   Marvin Lechner         : AUTO-CI (C++ implementation), FIC-MRCC
   Dagmar Lenk            : GEPOL surface, SMD
   Dimitrios Liakos       : Extrapolation schemes; Compound Job, initial MDCI parallelization
   Dimitrios Manganas     : Further ROCIS development; embedding schemes
   Dimitrios Pantazis     : SARC Basis sets
   Anastasios Papadopoulos: AUTO-CI, single reference methods and gradients
   Taras Petrenko         : DFT Hessian,TD-DFT gradient, ASA, ECA, R-Raman, ABS, FL, XAS/XES, NRVS
   Peter Pinski           : DLPNO-MP2, DLPNO-MP2 Gradient
   Christoph Reimann      : Effective Core Potentials
   Marius Retegan         : Local ZFS, SOC
   Christoph Riplinger    : Optimizer, TS searches, QM/MM, DLPNO-CCSD(T), (RO)-DLPNO pert. Triples
   Tobias Risthaus        : Range-separated hybrids, TD-DFT gradient, RPA, STAB
   Michael Roemelt        : Original ROCIS implementation
   Masaaki Saitow         : Open-shell DLPNO-CCSD energy and density
   Barbara Sandhoefer     : DKH picture change effects
   Avijit Sen             : IP-ROCIS
   Kantharuban Sivalingam : CASSCF convergence, NEVPT2, FIC-MRCI
   Bernardo de Souza      : ESD, SOC TD-DFT
   Georgi Stoychev        : AutoAux, RI-MP2 NMR, DLPNO-MP2 response
   Willem Van den Heuvel  : Paramagnetic NMR
   Boris Wezisla          : Elementary symmetry handling
   Frank Wennmohs         : Technical directorship


 We gratefully acknowledge several colleagues who have allowed us to
 interface, adapt or use parts of their codes:
   Stefan Grimme, W. Hujo, H. Kruse, P. Pracht,  : VdW corrections, initial TS optimization,
                  C. Bannwarth, S. Ehlert          DFT functionals, gCP, sTDA/sTD-DF
   Ed Valeev, F. Pavosevic, A. Kumar             : LibInt (2-el integral package), F12 methods
   Garnet Chan, S. Sharma, J. Yang, R. Olivares  : DMRG
   Ulf Ekstrom                                   : XCFun DFT Library
   Mihaly Kallay                                 : mrcc  (arbitrary order and MRCC methods)
   Jiri Pittner, Ondrej Demel                    : Mk-CCSD
   Frank Weinhold                                : gennbo (NPA and NBO analysis)
   Christopher J. Cramer and Donald G. Truhlar   : smd solvation model
   Lars Goerigk                                  : TD-DFT with DH, B97 family of functionals
   V. Asgeirsson, H. Jonsson                     : NEB implementation
   FAccTs GmbH                                   : IRC, NEB, NEB-TS, DLPNO-Multilevel, CI-OPT
                                                   MM, QMMM, 2- and 3-layer-ONIOM, Crystal-QMMM,
                                                   LR-CPCM, SF, NACMEs, symmetry and pop. for TD-DFT,
                                                   nearIR, NL-DFT gradient (VV10), updates on ESD,
                                                   ML-optimized integration grids
   S Lehtola, MJT Oliveira, MAL Marques          : LibXC Library
   Liviu Ungur et al                             : ANISO software


 Your calculation uses the libint2 library for the computation of 2-el integrals
 For citations please refer to: http://libint.valeyev.net

 Your ORCA version has been built with support for libXC version: 5.1.0
 For citations please refer to: https://tddft.org/programs/libxc/

 This ORCA versions uses:
   CBLAS   interface :  Fast vector & matrix operations
   LAPACKE interface :  Fast linear algebra routines
   SCALAPACK package :  Parallel linear algebra routines
   Shared memory     :  Shared parallel matrices
   BLAS/LAPACK       :  OpenBLAS 0.3.15  USE64BITINT DYNAMIC_ARCH NO_AFFINITY SkylakeX SINGLE_THREADED
        Core in use  :  SkylakeX
   Copyright (c) 2011-2014, The OpenBLAS Project




***************************************
The coordinates will be read from file: opt_cc-pVDZ.xyz
***************************************


================================================================================

----- Orbital basis set information -----
Your calculation utilizes the basis: cc-pVDZ 
       H, B-Ne : Obtained from the ccRepo (grant-hill.group.shef.ac.uk/ccrepo) Feb. 2017
                 T. H. Dunning, Jr., J. Chem. Phys. 90, 1007 (1989)
            He : Obtained from the ccRepo (grant-hill.group.shef.ac.uk/ccrepo) Feb. 2017
                 D. E. Woon, T. H. Dunning, Jr., J. Chem. Phys. 100, 2975 (1994)
  Li-Be, Na-Mg : Obtained from the ccRepo (grant-hill.group.shef.ac.uk/ccrepo) Feb. 2017
                 B. P. Prascher, D. E. Woon, K. A. Peterson, T. H. Dunning, Jr., A. K. Wilson, Theor. Chem. Acc. 128, 69 (2011)
         Al-Ar : Obtained from the ccRepo (grant-hill.group.shef.ac.uk/ccrepo) Feb. 2017
                 D. E. Woon, T. H. Dunning, Jr., J. Chem. Phys. 98, 1358 (1993)
            Ca : Obtained from the Peterson Research Group Website (tyr0.chem.wsu.edu/~kipeters) Feb. 2017
                 J. Koput, K. A. Peterson, J. Phys. Chem. 106, 9595 (2002)
         Sc-Zn : Obtained from the ccRepo (grant-hill.group.shef.ac.uk/ccrepo) Feb. 2017
                 N. B. Balabanov, K. A. Peterson, J. Chem. Phys. 123, 064107 (2005)
                 N. B. Balabanov, K. A. Peterson, J. Chem. Phys. 125, 074110 (2006)
         Ga-Kr : Obtained from the ccRepo (grant-hill.group.shef.ac.uk/ccrepo) Feb. 2017
                 A. K. Wilson, D. E. Woon, K. A. Peterson, T. H. Dunning, Jr., J. Chem. Phys. 110, 7667 (1999)

----- AuxJ basis set information -----
Your calculation utilizes the AutoAux generation procedure.
  G. L. Stoychev, A. A. Auer, F. Neese, J. Chem. Theory Comput. 13, 554 (2017)

----- AuxC basis set information -----
Your calculation utilizes the AutoAux generation procedure.
  G. L. Stoychev, A. A. Auer, F. Neese, J. Chem. Theory Comput. 13, 554 (2017)

----- AuxJK basis set information -----
Your calculation utilizes the AutoAux generation procedure.
  G. L. Stoychev, A. A. Auer, F. Neese, J. Chem. Theory Comput. 13, 554 (2017)

================================================================================
                                        WARNINGS
                       Please study these warnings very carefully!
================================================================================

WARNING: Old DensityContainer found on disk!
         Will remove this file - 
         If you want to keep old densities, please start your calculation with a different basename. 


WARNING: your system is open-shell and RHF/RKS was chosen
  ===> : WILL SWITCH to UHF/UKS


INFO   : the flag for use of the SHARK integral package has been found!

================================================================================
                                       INPUT FILE
================================================================================
NAME = cc-pVDZ_i.inp
|  1> ! B3LYP cc-pVDZ AUTOAUX
|  2> %pal nprocs 16 end
|  3> *XYZFile 0 2 opt_cc-pVDZ.xyz
|  4> %EPRNMR
|  5>         GTENSOR   TRUE
|  6>         NUCLEI    = ALL H {SHIFT, AISO, ADIP, AORB}
|  7>         ORI       GIAO
|  8> END
|  9> 
| 10>                          ****END OF INPUT****
================================================================================

                       ****************************
                       * Single Point Calculation *
                       ****************************

---------------------------------
CARTESIAN COORDINATES (ANGSTROEM)
---------------------------------
  C     -3.990474    0.213479   -0.298481
  C     -2.777441    0.134144   -0.263858
  C      2.880897   -0.106043   -0.120379
  C     -1.347815    0.049669   -0.226224
  C     -0.698776   -1.210494   -0.168570
  C      0.696296   -1.210879   -0.135530
  C      1.451284   -0.021100   -0.157551
  C      0.802212    1.239014   -0.215171
  C     -0.592868    1.239641   -0.247866
  H      1.240450   -2.154000   -0.091082
  H     -1.136912    2.182924   -0.291454
  C     -1.520782   -2.484996   -0.145490
  H     -2.176636   -2.488439   -1.035570
  H     -2.218060   -2.430466    0.710748
  C     -0.747611   -3.804844   -0.083670
  H     -0.066124   -3.881843   -0.950966
  H     -0.105187   -3.822789    0.816044
  C     -1.670990   -5.028982   -0.062709
  H     -2.353926   -4.954869    0.803925
  H     -2.318086   -5.012047   -0.959309
  C     -0.910579   -6.356190   -0.003882
  H     -0.279930   -6.416960    0.899945
  H     -0.247011   -6.477025   -0.877573
  C      1.625503    2.512447   -0.238701
  H      2.287808    2.510699    0.646515
  H      2.316549    2.461102   -1.100306
  C      0.854202    3.833514   -0.288322
  H      0.209212    3.860788   -1.185293
  H      0.179615    3.912600    0.582541
  C      1.785706    5.054697   -0.308651
  H      2.452363    5.030736    0.576528
  H      2.476200    4.960447   -1.179361
  C      1.070499    6.365994   -0.363119
  H      0.094601    6.402918   -0.863870
  C      1.766767    7.657330   -0.078817
  H      2.447342    7.917413   -0.923811
  H      2.441944    7.532628    0.791881
  C      0.820963    8.842124    0.167214
  H      0.163448    8.965423   -0.713282
  H      0.153759    8.598599    1.013688
  C      1.557033   10.154162    0.446888
  H      2.199385   10.070464    1.340682
  H      2.206392   10.437938   -0.399527
  C      4.093969   -0.186466   -0.089393
  H     -5.060140    0.285000   -0.327657
  H      5.163597   -0.258788   -0.060858
  H     -1.599741   -7.216105    0.012542
  H      0.852686   10.984082    0.619795

----------------------------
CARTESIAN COORDINATES (A.U.)
----------------------------
  NO LB      ZA    FRAG     MASS         X           Y           Z
   0 C     6.0000    0    12.011   -7.540902    0.403416   -0.564047
   1 C     6.0000    0    12.011   -5.248603    0.253496   -0.498619
   2 C     6.0000    0    12.011    5.444106   -0.200393   -0.227482
   3 C     6.0000    0    12.011   -2.547002    0.093861   -0.427500
   4 C     6.0000    0    12.011   -1.320496   -2.287502   -0.318551
   5 C     6.0000    0    12.011    1.315808   -2.288230   -0.256115
   6 C     6.0000    0    12.011    2.742530   -0.039873   -0.297729
   7 C     6.0000    0    12.011    1.515960    2.341397   -0.406614
   8 C     6.0000    0    12.011   -1.120359    2.342582   -0.468399
   9 H     1.0000    0     1.008    2.344111   -4.070470   -0.172120
  10 H     1.0000    0     1.008   -2.148451    4.125128   -0.550769
  11 C     6.0000    0    12.011   -2.873861   -4.695962   -0.274936
  12 H     1.0000    0     1.008   -4.113245   -4.702468   -1.956944
  13 H     1.0000    0     1.008   -4.191527   -4.592915    1.343120
  14 C     6.0000    0    12.011   -1.412780   -7.190113   -0.158113
  15 H     1.0000    0     1.008   -0.124957   -7.335620   -1.797064
  16 H     1.0000    0     1.008   -0.198775   -7.224024    1.542100
  17 C     6.0000    0    12.011   -3.157713   -9.503399   -0.118503
  18 H     1.0000    0     1.008   -4.448275   -9.363345    1.519197
  19 H     1.0000    0     1.008   -4.380547   -9.471397   -1.812831
  20 C     6.0000    0    12.011   -1.720745  -12.011458   -0.007336
  21 H     1.0000    0     1.008   -0.528990  -12.126296    1.700649
  22 H     1.0000    0     1.008   -0.466784  -12.239803   -1.658373
  23 C     6.0000    0    12.011    3.071756    4.747838   -0.451080
  24 H     1.0000    0     1.008    4.323330    4.744533    1.221736
  25 H     1.0000    0     1.008    4.377644    4.650808   -2.079276
  26 C     6.0000    0    12.011    1.614208    7.244291   -0.544849
  27 H     1.0000    0     1.008    0.395353    7.295832   -2.239879
  28 H     1.0000    0     1.008    0.339423    7.393743    1.100844
  29 C     6.0000    0    12.011    3.374496    9.551993   -0.583266
  30 H     1.0000    0     1.008    4.634294    9.506713    1.089481
  31 H     1.0000    0     1.008    4.679340    9.373887   -2.228670
  32 C     6.0000    0    12.011    2.022950   12.029985   -0.686195
  33 H     1.0000    0     1.008    0.178770   12.099762   -1.632478
  34 C     6.0000    0    12.011    3.338707   14.470257   -0.148942
  35 H     1.0000    0     1.008    4.624807   14.961742   -1.745749
  36 H     1.0000    0     1.008    4.614606   14.234604    1.496438
  37 C     6.0000    0    12.011    1.551396   16.709192    0.315989
  38 H     1.0000    0     1.008    0.308872   16.942194   -1.347908
  39 H     1.0000    0     1.008    0.290562   16.248996    1.915593
  40 C     6.0000    0    12.011    2.942366   19.188585    0.844495
  41 H     1.0000    0     1.008    4.156235   19.030420    2.533521
  42 H     1.0000    0     1.008    4.169477   19.724845   -0.754997
  43 C     6.0000    0    12.011    7.736480   -0.352369   -0.168928
  44 H     1.0000    0     1.008   -9.562279    0.538572   -0.619182
  45 H     1.0000    0     1.008    9.757784   -0.489038   -0.115005
  46 H     1.0000    0     1.008   -3.023073  -13.636463    0.023700
  47 H     1.0000    0     1.008    1.611343   20.756907    1.171243

--------------------------------
INTERNAL COORDINATES (ANGSTROEM)
--------------------------------
 C      0   0   0     0.000000000000     0.00000000     0.00000000
 C      1   0   0     1.216117048964     0.00000000     0.00000000
 C      2   1   0     5.665250845458   178.67690058     0.00000000
 C      2   1   3     1.432613641180   179.61839919   348.51471949
 C      4   2   1     1.418656911374   120.66342226   197.48915390
 C      5   4   2     1.395463399374   117.29562187   179.95563944
 C      6   5   4     1.409279329350   122.34211427     0.00000000
 C      7   6   5     1.418626585465   120.36014119     0.00000000
 C      8   7   6     1.395463207708   117.30719735     0.00000000
 H      6   5   4     1.089750611707   120.02668432   180.00503417
 H      9   8   7     1.089800685934   120.02663200   179.94500310
 C      5   4   2     1.516766341709   119.93889579   359.96566536
 H     12   5   4     1.105621851246   108.17066398    56.28753182
 H     12   5   4     1.105583610811   108.18819747   303.68982800
 C     12   5   4     1.530886647860   116.83009643   179.96689466
 H     15  12   5     1.105691648918   109.85535805   301.67706615
 H     15  12   5     1.105674457952   109.89498223    58.17654675
 C     15  12   5     1.533486934293   112.62308235   179.92243918
 H     18  15  12     1.105869968237   109.21233816   302.21020716
 H     18  15  12     1.105853184166   109.21055803    57.52293167
 C     18  15  12     1.530740091535   113.17463012   179.87961782
 H     21  18  15     1.103772867665   111.28655044    59.73184939
 H     21  18  15     1.103747911436   111.29376926   300.00545303
 C      8   7   6     1.516573614468   119.87476155   180.01400651
 H     24   8   7     1.105557659475   108.14726392   304.20113623
 H     24   8   7     1.105686759515   108.20289873    56.79042516
 C     24   8   7     1.530550087108   116.85196812   180.54152745
 H     27  24   8     1.105130525235   109.98226514   301.48185071
 H     27  24   8     1.104411466795   110.12411363    58.38797032
 C     27  24   8     1.536034686535   112.39775374   179.99864835
 H     30  27  24     1.108398893802   109.69353459   303.15347104
 H     30  27  24     1.115258215389   108.57888004    56.70894640
 C     30  27  24     1.494652755992   114.06616069   179.74837481
 H     33  30  27     1.097494019470   118.14071046   330.21628955
 C     33  30  27     1.494378321848   121.88659648   165.80827816
 H     35  33  30     1.115723905966   109.97181459    72.48294426
 H     35  33  30     1.108841226921   109.62789594   318.18794351
 C     35  33  30     1.535842757822   114.21516115   194.72016183
 H     38  35  33     1.105804126030   108.94324381   302.64514087
 H     38  35  33     1.104981647181   108.93795562    57.84153776
 C     38  35  33     1.530183016459   113.23485052   180.37660150
 H     41  38  35     1.103851735232   111.27836734   300.16845774
 H     41  38  35     1.103908620284   111.29934569    59.84525482
 C      3   2   1     1.216129597064   178.63812476   187.45895279
 H      1   2   4     1.072451998093   179.88953708   299.69912567
 H     44   3   7     1.072449899166   179.90087495   315.37611192
 H     21  18  15     1.102120298937   111.49623828   179.85876125
 H     41  38  35     1.102166028654   111.52504963   180.04034595

---------------------------
INTERNAL COORDINATES (A.U.)
---------------------------
 C      0   0   0     0.000000000000     0.00000000     0.00000000
 C      1   0   0     2.298128169335     0.00000000     0.00000000
 C      2   1   0    10.705772577881   178.67690058     0.00000000
 C      2   1   3     2.707247437549   179.61839919   348.51471949
 C      4   2   1     2.680873040492   120.66342226   197.48915390
 C      5   4   2     2.637043654727   117.29562187   179.95563944
 C      6   5   4     2.663151978668   122.34211427     0.00000000
 C      7   6   5     2.680815732828   120.36014119     0.00000000
 C      8   7   6     2.637043292532   117.30719735     0.00000000
 H      6   5   4     2.059330210400   120.02668432   180.00503417
 H      9   8   7     2.059424836974   120.02663200   179.94500310
 C      5   4   2     2.866272994980   119.93889579   359.96566536
 H     12   5   4     2.089322506534   108.17066398    56.28753182
 H     12   5   4     2.089250242585   108.18819747   303.68982800
 C     12   5   4     2.892956506533   116.83009643   179.96689466
 H     15  12   5     2.089454405019   109.85535805   301.67706615
 H     15  12   5     2.089421918802   109.89498223    58.17654675
 C     15  12   5     2.897870335760   112.62308235   179.92243918
 H     18  15  12     2.089791379697   109.21233816   302.21020716
 H     18  15  12     2.089759662399   109.21055803    57.52293167
 C     18  15  12     2.892679555216   113.17463012   179.87961782
 H     21  18  15     2.085828433940   111.28655044    59.73184939
 H     21  18  15     2.085781273501   111.29376926   300.00545303
 C      8   7   6     2.865908793276   119.87476155   180.01400651
 H     24   8   7     2.089201201667   108.14726392   304.20113623
 H     24   8   7     2.089445165387   108.20289873    56.79042516
 C     24   8   7     2.892320498883   116.85196812   180.54152745
 H     27  24   8     2.088394034931   109.98226514   301.48185071
 H     27  24   8     2.087035211405   110.12411363    58.38797032
 C     27  24   8     2.902684889755   112.39775374   179.99864835
 H     30  27  24     2.094570356427   109.69353459   303.15347104
 H     30  27  24     2.107532595691   108.57888004    56.70894640
 C     30  27  24     2.824484374136   114.06616069   179.74837481
 H     33  30  27     2.073963130414   118.14071046   330.21628955
 C     33  30  27     2.823965768761   121.88659648   165.80827816
 H     35  33  30     2.108412623345   109.97181459    72.48294426
 H     35  33  30     2.095406244882   109.62789594   318.18794351
 C     35  33  30     2.902322197049   114.21516115   194.72016183
 H     38  35  33     2.089666955956   108.94324381   302.64514087
 H     38  35  33     2.088112696182   108.93795562    57.84153776
 C     38  35  33     2.891626835885   113.23485052   180.37660150
 H     41  38  35     2.085977472041   111.27836734   300.16845774
 H     41  38  35     2.086084969212   111.29934569    59.84525482
 C      3   2   1     2.298151881808   178.63812476   187.45895279
 H      1   2   4     2.026640568173   179.88953708   299.69912567
 H     44   3   7     2.026636601775   179.90087495   315.37611192
 H     21  18  15     2.082705531626   111.49623828   179.85876125
 H     41  38  35     2.082791948268   111.52504963   180.04034595

---------------------
BASIS SET INFORMATION
---------------------
There are 2 groups of distinct atoms

 Group   1 Type C   : 17s4p1d contracted to 3s2p1d pattern {881/31/1}
 Group   2 Type H   : 4s1p contracted to 2s1p pattern {31/1}

Atom   0C    basis set group =>   1
Atom   1C    basis set group =>   1
Atom   2C    basis set group =>   1
Atom   3C    basis set group =>   1
Atom   4C    basis set group =>   1
Atom   5C    basis set group =>   1
Atom   6C    basis set group =>   1
Atom   7C    basis set group =>   1
Atom   8C    basis set group =>   1
Atom   9H    basis set group =>   2
Atom  10H    basis set group =>   2
Atom  11C    basis set group =>   1
Atom  12H    basis set group =>   2
Atom  13H    basis set group =>   2
Atom  14C    basis set group =>   1
Atom  15H    basis set group =>   2
Atom  16H    basis set group =>   2
Atom  17C    basis set group =>   1
Atom  18H    basis set group =>   2
Atom  19H    basis set group =>   2
Atom  20C    basis set group =>   1
Atom  21H    basis set group =>   2
Atom  22H    basis set group =>   2
Atom  23C    basis set group =>   1
Atom  24H    basis set group =>   2
Atom  25H    basis set group =>   2
Atom  26C    basis set group =>   1
Atom  27H    basis set group =>   2
Atom  28H    basis set group =>   2
Atom  29C    basis set group =>   1
Atom  30H    basis set group =>   2
Atom  31H    basis set group =>   2
Atom  32C    basis set group =>   1
Atom  33H    basis set group =>   2
Atom  34C    basis set group =>   1
Atom  35H    basis set group =>   2
Atom  36H    basis set group =>   2
Atom  37C    basis set group =>   1
Atom  38H    basis set group =>   2
Atom  39H    basis set group =>   2
Atom  40C    basis set group =>   1
Atom  41H    basis set group =>   2
Atom  42H    basis set group =>   2
Atom  43C    basis set group =>   1
Atom  44H    basis set group =>   2
Atom  45H    basis set group =>   2
Atom  46H    basis set group =>   2
Atom  47H    basis set group =>   2
---------------------------------
AUXILIARY/J BASIS SET INFORMATION
---------------------------------
There are 2 groups of distinct atoms

 Group   1 Type C   : 14s11p10d2f contracted to 14s11p10d2f pattern {11111111111111/11111111111/1111111111/11}
 Group   2 Type H   : 9s2p1d contracted to 9s2p1d pattern {111111111/11/1}

Atom   0C    basis set group =>   1
Atom   1C    basis set group =>   1
Atom   2C    basis set group =>   1
Atom   3C    basis set group =>   1
Atom   4C    basis set group =>   1
Atom   5C    basis set group =>   1
Atom   6C    basis set group =>   1
Atom   7C    basis set group =>   1
Atom   8C    basis set group =>   1
Atom   9H    basis set group =>   2
Atom  10H    basis set group =>   2
Atom  11C    basis set group =>   1
Atom  12H    basis set group =>   2
Atom  13H    basis set group =>   2
Atom  14C    basis set group =>   1
Atom  15H    basis set group =>   2
Atom  16H    basis set group =>   2
Atom  17C    basis set group =>   1
Atom  18H    basis set group =>   2
Atom  19H    basis set group =>   2
Atom  20C    basis set group =>   1
Atom  21H    basis set group =>   2
Atom  22H    basis set group =>   2
Atom  23C    basis set group =>   1
Atom  24H    basis set group =>   2
Atom  25H    basis set group =>   2
Atom  26C    basis set group =>   1
Atom  27H    basis set group =>   2
Atom  28H    basis set group =>   2
Atom  29C    basis set group =>   1
Atom  30H    basis set group =>   2
Atom  31H    basis set group =>   2
Atom  32C    basis set group =>   1
Atom  33H    basis set group =>   2
Atom  34C    basis set group =>   1
Atom  35H    basis set group =>   2
Atom  36H    basis set group =>   2
Atom  37C    basis set group =>   1
Atom  38H    basis set group =>   2
Atom  39H    basis set group =>   2
Atom  40C    basis set group =>   1
Atom  41H    basis set group =>   2
Atom  42H    basis set group =>   2
Atom  43C    basis set group =>   1
Atom  44H    basis set group =>   2
Atom  45H    basis set group =>   2
Atom  46H    basis set group =>   2
Atom  47H    basis set group =>   2
---------------------------------
AUXILIARY/C BASIS SET INFORMATION
---------------------------------
There are 2 groups of distinct atoms

 Group   1 Type C   : 14s11p10d2f contracted to 14s11p10d2f pattern {11111111111111/11111111111/1111111111/11}
 Group   2 Type H   : 9s2p1d contracted to 9s2p1d pattern {111111111/11/1}

Atom   0C    basis set group =>   1
Atom   1C    basis set group =>   1
Atom   2C    basis set group =>   1
Atom   3C    basis set group =>   1
Atom   4C    basis set group =>   1
Atom   5C    basis set group =>   1
Atom   6C    basis set group =>   1
Atom   7C    basis set group =>   1
Atom   8C    basis set group =>   1
Atom   9H    basis set group =>   2
Atom  10H    basis set group =>   2
Atom  11C    basis set group =>   1
Atom  12H    basis set group =>   2
Atom  13H    basis set group =>   2
Atom  14C    basis set group =>   1
Atom  15H    basis set group =>   2
Atom  16H    basis set group =>   2
Atom  17C    basis set group =>   1
Atom  18H    basis set group =>   2
Atom  19H    basis set group =>   2
Atom  20C    basis set group =>   1
Atom  21H    basis set group =>   2
Atom  22H    basis set group =>   2
Atom  23C    basis set group =>   1
Atom  24H    basis set group =>   2
Atom  25H    basis set group =>   2
Atom  26C    basis set group =>   1
Atom  27H    basis set group =>   2
Atom  28H    basis set group =>   2
Atom  29C    basis set group =>   1
Atom  30H    basis set group =>   2
Atom  31H    basis set group =>   2
Atom  32C    basis set group =>   1
Atom  33H    basis set group =>   2
Atom  34C    basis set group =>   1
Atom  35H    basis set group =>   2
Atom  36H    basis set group =>   2
Atom  37C    basis set group =>   1
Atom  38H    basis set group =>   2
Atom  39H    basis set group =>   2
Atom  40C    basis set group =>   1
Atom  41H    basis set group =>   2
Atom  42H    basis set group =>   2
Atom  43C    basis set group =>   1
Atom  44H    basis set group =>   2
Atom  45H    basis set group =>   2
Atom  46H    basis set group =>   2
Atom  47H    basis set group =>   2
----------------------------------
AUXILIARY/JK BASIS SET INFORMATION
----------------------------------
There are 2 groups of distinct atoms

 Group   1 Type C   : 14s11p10d2f contracted to 14s11p10d2f pattern {11111111111111/11111111111/1111111111/11}
 Group   2 Type H   : 9s2p1d contracted to 9s2p1d pattern {111111111/11/1}

Atom   0C    basis set group =>   1
Atom   1C    basis set group =>   1
Atom   2C    basis set group =>   1
Atom   3C    basis set group =>   1
Atom   4C    basis set group =>   1
Atom   5C    basis set group =>   1
Atom   6C    basis set group =>   1
Atom   7C    basis set group =>   1
Atom   8C    basis set group =>   1
Atom   9H    basis set group =>   2
Atom  10H    basis set group =>   2
Atom  11C    basis set group =>   1
Atom  12H    basis set group =>   2
Atom  13H    basis set group =>   2
Atom  14C    basis set group =>   1
Atom  15H    basis set group =>   2
Atom  16H    basis set group =>   2
Atom  17C    basis set group =>   1
Atom  18H    basis set group =>   2
Atom  19H    basis set group =>   2
Atom  20C    basis set group =>   1
Atom  21H    basis set group =>   2
Atom  22H    basis set group =>   2
Atom  23C    basis set group =>   1
Atom  24H    basis set group =>   2
Atom  25H    basis set group =>   2
Atom  26C    basis set group =>   1
Atom  27H    basis set group =>   2
Atom  28H    basis set group =>   2
Atom  29C    basis set group =>   1
Atom  30H    basis set group =>   2
Atom  31H    basis set group =>   2
Atom  32C    basis set group =>   1
Atom  33H    basis set group =>   2
Atom  34C    basis set group =>   1
Atom  35H    basis set group =>   2
Atom  36H    basis set group =>   2
Atom  37C    basis set group =>   1
Atom  38H    basis set group =>   2
Atom  39H    basis set group =>   2
Atom  40C    basis set group =>   1
Atom  41H    basis set group =>   2
Atom  42H    basis set group =>   2
Atom  43C    basis set group =>   1
Atom  44H    basis set group =>   2
Atom  45H    basis set group =>   2
Atom  46H    basis set group =>   2
Atom  47H    basis set group =>   2

Checking for AutoStart:
The File: cc-pVDZ_i.gbw exists
Trying to determine its content:
     ... Fine, the file contains calculation information
     ... Fine, the calculation information was read
     ... Fine, the file contains a basis set
     ... Fine, the basis set was read
     ... Fine, the file contains a geometry
     ... Fine, the geometry was read
     ... Fine, the file contains a set of orbitals
     ... Fine, the orbitals can be read
     => possible old guess file was deleted
     => GBW file was renamed to GES file
     => GES file is set as startup file
     => Guess is set to MORead
     ... now leaving AutoStart



           ************************************************************
           *        Program running with 16 parallel MPI-processes    *
           *              working on a common directory               *
           ************************************************************
------------------------------------------------------------------------------
                           ORCA GTO INTEGRAL CALCULATION
                           -- RI-GTO INTEGRALS CHOSEN --
------------------------------------------------------------------------------
------------------------------------------------------------------------------
                   ___                                                        
                  /   \      - P O W E R E D   B Y -                         
                 /     \                                                     
                 |  |  |   _    _      __       _____    __    __             
                 |  |  |  | |  | |    /  \     |  _  \  |  |  /  |          
                  \  \/   | |  | |   /    \    | | | |  |  | /  /          
                 / \  \   | |__| |  /  /\  \   | |_| |  |  |/  /          
                |  |  |   |  __  | /  /__\  \  |    /   |      \           
                |  |  |   | |  | | |   __   |  |    \   |  |\   \          
                \     /   | |  | | |  |  |  |  | |\  \  |  | \   \       
                 \___/    |_|  |_| |__|  |__|  |_| \__\ |__|  \__/        
                                                                              
                      - O R C A' S   B I G   F R I E N D -                    
                                      &                                       
                       - I N T E G R A L  F E E D E R -                       
                                                                              
 v1 FN, 2020, v2 2021                                                         
------------------------------------------------------------------------------


Reading SHARK input file cc-pVDZ_i.SHARKINP.tmp ... ok
----------------------
SHARK INTEGRAL PACKAGE
----------------------

Number of atoms                             ...     48
Number of basis functions                   ...    555
Number of shells                            ...    333
Maximum angular momentum                    ...      2
Integral batch strategy                     ... SHARK/LIBINT Hybrid
RI-J (if used) integral strategy            ... SPLIT-RIJ (Revised 2003 algorithm where possible)
Printlevel                                  ...      1
Contraction scheme used                     ... PARTIAL GENERAL contraction
Coulomb Range Separation                    ... NOT USED
Exchange Range Separation                   ... NOT USED
Finite Nucleus Model                        ... NOT USED
Auxiliary Coulomb fitting basis             ... AVAILABLE
   # of basis functions in Aux-J            ...   2871
   # of shells in Aux-J                     ...   1101
   Maximum angular momentum in Aux-J        ...      3
Auxiliary J/K fitting basis                 ... AVAILABLE
   # of basis functions in Aux-JK           ...   2871
   # of shells in Aux-JK                    ...   1101
   Maximum angular momentum in Aux-JK       ...      3
Auxiliary Correlation fitting basis         ... AVAILABLE
   # of basis functions in Aux-C            ...   2871
   # of shells in Aux-C                     ...   1101
   Maximum angular momentum in Aux-C        ...      3
Auxiliary 'external' fitting basis          ... NOT available
Integral threshold                          ...     1.000000e-10
Primitive cut-off                           ...     1.000000e-11
Primitive pair pre-selection threshold      ...     1.000000e-11

Calculating pre-screening integrals         ... done (  0.0 sec) Dimension = 333
Calculating pre-screening integrals (ORCA)  ... done (  0.1 sec) Dimension = 207
Organizing shell pair data                  ... done (  0.1 sec)
Shell pair information
Total number of shell pairs                 ...     55611
Shell pairs after pre-screening             ...     22660
Total number of primitive shell pairs       ...     92379
Primitive shell pairs kept                  ...     31323
          la=0 lb=0:  10018 shell pairs
          la=1 lb=0:   7976 shell pairs
          la=1 lb=1:   1410 shell pairs
          la=2 lb=0:   2291 shell pairs
          la=2 lb=1:    830 shell pairs
          la=2 lb=2:    135 shell pairs

Calculating one electron integrals          ... done (  0.0 sec)
Calculating RI/J V-Matrix + Cholesky decomp.... done (  0.5 sec)
Calculating RI/JK V-Matrix + Cholesky decomp... done (  0.5 sec)
Calculating RI/C V-Matrix + Cholesky decomp.... done (  0.5 sec)
Calculating Nuclear repulsion               ... done (  0.0 sec) ENN=   1438.088695457503 Eh

SHARK setup successfully completed in   2.1 seconds

Maximum memory used throughout the entire GTOINT-calculation: 36.5 MB


           ************************************************************
           *        Program running with 16 parallel MPI-processes    *
           *              working on a common directory               *
           ************************************************************
-------------------------------------------------------------------------------
                                 ORCA SCF
-------------------------------------------------------------------------------

------------
SCF SETTINGS
------------
Hamiltonian:
 Density Functional     Method          .... DFT(GTOs)
 Exchange Functional    Exchange        .... B88
   X-Alpha parameter    XAlpha          ....  0.666667
   Becke's b parameter  XBeta           ....  0.004200
 Correlation Functional Correlation     .... LYP
 LDA part of GGA corr.  LDAOpt          .... VWN-5
 Gradients option       PostSCFGGA      .... off
 Hybrid DFT is turned on
   Fraction HF Exchange ScalHFX         ....  0.200000
   Scaling of DF-GGA-X  ScalDFX         ....  0.720000
   Scaling of DF-GGA-C  ScalDFC         ....  0.810000
   Scaling of DF-LDA-C  ScalLDAC        ....  1.000000
   Perturbative correction              ....  0.000000
   Density functional embedding theory  .... OFF
   NL short-range parameter             ....  4.800000
 RI-approximation to the Coulomb term is turned on
   Number of AuxJ basis functions       .... 2871
   RIJ-COSX (HFX calculated with COS-X)).... on


General Settings:
 Integral files         IntName         .... cc-pVDZ_i
 Hartree-Fock type      HFTyp           .... UHF
 Total Charge           Charge          ....    0
 Multiplicity           Mult            ....    2
 Number of Electrons    NEL             ....  153
 Basis Dimension        Dim             ....  429
 Nuclear Repulsion      ENuc            ....   1438.0886954575 Eh

Convergence Acceleration:
 DIIS                   CNVDIIS         .... on
   Start iteration      DIISMaxIt       ....    12
   Startup error        DIISStart       ....  0.200000
   # of expansion vecs  DIISMaxEq       ....     5
   Bias factor          DIISBfac        ....   1.050
   Max. coefficient     DIISMaxC        ....  10.000
 Trust-Rad. Augm. Hess. CNVTRAH         .... auto
   Auto Start mean grad. ratio tolernc. ....  1.125000
   Auto Start start iteration           ....     1
   Auto Start num. interpolation iter.  ....    10
   Max. Number of Micro iterations      ....    16
   Max. Number of Macro iterations      .... Maxiter - #DIIS iter
   Number of Davidson start vectors     ....     2
   Converg. threshold I  (grad. norm)   ....   5.000e-05
   Converg. threshold II (energy diff.) ....   1.000e-06
   Grad. Scal. Fac. for Micro threshold ....   0.100
   Minimum threshold for Micro iter.    ....   0.010
   NR start threshold (gradient norm)   ....   0.001
   Initial trust radius                 ....   0.400
   Minimum AH scaling param. (alpha)    ....   1.000
   Maximum AH scaling param. (alpha)    .... 1000.000
   Orbital update algorithm             .... Taylor
   White noise on init. David. guess    .... on
   Maximum white noise                  ....   0.010
   Quad. conv. algorithm                .... NR
 SOSCF                  CNVSOSCF        .... off
 Level Shifting         CNVShift        .... on
   Level shift para.    LevelShift      ....    0.2500
   Turn off err/grad.   ShiftErr        ....    0.0010
 Zerner damping         CNVZerner       .... off
 Static damping         CNVDamp         .... on
   Fraction old density DampFac         ....    0.7000
   Max. Damping (<1)    DampMax         ....    0.9800
   Min. Damping (>=0)   DampMin         ....    0.0000
   Turn off err/grad.   DampErr         ....    0.1000
 Fernandez-Rico         CNVRico         .... off

SCF Procedure:
 Maximum # iterations   MaxIter         ....   125
 SCF integral mode      SCFMode         .... Direct
   Integral package                     .... SHARK and LIBINT hybrid scheme
 Reset frequency        DirectResetFreq ....    20
 Integral Threshold     Thresh          ....  1.000e-10 Eh
 Primitive CutOff       TCut            ....  1.000e-11 Eh

Convergence Tolerance:
 Convergence Check Mode ConvCheckMode   .... Total+1el-Energy
 Convergence forced     ConvForced      .... 0
 Energy Change          TolE            ....  1.000e-06 Eh
 1-El. energy change                    ....  1.000e-03 Eh
 DIIS Error             TolErr          ....  1.000e-06


Diagonalization of the overlap matrix:
Smallest eigenvalue                        ... 1.270e-04
Time for diagonalization                   ...    0.038 sec
Threshold for overlap eigenvalues          ... 1.000e-08
Number of eigenvalues below threshold      ... 0
Time for construction of square roots      ...    0.039 sec
Total time needed                          ...    0.079 sec

---------------------
INITIAL GUESS: MOREAD
---------------------
Guess MOs are being read from file: cc-pVDZ_i.ges
Input geometry compatible with but different from current geometry
Input basis set matches current basis set (good)
MOs were renormalized
MOs were reorthogonalized (Cholesky)
                      ------------------
                      INITIAL GUESS DONE (   0.1 sec)
                      ------------------
-------------------
DFT GRID GENERATION
-------------------

General Integration Accuracy     IntAcc      ... 4.388
Radial Grid Type                 RadialGrid  ... OptM3 with GC (2021)
Angular Grid (max. ang.)         AngularGrid ... 4 (Lebedev-302)
Angular grid pruning method      GridPruning ... 4 (adaptive)
Weight generation scheme         WeightScheme... Becke
Basis function cutoff            BFCut       ... 1.0000e-10
Integration weight cutoff        WCut        ... 1.0000e-14
Angular grids for H and He will be reduced by one unit
Partially contracted basis set               ... off
Rotationally invariant grid construction     ... off

Total number of grid points                  ...   211631
Total number of batches                      ...     3329
Average number of points per batch           ...       63
Average number of grid points per atom       ...     4409
Time for grid setup =    1.154 sec

--------------------
COSX GRID GENERATION
--------------------

GRIDX 1
-------
General Integration Accuracy     IntAcc      ... 3.816
Radial Grid Type                 RadialGrid  ... OptM3 with GC (2021)
Angular Grid (max. ang.)         AngularGrid ... 1 (Lebedev-50)
Angular grid pruning method      GridPruning ... 4 (adaptive)
Weight generation scheme         WeightScheme... Becke
Basis function cutoff            BFCut       ... 1.0000e-10
Integration weight cutoff        WCut        ... 1.0000e-14
Angular grids for H and He will be reduced by one unit
Partially contracted basis set               ... on
Rotationally invariant grid construction     ... off

Total number of grid points                  ...    27004
Total number of batches                      ...      449
Average number of points per batch           ...       60
Average number of grid points per atom       ...      563
UseSFitting                                  ... on

GRIDX 2
-------
General Integration Accuracy     IntAcc      ... 4.020
Radial Grid Type                 RadialGrid  ... OptM3 with GC (2021)
Angular Grid (max. ang.)         AngularGrid ... 2 (Lebedev-110)
Angular grid pruning method      GridPruning ... 4 (adaptive)
Weight generation scheme         WeightScheme... Becke
Basis function cutoff            BFCut       ... 1.0000e-10
Integration weight cutoff        WCut        ... 1.0000e-14
Angular grids for H and He will be reduced by one unit
Partially contracted basis set               ... on
Rotationally invariant grid construction     ... off

Total number of grid points                  ...    56987
Total number of batches                      ...      916
Average number of points per batch           ...       62
Average number of grid points per atom       ...     1187
UseSFitting                                  ... on

GRIDX 3
-------
General Integration Accuracy     IntAcc      ... 4.338
Radial Grid Type                 RadialGrid  ... OptM3 with GC (2021)
Angular Grid (max. ang.)         AngularGrid ... 3 (Lebedev-194)
Angular grid pruning method      GridPruning ... 4 (adaptive)
Weight generation scheme         WeightScheme... Becke
Basis function cutoff            BFCut       ... 1.0000e-10
Integration weight cutoff        WCut        ... 1.0000e-14
Angular grids for H and He will be reduced by one unit
Partially contracted basis set               ... on
Rotationally invariant grid construction     ... off

Total number of grid points                  ...   124375
Total number of batches                      ...     1970
Average number of points per batch           ...       63
Average number of grid points per atom       ...     2591
UseSFitting                                  ... on

Time for X-Grid setup             =    2.137 sec

 re-compute Schwartz prescreening matrix in partically contracted basis (1) ...done (   0.105 sec)
--------------
SCF ITERATIONS
--------------
ITER       Energy         Delta-E        Max-DP      RMS-DP      [F,P]     Damp
               ***  Starting incremental Fock matrix formation  ***
  0   -815.8023348456   0.000000000000 0.00002768  0.00000050  0.0001077 0.7000
                 **** Energy Check signals convergence ****

               *****************************************************
               *                     SUCCESS                       *
               *           SCF CONVERGED AFTER   1 CYCLES          *
               *****************************************************

Old exchange energy                            =    -23.670288513 Eh
New exchange energy                            =    -23.670315446 Eh
Exchange energy change after final integration =     -0.000026933 Eh
Total energy after final integration           =   -815.802361983 Eh
Final COS-X integration done in                =     6.592 sec

----------------
TOTAL SCF ENERGY
----------------

Total Energy       :         -815.80236198 Eh          -22199.11085 eV

Components:
Nuclear Repulsion  :         1438.08869546 Eh           39132.38286 eV
Electronic Energy  :        -2253.89105744 Eh          -61331.49371 eV
One Electron Energy:        -3954.84680077 Eh         -107616.85258 eV
Two Electron Energy:         1700.95574333 Eh           46285.35888 eV
Max COSX asymmetry :            0.00000038 Eh               0.00001 eV

Virial components:
Potential Energy   :        -1625.73846427 Eh          -44238.59266 eV
Kinetic Energy     :          809.93610229 Eh           22039.48181 eV
Virial Ratio       :            2.00724287


DFT components:
N(Alpha)           :       77.000104711165 electrons
N(Beta)            :       76.000094565293 electrons
N(Total)           :      153.000199276458 electrons
E(X)               :      -93.828294831028 Eh       
E(C)               :       -5.897403637581 Eh       
E(XC)              :      -99.725698468609 Eh       
DFET-embed. en.    :        0.000000000000 Eh       

---------------
SCF CONVERGENCE
---------------

  Last Energy change         ...   -2.0470e-07  Tolerance :   1.0000e-06
  Last MAX-Density change    ...    8.3199e-06  Tolerance :   1.0000e-05
  Last RMS-Density change    ...    1.5298e-07  Tolerance :   1.0000e-06
  Last DIIS Error            ...    8.5075e-05  Tolerance :   1.0000e-06

             **** THE GBW FILE WAS UPDATED (cc-pVDZ_i.gbw) ****
             **** DENSITY cc-pVDZ_i.scfp WAS UPDATED ****
             **** ENERGY FILE WAS UPDATED (cc-pVDZ_i.en.tmp) ****
----------------------
UHF SPIN CONTAMINATION
----------------------

Warning: in a DFT calculation there is little theoretical justification to 
         calculate <S**2> as in Hartree-Fock theory. We will do it anyways
         but you should keep in mind that the values have only limited relevance

Expectation value of <S**2>     :     0.754008
Ideal value S*(S+1) for S=0.5   :     0.750000
Deviation                       :     0.004008

             **** THE GBW FILE WAS UPDATED (cc-pVDZ_i.gbw) ****
             **** DENSITY cc-pVDZ_i.scfp WAS UPDATED ****
----------------
ORBITAL ENERGIES
----------------
                 SPIN UP ORBITALS
  NO   OCC          E(Eh)            E(eV) 
   0   1.0000     -10.212395      -277.8934 
   1   1.0000     -10.212353      -277.8923 
   2   1.0000     -10.201702      -277.6024 
   3   1.0000     -10.201558      -277.5985 
   4   1.0000     -10.192229      -277.3447 
   5   1.0000     -10.192154      -277.3426 
   6   1.0000     -10.191813      -277.3333 
   7   1.0000     -10.191651      -277.3289 
   8   1.0000     -10.187285      -277.2101 
   9   1.0000     -10.186960      -277.2013 
  10   1.0000     -10.186797      -277.1968 
  11   1.0000     -10.186767      -277.1960 
  12   1.0000     -10.184186      -277.1258 
  13   1.0000     -10.183181      -277.0984 
  14   1.0000     -10.181991      -277.0661 
  15   1.0000     -10.181825      -277.0615 
  16   1.0000     -10.181571      -277.0546 
  17   1.0000     -10.181338      -277.0483 
  18   1.0000     -10.179599      -277.0010 
  19   1.0000     -10.175511      -276.8897 
  20   1.0000     -10.174122      -276.8519 
  21   1.0000      -0.874610       -23.7993 
  22   1.0000      -0.819285       -22.2939 
  23   1.0000      -0.805842       -21.9281 
  24   1.0000      -0.795098       -21.6357 
  25   1.0000      -0.785316       -21.3695 
  26   1.0000      -0.763111       -20.7653 
  27   1.0000      -0.751757       -20.4563 
  28   1.0000      -0.732846       -19.9418 
  29   1.0000      -0.720201       -19.5977 
  30   1.0000      -0.706965       -19.2375 
  31   1.0000      -0.675108       -18.3706 
  32   1.0000      -0.643038       -17.4980 
  33   1.0000      -0.637551       -17.3486 
  34   1.0000      -0.611974       -16.6526 
  35   1.0000      -0.590118       -16.0579 
  36   1.0000      -0.579212       -15.7612 
  37   1.0000      -0.564569       -15.3627 
  38   1.0000      -0.562746       -15.3131 
  39   1.0000      -0.541596       -14.7376 
  40   1.0000      -0.524765       -14.2796 
  41   1.0000      -0.498666       -13.5694 
  42   1.0000      -0.484113       -13.1734 
  43   1.0000      -0.476198       -12.9580 
  44   1.0000      -0.471434       -12.8284 
  45   1.0000      -0.470017       -12.7898 
  46   1.0000      -0.455173       -12.3859 
  47   1.0000      -0.433045       -11.7838 
  48   1.0000      -0.430174       -11.7056 
  49   1.0000      -0.427558       -11.6344 
  50   1.0000      -0.421032       -11.4569 
  51   1.0000      -0.416325       -11.3288 
  52   1.0000      -0.409320       -11.1382 
  53   1.0000      -0.407418       -11.0864 
  54   1.0000      -0.388674       -10.5764 
  55   1.0000      -0.384014       -10.4495 
  56   1.0000      -0.382968       -10.4211 
  57   1.0000      -0.370039       -10.0693 
  58   1.0000      -0.364154        -9.9091 
  59   1.0000      -0.357627        -9.7315 
  60   1.0000      -0.356586        -9.7032 
  61   1.0000      -0.349754        -9.5173 
  62   1.0000      -0.336885        -9.1671 
  63   1.0000      -0.335395        -9.1266 
  64   1.0000      -0.329904        -8.9771 
  65   1.0000      -0.328515        -8.9394 
  66   1.0000      -0.326257        -8.8779 
  67   1.0000      -0.325044        -8.8449 
  68   1.0000      -0.322509        -8.7759 
  69   1.0000      -0.319796        -8.7021 
  70   1.0000      -0.315309        -8.5800 
  71   1.0000      -0.279071        -7.5939 
  72   1.0000      -0.275791        -7.5047 
  73   1.0000      -0.274693        -7.4748 
  74   1.0000      -0.246075        -6.6960 
  75   1.0000      -0.219020        -5.9598 
  76   1.0000      -0.181621        -4.9422 
  77   0.0000      -0.050457        -1.3730 
  78   0.0000      -0.002729        -0.0742 
  79   0.0000       0.041106         1.1186 
  80   0.0000       0.048114         1.3092 
  81   0.0000       0.050474         1.3735 
  82   0.0000       0.062966         1.7134 
  83   0.0000       0.063978         1.7409 
  84   0.0000       0.071372         1.9421 
  85   0.0000       0.079964         2.1759 
  86   0.0000       0.084795         2.3074 
  87   0.0000       0.086971         2.3666 
  88   0.0000       0.090928         2.4743 
  89   0.0000       0.093856         2.5539 
  90   0.0000       0.094996         2.5850 
  91   0.0000       0.095632         2.6023 
  92   0.0000       0.101691         2.7671 
  93   0.0000       0.106466         2.8971 
  94   0.0000       0.111839         3.0433 
  95   0.0000       0.115016         3.1297 
  96   0.0000       0.126343         3.4380 
  97   0.0000       0.133517         3.6332 
  98   0.0000       0.138388         3.7657 
  99   0.0000       0.146880         3.9968 
 100   0.0000       0.151408         4.1200 
 101   0.0000       0.156473         4.2579 
 102   0.0000       0.158312         4.3079 
 103   0.0000       0.160022         4.3544 
 104   0.0000       0.162160         4.4126 
 105   0.0000       0.162993         4.4353 
 106   0.0000       0.167763         4.5651 
 107   0.0000       0.174262         4.7419 
 108   0.0000       0.177525         4.8307 
 109   0.0000       0.184328         5.0158 
 110   0.0000       0.199005         5.4152 
 111   0.0000       0.199952         5.4410 
 112   0.0000       0.208760         5.6806 
 113   0.0000       0.213585         5.8119 
 114   0.0000       0.222960         6.0671 
 115   0.0000       0.227811         6.1991 
 116   0.0000       0.238377         6.4866 
 117   0.0000       0.242444         6.5972 
 118   0.0000       0.258810         7.0426 
 119   0.0000       0.261905         7.1268 
 120   0.0000       0.272432         7.4133 
 121   0.0000       0.278752         7.5852 
 122   0.0000       0.292784         7.9670 
 123   0.0000       0.317797         8.6477 
 124   0.0000       0.326431         8.8826 
 125   0.0000       0.333460         9.0739 
 126   0.0000       0.349838         9.5196 
 127   0.0000       0.368217        10.0197 
 128   0.0000       0.372263        10.1298 
 129   0.0000       0.381418        10.3789 
 130   0.0000       0.411182        11.1888 
 131   0.0000       0.412008        11.2113 
 132   0.0000       0.414775        11.2866 
 133   0.0000       0.416797        11.3416 
 134   0.0000       0.418595        11.3905 
 135   0.0000       0.420021        11.4293 
 136   0.0000       0.425101        11.5676 
 137   0.0000       0.431920        11.7531 
 138   0.0000       0.448920        12.2157 
 139   0.0000       0.454010        12.3542 
 140   0.0000       0.458462        12.4754 
 141   0.0000       0.463004        12.5990 
 142   0.0000       0.467623        12.7247 
 143   0.0000       0.469764        12.7829 
 144   0.0000       0.473181        12.8759 
 145   0.0000       0.484754        13.1908 
 146   0.0000       0.485838        13.2203 
 147   0.0000       0.491625        13.3778 
 148   0.0000       0.503218        13.6933 
 149   0.0000       0.504988        13.7414 
 150   0.0000       0.512443        13.9443 
 151   0.0000       0.519882        14.1467 
 152   0.0000       0.528675        14.3860 
 153   0.0000       0.532347        14.4859 
 154   0.0000       0.536986        14.6121 
 155   0.0000       0.550741        14.9864 
 156   0.0000       0.551888        15.0176 
 157   0.0000       0.555116        15.1055 
 158   0.0000       0.565275        15.3819 
 159   0.0000       0.578818        15.7504 
 160   0.0000       0.591968        16.1083 
 161   0.0000       0.596062        16.2197 
 162   0.0000       0.601181        16.3590 
 163   0.0000       0.606699        16.5091 
 164   0.0000       0.611392        16.6368 
 165   0.0000       0.614755        16.7283 
 166   0.0000       0.618398        16.8275 
 167   0.0000       0.622274        16.9329 
 168   0.0000       0.627802        17.0834 
 169   0.0000       0.633119        17.2280 
 170   0.0000       0.638262        17.3680 
 171   0.0000       0.641515        17.4565 
 172   0.0000       0.644824        17.5466 
 173   0.0000       0.646346        17.5880 
 174   0.0000       0.651844        17.7376 
 175   0.0000       0.656552        17.8657 
 176   0.0000       0.657163        17.8823 
 177   0.0000       0.658527        17.9194 
 178   0.0000       0.659476        17.9452 
 179   0.0000       0.661469        17.9995 
 180   0.0000       0.662766        18.0348 
 181   0.0000       0.664557        18.0835 
 182   0.0000       0.670264        18.2388 
 183   0.0000       0.671292        18.2668 
 184   0.0000       0.673202        18.3187 
 185   0.0000       0.677776        18.4432 
 186   0.0000       0.684745        18.6329 
 187   0.0000       0.686269        18.6743 
 188   0.0000       0.694215        18.8905 
 189   0.0000       0.695614        18.9286 
 190   0.0000       0.698300        19.0017 
 191   0.0000       0.702272        19.1098 
 192   0.0000       0.708600        19.2820 
 193   0.0000       0.712934        19.3999 
 194   0.0000       0.716514        19.4973 
 195   0.0000       0.719445        19.5771 
 196   0.0000       0.722522        19.6608 
 197   0.0000       0.730272        19.8717 
 198   0.0000       0.730753        19.8848 
 199   0.0000       0.736968        20.0539 
 200   0.0000       0.747257        20.3339 
 201   0.0000       0.756112        20.5748 
 202   0.0000       0.759133        20.6571 
 203   0.0000       0.768308        20.9067 
 204   0.0000       0.776385        21.1265 
 205   0.0000       0.781650        21.2698 
 206   0.0000       0.807928        21.9848 
 207   0.0000       0.813951        22.1487 
 208   0.0000       0.829804        22.5801 
 209   0.0000       0.830996        22.6126 
 210   0.0000       0.838570        22.8186 
 211   0.0000       0.847730        23.0679 
 212   0.0000       0.850991        23.1567 
 213   0.0000       0.855320        23.2744 
 214   0.0000       0.877178        23.8692 
 215   0.0000       0.885495        24.0956 
 216   0.0000       0.892428        24.2842 
 217   0.0000       0.903623        24.5888 
 218   0.0000       0.917115        24.9560 
 219   0.0000       0.934826        25.4379 
 220   0.0000       0.943131        25.6639 
 221   0.0000       0.977472        26.5984 
 222   0.0000       0.979525        26.6542 
 223   0.0000       0.989770        26.9330 
 224   0.0000       1.014405        27.6034 
 225   0.0000       1.015004        27.6197 
 226   0.0000       1.027637        27.9634 
 227   0.0000       1.032629        28.0993 
 228   0.0000       1.043681        28.4000 
 229   0.0000       1.048440        28.5295 
 230   0.0000       1.050912        28.5968 
 231   0.0000       1.052603        28.6428 
 232   0.0000       1.069998        29.1161 
 233   0.0000       1.077408        29.3178 
 234   0.0000       1.088087        29.6083 
 235   0.0000       1.089445        29.6453 
 236   0.0000       1.127200        30.6727 
 237   0.0000       1.150236        31.2995 
 238   0.0000       1.159804        31.5599 
 239   0.0000       1.161117        31.5956 
 240   0.0000       1.176313        32.0091 
 241   0.0000       1.194342        32.4997 
 242   0.0000       1.204345        32.7719 
 243   0.0000       1.208302        32.8796 
 244   0.0000       1.211370        32.9631 
 245   0.0000       1.213540        33.0221 
 246   0.0000       1.214333        33.0437 
 247   0.0000       1.216750        33.1094 
 248   0.0000       1.222912        33.2771 
 249   0.0000       1.223823        33.3019 
 250   0.0000       1.233024        33.5523 
 251   0.0000       1.242588        33.8125 
 252   0.0000       1.266644        34.4671 
 253   0.0000       1.274844        34.6903 
 254   0.0000       1.293325        35.1932 
 255   0.0000       1.305509        35.5247 
 256   0.0000       1.315890        35.8072 
 257   0.0000       1.317162        35.8418 
 258   0.0000       1.320410        35.9302 
 259   0.0000       1.327637        36.1268 
 260   0.0000       1.331142        36.2222 
 261   0.0000       1.333990        36.2997 
 262   0.0000       1.336743        36.3746 
 263   0.0000       1.348128        36.6844 
 264   0.0000       1.363476        37.1021 
 265   0.0000       1.388731        37.7893 
 266   0.0000       1.396326        37.9960 
 267   0.0000       1.399819        38.0910 
 268   0.0000       1.416269        38.5386 
 269   0.0000       1.417868        38.5822 
 270   0.0000       1.426587        38.8194 
 271   0.0000       1.427800        38.8524 
 272   0.0000       1.428046        38.8591 
 273   0.0000       1.438226        39.1361 
 274   0.0000       1.461613        39.7725 
 275   0.0000       1.463280        39.8179 
 276   0.0000       1.467457        39.9315 
 277   0.0000       1.472837        40.0779 
 278   0.0000       1.483538        40.3691 
 279   0.0000       1.490972        40.5714 
 280   0.0000       1.504064        40.9277 
 281   0.0000       1.515307        41.2336 
 282   0.0000       1.519253        41.3410 
 283   0.0000       1.530011        41.6337 
 284   0.0000       1.531502        41.6743 
 285   0.0000       1.543682        42.0057 
 286   0.0000       1.557411        42.3793 
 287   0.0000       1.576741        42.9053 
 288   0.0000       1.588260        43.2187 
 289   0.0000       1.593397        43.3585 
 290   0.0000       1.601427        43.5770 
 291   0.0000       1.609806        43.8051 
 292   0.0000       1.618898        44.0524 
 293   0.0000       1.625700        44.2375 
 294   0.0000       1.626743        44.2659 
 295   0.0000       1.628388        44.3107 
 296   0.0000       1.630471        44.3674 
 297   0.0000       1.633209        44.4419 
 298   0.0000       1.640109        44.6296 
 299   0.0000       1.645922        44.7878 
 300   0.0000       1.649049        44.8729 
 301   0.0000       1.651998        44.9531 
 302   0.0000       1.657843        45.1122 
 303   0.0000       1.662177        45.2301 
 304   0.0000       1.666433        45.3459 
 305   0.0000       1.673048        45.5259 
 306   0.0000       1.679993        45.7149 
 307   0.0000       1.685457        45.8636 
 308   0.0000       1.687265        45.9128 
 309   0.0000       1.689263        45.9672 
 310   0.0000       1.693293        46.0769 
 311   0.0000       1.695995        46.1504 
 312   0.0000       1.700997        46.2865 
 313   0.0000       1.703748        46.3613 
 314   0.0000       1.713128        46.6166 
 315   0.0000       1.717005        46.7221 
 316   0.0000       1.719944        46.8020 
 317   0.0000       1.722319        46.8667 
 318   0.0000       1.726956        46.9929 
 319   0.0000       1.735602        47.2281 
 320   0.0000       1.742907        47.4269 
 321   0.0000       1.754242        47.7354 
 322   0.0000       1.758287        47.8454 
 323   0.0000       1.761446        47.9314 
 324   0.0000       1.763038        47.9747 
 325   0.0000       1.768519        48.1239 
 326   0.0000       1.785502        48.5860 
 327   0.0000       1.792157        48.7671 
 328   0.0000       1.794647        48.8348 
 329   0.0000       1.801179        49.0126 
 330   0.0000       1.804823        49.1117 
 331   0.0000       1.806237        49.1502 
 332   0.0000       1.822452        49.5914 
 333   0.0000       1.827881        49.7392 
 334   0.0000       1.845494        50.2184 
 335   0.0000       1.847423        50.2709 
 336   0.0000       1.858783        50.5801 
 337   0.0000       1.865316        50.7578 
 338   0.0000       1.872020        50.9403 
 339   0.0000       1.876975        51.0751 
 340   0.0000       1.893866        51.5347 
 341   0.0000       1.901052        51.7303 
 342   0.0000       1.908703        51.9384 
 343   0.0000       1.917285        52.1720 
 344   0.0000       1.930013        52.5183 
 345   0.0000       1.946506        52.9671 
 346   0.0000       1.954348        53.1805 
 347   0.0000       1.969468        53.5920 
 348   0.0000       1.977114        53.8000 
 349   0.0000       1.989361        54.1333 
 350   0.0000       1.991251        54.1847 
 351   0.0000       2.011415        54.7334 
 352   0.0000       2.014147        54.8077 
 353   0.0000       2.020904        54.9916 
 354   0.0000       2.030693        55.2580 
 355   0.0000       2.038349        55.4663 
 356   0.0000       2.051178        55.8154 
 357   0.0000       2.062225        56.1160 
 358   0.0000       2.079307        56.5808 
 359   0.0000       2.083399        56.6922 
 360   0.0000       2.091518        56.9131 
 361   0.0000       2.104731        57.2726 
 362   0.0000       2.108049        57.3629 
 363   0.0000       2.119246        57.6676 
 364   0.0000       2.124596        57.8132 
 365   0.0000       2.133164        58.0464 
 366   0.0000       2.158715        58.7416 
 367   0.0000       2.166908        58.9646 
 368   0.0000       2.184106        59.4325 
 369   0.0000       2.192882        59.6713 
 370   0.0000       2.201091        59.8947 
 371   0.0000       2.204097        59.9765 
 372   0.0000       2.215448        60.2854 
 373   0.0000       2.217237        60.3341 
 374   0.0000       2.221633        60.4537 
 375   0.0000       2.247528        61.1583 
 376   0.0000       2.261884        61.5490 
 377   0.0000       2.265170        61.6384 
 378   0.0000       2.268843        61.7383 
 379   0.0000       2.283646        62.1412 
 380   0.0000       2.294183        62.4279 
 381   0.0000       2.294965        62.4492 
 382   0.0000       2.299760        62.5796 
 383   0.0000       2.305985        62.7490 
 384   0.0000       2.316120        63.0248 
 385   0.0000       2.320119        63.1336 
 386   0.0000       2.323744        63.2323 
 387   0.0000       2.335125        63.5420 
 388   0.0000       2.346484        63.8511 
 389   0.0000       2.356464        64.1226 
 390   0.0000       2.363513        64.3145 
 391   0.0000       2.385855        64.9224 
 392   0.0000       2.406838        65.4934 
 393   0.0000       2.410037        65.5804 
 394   0.0000       2.412619        65.6507 
 395   0.0000       2.415758        65.7361 
 396   0.0000       2.422880        65.9299 
 397   0.0000       2.426412        66.0260 
 398   0.0000       2.430466        66.1363 
 399   0.0000       2.440295        66.4038 
 400   0.0000       2.451495        66.7086 
 401   0.0000       2.481529        67.5258 
 402   0.0000       2.495015        67.8928 
 403   0.0000       2.499955        68.0272 
 404   0.0000       2.532170        68.9038 
 405   0.0000       2.536575        69.0237 
 406   0.0000       2.547885        69.3315 
 407   0.0000       2.560521        69.6753 
 408   0.0000       2.582162        70.2642 
 409   0.0000       2.595939        70.6391 
 410   0.0000       2.608883        70.9913 
 411   0.0000       2.635620        71.7189 
 412   0.0000       2.646434        72.0131 
 413   0.0000       2.655156        72.2505 
 414   0.0000       2.671076        72.6837 
 415   0.0000       2.714404        73.8627 
 416   0.0000       2.720148        74.0190 
 417   0.0000       2.727116        74.2086 
 418   0.0000       2.737228        74.4838 
 419   0.0000       2.765027        75.2402 
 420   0.0000       2.795735        76.0758 
 421   0.0000       2.829770        77.0020 
 422   0.0000       2.834638        77.1344 
 423   0.0000       2.870242        78.1032 
 424   0.0000       2.887746        78.5796 
 425   0.0000       2.951154        80.3050 
 426   0.0000       3.189104        86.7799 
 427   0.0000       3.194738        86.9332 
 428   0.0000       3.384446        92.0955 

                 SPIN DOWN ORBITALS
  NO   OCC          E(Eh)            E(eV) 
   0   1.0000     -10.212389      -277.8932 
   1   1.0000     -10.212356      -277.8923 
   2   1.0000     -10.201710      -277.6027 
   3   1.0000     -10.201553      -277.5984 
   4   1.0000     -10.192222      -277.3445 
   5   1.0000     -10.192157      -277.3427 
   6   1.0000     -10.191814      -277.3334 
   7   1.0000     -10.191650      -277.3289 
   8   1.0000     -10.187273      -277.2098 
   9   1.0000     -10.186959      -277.2012 
  10   1.0000     -10.186798      -277.1969 
  11   1.0000     -10.186768      -277.1960 
  12   1.0000     -10.185086      -277.1503 
  13   1.0000     -10.182952      -277.0922 
  14   1.0000     -10.182261      -277.0734 
  15   1.0000     -10.181825      -277.0615 
  16   1.0000     -10.181571      -277.0546 
  17   1.0000     -10.179359      -276.9944 
  18   1.0000     -10.175511      -276.8897 
  19   1.0000     -10.174115      -276.8518 
  20   1.0000     -10.168132      -276.6889 
  21   1.0000      -0.874596       -23.7990 
  22   1.0000      -0.818303       -22.2672 
  23   1.0000      -0.799180       -21.7468 
  24   1.0000      -0.795096       -21.6357 
  25   1.0000      -0.783849       -21.3296 
  26   1.0000      -0.761929       -20.7331 
  27   1.0000      -0.751408       -20.4469 
  28   1.0000      -0.728547       -19.8248 
  29   1.0000      -0.720068       -19.5940 
  30   1.0000      -0.703639       -19.1470 
  31   1.0000      -0.674366       -18.3504 
  32   1.0000      -0.642385       -17.4802 
  33   1.0000      -0.636911       -17.3312 
  34   1.0000      -0.609767       -16.5926 
  35   1.0000      -0.588775       -16.0214 
  36   1.0000      -0.578221       -15.7342 
  37   1.0000      -0.564069       -15.3491 
  38   1.0000      -0.547950       -14.9105 
  39   1.0000      -0.541420       -14.7328 
  40   1.0000      -0.524143       -14.2626 
  41   1.0000      -0.498345       -13.5606 
  42   1.0000      -0.484084       -13.1726 
  43   1.0000      -0.476025       -12.9533 
  44   1.0000      -0.470334       -12.7984 
  45   1.0000      -0.466354       -12.6901 
  46   1.0000      -0.452915       -12.3244 
  47   1.0000      -0.431373       -11.7382 
  48   1.0000      -0.427811       -11.6413 
  49   1.0000      -0.426816       -11.6143 
  50   1.0000      -0.420681       -11.4473 
  51   1.0000      -0.416025       -11.3206 
  52   1.0000      -0.406830       -11.0704 
  53   1.0000      -0.402131       -10.9426 
  54   1.0000      -0.387199       -10.5362 
  55   1.0000      -0.382416       -10.4061 
  56   1.0000      -0.379731       -10.3330 
  57   1.0000      -0.368824       -10.0362 
  58   1.0000      -0.362738        -9.8706 
  59   1.0000      -0.356750        -9.7076 
  60   1.0000      -0.354882        -9.6568 
  61   1.0000      -0.348712        -9.4889 
  62   1.0000      -0.335638        -9.1332 
  63   1.0000      -0.333907        -9.0861 
  64   1.0000      -0.328444        -8.9374 
  65   1.0000      -0.327208        -8.9038 
  66   1.0000      -0.325561        -8.8590 
  67   1.0000      -0.324752        -8.8370 
  68   1.0000      -0.321159        -8.7392 
  69   1.0000      -0.319338        -8.6896 
  70   1.0000      -0.312611        -8.5066 
  71   1.0000      -0.279061        -7.5936 
  72   1.0000      -0.275790        -7.5046 
  73   1.0000      -0.274684        -7.4745 
  74   1.0000      -0.246003        -6.6941 
  75   1.0000      -0.218980        -5.9587 
  76   0.0000      -0.050509        -1.3744 
  77   0.0000      -0.036752        -1.0001 
  78   0.0000      -0.002594        -0.0706 
  79   0.0000       0.041139         1.1194 
  80   0.0000       0.048132         1.3098 
  81   0.0000       0.050480         1.3736 
  82   0.0000       0.063014         1.7147 
  83   0.0000       0.065046         1.7700 
  84   0.0000       0.071853         1.9552 
  85   0.0000       0.081409         2.2152 
  86   0.0000       0.084910         2.3105 
  87   0.0000       0.087372         2.3775 
  88   0.0000       0.090943         2.4747 
  89   0.0000       0.094691         2.5767 
  90   0.0000       0.095205         2.5907 
  91   0.0000       0.095743         2.6053 
  92   0.0000       0.102943         2.8012 
  93   0.0000       0.107199         2.9170 
  94   0.0000       0.112416         3.0590 
  95   0.0000       0.115091         3.1318 
  96   0.0000       0.126429         3.4403 
  97   0.0000       0.133913         3.6440 
  98   0.0000       0.139251         3.7892 
  99   0.0000       0.147575         4.0157 
 100   0.0000       0.151480         4.1220 
 101   0.0000       0.157041         4.2733 
 102   0.0000       0.160970         4.3802 
 103   0.0000       0.161889         4.4052 
 104   0.0000       0.162200         4.4137 
 105   0.0000       0.163737         4.4555 
 106   0.0000       0.170031         4.6268 
 107   0.0000       0.175404         4.7730 
 108   0.0000       0.178262         4.8508 
 109   0.0000       0.185680         5.0526 
 110   0.0000       0.199220         5.4211 
 111   0.0000       0.203486         5.5371 
 112   0.0000       0.209866         5.7107 
 113   0.0000       0.214039         5.8243 
 114   0.0000       0.223356         6.0778 
 115   0.0000       0.228788         6.2256 
 116   0.0000       0.239135         6.5072 
 117   0.0000       0.244601         6.6559 
 118   0.0000       0.259512         7.0617 
 119   0.0000       0.262018         7.1299 
 120   0.0000       0.274027         7.4567 
 121   0.0000       0.283740         7.7209 
 122   0.0000       0.294920         8.0252 
 123   0.0000       0.320167         8.7122 
 124   0.0000       0.326836         8.8937 
 125   0.0000       0.334282         9.0963 
 126   0.0000       0.350091         9.5265 
 127   0.0000       0.368375        10.0240 
 128   0.0000       0.372307        10.1310 
 129   0.0000       0.382550        10.4097 
 130   0.0000       0.411840        11.2067 
 131   0.0000       0.412038        11.2121 
 132   0.0000       0.415556        11.3078 
 133   0.0000       0.417786        11.3685 
 134   0.0000       0.419203        11.4071 
 135   0.0000       0.420127        11.4322 
 136   0.0000       0.426916        11.6170 
 137   0.0000       0.432859        11.7787 
 138   0.0000       0.450793        12.2667 
 139   0.0000       0.455699        12.4002 
 140   0.0000       0.462126        12.5751 
 141   0.0000       0.467759        12.7284 
 142   0.0000       0.470369        12.7994 
 143   0.0000       0.476187        12.9577 
 144   0.0000       0.478699        13.0261 
 145   0.0000       0.487297        13.2600 
 146   0.0000       0.492454        13.4003 
 147   0.0000       0.494335        13.4515 
 148   0.0000       0.504947        13.7403 
 149   0.0000       0.505672        13.7600 
 150   0.0000       0.513544        13.9742 
 151   0.0000       0.520979        14.1766 
 152   0.0000       0.529254        14.4017 
 153   0.0000       0.535057        14.5596 
 154   0.0000       0.539300        14.6751 
 155   0.0000       0.550998        14.9934 
 156   0.0000       0.554869        15.0988 
 157   0.0000       0.555895        15.1267 
 158   0.0000       0.567882        15.4529 
 159   0.0000       0.587765        15.9939 
 160   0.0000       0.594473        16.1764 
 161   0.0000       0.602115        16.3844 
 162   0.0000       0.604660        16.4536 
 163   0.0000       0.607554        16.5324 
 164   0.0000       0.613084        16.6829 
 165   0.0000       0.614877        16.7317 
 166   0.0000       0.618896        16.8410 
 167   0.0000       0.624113        16.9830 
 168   0.0000       0.631800        17.1922 
 169   0.0000       0.635096        17.2818 
 170   0.0000       0.639761        17.4088 
 171   0.0000       0.641647        17.4601 
 172   0.0000       0.647016        17.6062 
 173   0.0000       0.647579        17.6215 
 174   0.0000       0.652116        17.7450 
 175   0.0000       0.657411        17.8891 
 176   0.0000       0.658667        17.9232 
 177   0.0000       0.659503        17.9460 
 178   0.0000       0.661087        17.9891 
 179   0.0000       0.661581        18.0025 
 180   0.0000       0.664106        18.0712 
 181   0.0000       0.667182        18.1549 
 182   0.0000       0.671117        18.2620 
 183   0.0000       0.671960        18.2849 
 184   0.0000       0.673892        18.3375 
 185   0.0000       0.679849        18.4996 
 186   0.0000       0.685870        18.6635 
 187   0.0000       0.687073        18.6962 
 188   0.0000       0.695288        18.9198 
 189   0.0000       0.695879        18.9358 
 190   0.0000       0.699473        19.0336 
 191   0.0000       0.703557        19.1448 
 192   0.0000       0.708909        19.2904 
 193   0.0000       0.715008        19.4563 
 194   0.0000       0.717904        19.5352 
 195   0.0000       0.721465        19.6321 
 196   0.0000       0.723262        19.6810 
 197   0.0000       0.731356        19.9012 
 198   0.0000       0.733722        19.9656 
 199   0.0000       0.737861        20.0782 
 200   0.0000       0.747375        20.3371 
 201   0.0000       0.757361        20.6088 
 202   0.0000       0.760786        20.7020 
 203   0.0000       0.772585        21.0231 
 204   0.0000       0.777231        21.1495 
 205   0.0000       0.783944        21.3322 
 206   0.0000       0.808350        21.9963 
 207   0.0000       0.817465        22.2443 
 208   0.0000       0.830659        22.6034 
 209   0.0000       0.831241        22.6192 
 210   0.0000       0.839653        22.8481 
 211   0.0000       0.848894        23.0996 
 212   0.0000       0.853862        23.2348 
 213   0.0000       0.856277        23.3005 
 214   0.0000       0.880500        23.9596 
 215   0.0000       0.887054        24.1380 
 216   0.0000       0.894394        24.3377 
 217   0.0000       0.911120        24.7928 
 218   0.0000       0.917708        24.9721 
 219   0.0000       0.937465        25.5097 
 220   0.0000       0.947795        25.7908 
 221   0.0000       0.977704        26.6047 
 222   0.0000       0.981964        26.7206 
 223   0.0000       0.989774        26.9331 
 224   0.0000       1.015069        27.6214 
 225   0.0000       1.021139        27.7866 
 226   0.0000       1.029163        28.0050 
 227   0.0000       1.032718        28.1017 
 228   0.0000       1.044090        28.4111 
 229   0.0000       1.050596        28.5882 
 230   0.0000       1.052571        28.6419 
[...]
  Y           0.4331619           -0.5642795            0.7028225
  Z           0.7868251            0.6170866            0.0105100

Notes:  (1) The A matrix conforms to the "SAI" spin Hamiltonian convention.
        (2) Tensor is right-handed.

 -----------------------------------------------------------
 Nucleus  45H : A:ISTP=    1 I=  0.5 P=533.5514 MHz/au**3
                Q:ISTP=    2 I=  1.0 Q=  0.0029 barn     
 -----------------------------------------------------------
 Solving for nuclear perturbation:
Forming RHS of the CP-SCF equations         ... 
Calc. nucleus orbit integrals (SHARK)       ... done

------------------------------------------------------------------------------
                           ORCA CP-SCF CALCULATION
------------------------------------------------------------------------------

Input orbitals are from        ... cc-pVDZ_i.gbw
Input Perturbation             ... cc-pVDZ_i.pin.tmp
Wavefunction output            ... cc-pVDZ_i.pout.tmp
Perturbation mode              ... Imaginary perturbation
Solver                         ... POPLE
Max. number of iterations      ... 64
Convergence tolerance          ... 1.000e-03
Integral handling              ... Direct
DFT GridXC                     ... 1
COSX GridX                     ... 1
COSX IntAccX                   ... 3.067
COSX Algorithm                 ... Auto
Number of perturbations        ... 3
Number of operators            ... 2
Orbital ranges used for CP-SCF:
 Operator 0:  Orbitals   0... 76  to  77...428
 Operator 1:  Orbitals   0... 75  to  76...428
Variables per perturbation     ... 53932
DFT calculation                         ... on
XC functional terms                     ... off
Hybrid DFT                              ... on
   Exchange mixing (SCF)                ...  0.200
   Exchange mixing (CP-SCF)             ...  0.200
   GGA exch. scaling(SCF)               ...  0.720
   GGA exch. scaling (CP-SCF)           ...  0.720
   GGA corr. scaling (SCF)              ...  0.810
   GGA corr. scaling (CP-SCF)           ...  0.810

CP-SCF GRID
-----------

General Integration Accuracy     IntAcc      ... 3.467
Radial Grid Type                 RadialGrid  ... OptM3 with GC (2021)
Angular Grid (max. ang.)         AngularGrid ... 1 (Lebedev-50)
Angular grid pruning method      GridPruning ... 4 (adaptive)
Weight generation scheme         WeightScheme... Becke
Basis function cutoff            BFCut       ... 1.0000e-10
Integration weight cutoff        WCut        ... 1.0000e-14
Angular grids for H and He will be reduced by one unit
Partially contracted basis set               ... off
Rotationally invariant grid construction     ... off

Total number of grid points                  ...    29776
Total number of batches                      ...      486
Average number of points per batch           ...       61
Average number of grid points per atom       ...      620

CP-SCF GRIDX
------------

General Integration Accuracy     IntAcc      ... 3.067
Radial Grid Type                 RadialGrid  ... OptM3 with GC (2021)
Angular Grid (max. ang.)         AngularGrid ... 1 (Lebedev-50)
Angular grid pruning method      GridPruning ... 4 (adaptive)
Weight generation scheme         WeightScheme... Becke
Basis function cutoff            BFCut       ... 1.0000e-10
Integration weight cutoff        WCut        ... 1.0000e-14
Angular grids for H and He will be reduced by one unit
Partially contracted basis set               ... on
Rotationally invariant grid construction     ... off

Total number of grid points                  ...    14110
Total number of batches                      ...      250
Average number of points per batch           ...       56
Average number of grid points per atom       ...      294

Memory available               ... 886.4 MB
Memory needed per perturbation ...  11.6 MB
Perturbations treated per batch... 3
Number of batches              ... 1
     CP-SCF ITERATION   0:   1.0089e-01 (   1.6 sec   0/  3 done)
     CP-SCF ITERATION   1:   1.5901e-03 (   1.6 sec   1/  3 done)
     CP-SCF ITERATION   2:   1.4170e-04 (   1.3 sec   3/  3 done)
                    *** THE CP-SCF HAS CONVERGED ***

Forming final perturbed densities           ... done
Transforming perturbed density to AO basis  ... done

 Raw HFC matrix (all values in MHz): 
 -----------------------------------
                -0.0399              -0.2306               0.0109
                -0.2306               0.1945              -0.0206
                 0.0109              -0.0207              -0.1808

 A(FC)          -0.0088              -0.0088              -0.0088
 A(SD)          -0.1714              -0.1744               0.3457
 A(ORB+DIA)      0.0000               0.0000               0.0001    A(PC) =   0.0000
 A(ORB)         -0.0000              -0.0000               0.0001    A(PC) =   0.0000
 A(DIA)          0.0000               0.0000               0.0000    A(PC) =   0.0000
             ----------           ----------           ----------
 A(Tot)         -0.1801              -0.1831               0.3371    A(iso)=   -0.0087
 Orientation: 
  X          -0.6701476            0.5273657           -0.5222908
  Y          -0.3772720            0.3639703            0.8515818
  Z           0.6391933            0.7677311           -0.0449535

Notes:  (1) The A matrix conforms to the "SAI" spin Hamiltonian convention.
        (2) Tensor is right-handed.

 -----------------------------------------------------------
 Nucleus  46H : A:ISTP=    1 I=  0.5 P=533.5514 MHz/au**3
                Q:ISTP=    2 I=  1.0 Q=  0.0029 barn     
 -----------------------------------------------------------
 Solving for nuclear perturbation:
Forming RHS of the CP-SCF equations         ... 
Calc. nucleus orbit integrals (SHARK)       ... done

------------------------------------------------------------------------------
                           ORCA CP-SCF CALCULATION
------------------------------------------------------------------------------

Input orbitals are from        ... cc-pVDZ_i.gbw
Input Perturbation             ... cc-pVDZ_i.pin.tmp
Wavefunction output            ... cc-pVDZ_i.pout.tmp
Perturbation mode              ... Imaginary perturbation
Solver                         ... POPLE
Max. number of iterations      ... 64
Convergence tolerance          ... 1.000e-03
Integral handling              ... Direct
DFT GridXC                     ... 1
COSX GridX                     ... 1
COSX IntAccX                   ... 3.067
COSX Algorithm                 ... Auto
Number of perturbations        ... 3
Number of operators            ... 2
Orbital ranges used for CP-SCF:
 Operator 0:  Orbitals   0... 76  to  77...428
 Operator 1:  Orbitals   0... 75  to  76...428
Variables per perturbation     ... 53932
DFT calculation                         ... on
XC functional terms                     ... off
Hybrid DFT                              ... on
   Exchange mixing (SCF)                ...  0.200
   Exchange mixing (CP-SCF)             ...  0.200
   GGA exch. scaling(SCF)               ...  0.720
   GGA exch. scaling (CP-SCF)           ...  0.720
   GGA corr. scaling (SCF)              ...  0.810
   GGA corr. scaling (CP-SCF)           ...  0.810

CP-SCF GRID
-----------

General Integration Accuracy     IntAcc      ... 3.467
Radial Grid Type                 RadialGrid  ... OptM3 with GC (2021)
Angular Grid (max. ang.)         AngularGrid ... 1 (Lebedev-50)
Angular grid pruning method      GridPruning ... 4 (adaptive)
Weight generation scheme         WeightScheme... Becke
Basis function cutoff            BFCut       ... 1.0000e-10
Integration weight cutoff        WCut        ... 1.0000e-14
Angular grids for H and He will be reduced by one unit
Partially contracted basis set               ... off
Rotationally invariant grid construction     ... off

Total number of grid points                  ...    29776
Total number of batches                      ...      486
Average number of points per batch           ...       61
Average number of grid points per atom       ...      620

CP-SCF GRIDX
------------

General Integration Accuracy     IntAcc      ... 3.067
Radial Grid Type                 RadialGrid  ... OptM3 with GC (2021)
Angular Grid (max. ang.)         AngularGrid ... 1 (Lebedev-50)
Angular grid pruning method      GridPruning ... 4 (adaptive)
Weight generation scheme         WeightScheme... Becke
Basis function cutoff            BFCut       ... 1.0000e-10
Integration weight cutoff        WCut        ... 1.0000e-14
Angular grids for H and He will be reduced by one unit
Partially contracted basis set               ... on
Rotationally invariant grid construction     ... off

Total number of grid points                  ...    14110
Total number of batches                      ...      250
Average number of points per batch           ...       56
Average number of grid points per atom       ...      294

Memory available               ... 885.9 MB
Memory needed per perturbation ...  11.6 MB
Perturbations treated per batch... 3
Number of batches              ... 1
     CP-SCF ITERATION   0:   3.6640e-02 (   1.8 sec   0/  3 done)
     CP-SCF ITERATION   1:   6.3016e-04 (   1.6 sec   3/  3 done)
                    *** THE CP-SCF HAS CONVERGED ***

Forming final perturbed densities           ... done
Transforming perturbed density to AO basis  ... done

 Raw HFC matrix (all values in MHz): 
 -----------------------------------
                -0.0260               0.0177              -0.0005
                 0.0177               0.0558              -0.0020
                -0.0005              -0.0020              -0.0297

 A(FC)           0.0000               0.0000               0.0000
 A(SD)          -0.0296              -0.0298               0.0595
 A(ORB+DIA)      0.0000               0.0000               0.0000    A(PC) =   0.0000
 A(ORB)         -0.0000              -0.0000               0.0000    A(PC) =   0.0000
 A(DIA)          0.0000               0.0000               0.0000    A(PC) =   0.0000
             ----------           ----------           ----------
 A(Tot)         -0.0296              -0.0298               0.0595    A(iso)=    0.0000
 Orientation: 
  X           0.6770248            0.7075273           -0.2025897
  Y          -0.1568175           -0.1302647           -0.9789992
  Z          -0.7190589            0.6945763            0.0227602

Notes:  (1) The A matrix conforms to the "SAI" spin Hamiltonian convention.
        (2) Tensor is right-handed.

 -----------------------------------------------------------
 Nucleus  47H : A:ISTP=    1 I=  0.5 P=533.5514 MHz/au**3
                Q:ISTP=    2 I=  1.0 Q=  0.0029 barn     
 -----------------------------------------------------------
 Solving for nuclear perturbation:
Forming RHS of the CP-SCF equations         ... 
Calc. nucleus orbit integrals (SHARK)       ... done

------------------------------------------------------------------------------
                           ORCA CP-SCF CALCULATION
------------------------------------------------------------------------------

Input orbitals are from        ... cc-pVDZ_i.gbw
Input Perturbation             ... cc-pVDZ_i.pin.tmp
Wavefunction output            ... cc-pVDZ_i.pout.tmp
Perturbation mode              ... Imaginary perturbation
Solver                         ... POPLE
Max. number of iterations      ... 64
Convergence tolerance          ... 1.000e-03
Integral handling              ... Direct
DFT GridXC                     ... 1
COSX GridX                     ... 1
COSX IntAccX                   ... 3.067
COSX Algorithm                 ... Auto
Number of perturbations        ... 3
Number of operators            ... 2
Orbital ranges used for CP-SCF:
 Operator 0:  Orbitals   0... 76  to  77...428
 Operator 1:  Orbitals   0... 75  to  76...428
Variables per perturbation     ... 53932
DFT calculation                         ... on
XC functional terms                     ... off
Hybrid DFT                              ... on
   Exchange mixing (SCF)                ...  0.200
   Exchange mixing (CP-SCF)             ...  0.200
   GGA exch. scaling(SCF)               ...  0.720
   GGA exch. scaling (CP-SCF)           ...  0.720
   GGA corr. scaling (SCF)              ...  0.810
   GGA corr. scaling (CP-SCF)           ...  0.810

CP-SCF GRID
-----------

General Integration Accuracy     IntAcc      ... 3.467
Radial Grid Type                 RadialGrid  ... OptM3 with GC (2021)
Angular Grid (max. ang.)         AngularGrid ... 1 (Lebedev-50)
Angular grid pruning method      GridPruning ... 4 (adaptive)
Weight generation scheme         WeightScheme... Becke
Basis function cutoff            BFCut       ... 1.0000e-10
Integration weight cutoff        WCut        ... 1.0000e-14
Angular grids for H and He will be reduced by one unit
Partially contracted basis set               ... off
Rotationally invariant grid construction     ... off

Total number of grid points                  ...    29776
Total number of batches                      ...      486
Average number of points per batch           ...       61
Average number of grid points per atom       ...      620

CP-SCF GRIDX
------------

General Integration Accuracy     IntAcc      ... 3.067
Radial Grid Type                 RadialGrid  ... OptM3 with GC (2021)
Angular Grid (max. ang.)         AngularGrid ... 1 (Lebedev-50)
Angular grid pruning method      GridPruning ... 4 (adaptive)
Weight generation scheme         WeightScheme... Becke
Basis function cutoff            BFCut       ... 1.0000e-10
Integration weight cutoff        WCut        ... 1.0000e-14
Angular grids for H and He will be reduced by one unit
Partially contracted basis set               ... on
Rotationally invariant grid construction     ... off

Total number of grid points                  ...    14110
Total number of batches                      ...      250
Average number of points per batch           ...       56
Average number of grid points per atom       ...      294

Memory available               ... 885.5 MB
Memory needed per perturbation ...  11.6 MB
Perturbations treated per batch... 3
Number of batches              ... 1
     CP-SCF ITERATION   0:   3.6298e-02 (   1.6 sec   0/  3 done)
     CP-SCF ITERATION   1:   5.4059e-04 (   1.6 sec   3/  3 done)
                    *** THE CP-SCF HAS CONVERGED ***

Forming final perturbed densities           ... done
Transforming perturbed density to AO basis  ... done

 Raw HFC matrix (all values in MHz): 
 -----------------------------------
                -0.9037              -0.2083              -0.1387
                -0.2083               1.0789               0.4030
                -0.1387               0.4029              -0.9200

 A(FC)          -0.2483              -0.2483              -0.2483
 A(SD)          -0.6134              -0.8170               1.4304
 A(ORB+DIA)     -0.0001              -0.0002               0.0006    A(PC) =   0.0001
 A(ORB)         -0.0000              -0.0002               0.0004    A(PC) =   0.0001
 A(DIA)         -0.0001              -0.0000               0.0001    A(PC) =  -0.0000
             ----------           ----------           ----------
 A(Tot)         -0.8618              -1.0656               1.1827    A(iso)=   -0.2483
 Orientation: 
  X          -0.8127513            0.5720964           -0.1101864
  Y          -0.2007853           -0.0975046            0.9747708
  Z           0.5469192            0.8143700            0.1941155

Notes:  (1) The A matrix conforms to the "SAI" spin Hamiltonian convention.
        (2) Tensor is right-handed.


--------------------------------------------------------------------------------
----------------------------------------------------------------------------
                           ORCA EULER ANGLE PROGRAM
----------------------------------------------------------------------------

Only g-tensor available        -->  using g-tensor as reference tensor

Reference tensor               ...  g

g-tensor ordering              ...  |g_min> --> |gx>
                                    |g_mid> --> |gy>
                                    |g_max> --> |gz>

A- and EFG-tensor ordering     ...  the axes |Ax>, |Qx>, |Ay>, etc. are assigned
                                    such that the Euler rotation is minimal. You
                                    can find the respective eigenvalues as Ax,
                                    EFGx, Ay, etc. in the tables below.
                                    The relation of |Ax>, |Ay>,  etc. to Amin, Amid, etc.
                                    (as printed in the ORCA EPR/NMR CALCULATION Output)
                                    is obtained in the detailed printout.

Euler rotation around          ...  z - y - z
   First rotation              -->  by alpha around z
   Second rotation             -->  by beta around y'
   Third rotation              -->  by gamma around z''
   Positive / Negative angle   -->  clockwise / counterclockwise rotation

Plot EFG-tensors                    (-)
Plot HFC-tensors                    (-)
Detailed Printout                   (-)

-------------------------------------------------------------------------
          Euler rotation of hyperfine tensor to g-tensor
-------------------------------------------------------------------------

-------------------------------------------------------------------
 Atom  |   Alpha    Beta    Gamma   |   Ax       Ay       Az 
       |          [degrees]         |           [MHz]         
-------------------------------------------------------------------
  9H      151.2     35.0   -163.2      -0.12     0.27    -0.11
 10H     -160.7     36.8    151.2      -0.74     1.34    -0.71
 12H     -126.6      7.2    119.5      -0.06     0.22    -0.06
 13H       -4.9     34.9    -13.8      -0.06     0.22    -0.06
 15H       14.4     35.8    -16.0      -0.07     0.14    -0.07
 16H       16.0     44.0    -25.7      -0.07     0.14    -0.07
 18H        1.9     28.2    -17.6      -0.05     0.09    -0.05
 19H       -3.3     24.5     -4.6      -0.05     0.09    -0.05
 21H       21.7     32.0    -31.6      -0.04     0.07    -0.04
 22H       18.2     30.6    -21.0      -0.04     0.07    -0.04
 24H       94.9     35.6   -112.8      -0.36     2.74    -0.32
 25H       48.5     32.4    -39.2       0.07     3.04    -0.48
 27H     -118.9     10.2    125.9      -4.12     4.02    -4.31
 28H        2.5     40.8    -28.3      -4.30     4.79    -5.62
 30H      -29.4     25.6     68.4      36.03    35.25    49.33
 31H       88.2     44.9    -55.4     108.41   119.39   106.46
 33H       55.8     18.1    -55.0     -56.13   -91.99   -16.29
 35H      -48.0     24.8     20.8     108.95   119.92   107.02
 36H     -132.6     52.5    156.8      34.39    48.42    35.17
 38H       91.4     38.7   -101.0      -4.14     4.00    -4.31
 39H       45.7     35.7    -11.2      -4.32     4.74    -5.66
 41H     -171.1     43.2   -173.4      -0.29     2.70    -0.27
 42H       15.8     25.6    -19.5       0.13     2.97    -0.37
 44H      -57.1     33.2     33.5      -0.11     0.24    -0.11
 45H      -61.6     43.3     93.8      -0.18    -0.18     0.34
 46H       11.4     27.9    -20.5      -0.03     0.06    -0.03
 47H       30.6     38.3    -17.3      -0.86     1.18    -1.07
-------------------------------------------------------------------


Maximum memory used throughout the entire EPRNMR-calculation: 199.0 MB

Timings for individual modules:

Sum of individual times         ...     4065.459 sec (=  67.758 min)
GTO integral calculation        ...        4.402 sec (=   0.073 min)   0.1 %
Spin-Orbit-Coupling Matrices    ...        8.139 sec (=   0.136 min)   0.2 %
SCF iterations                  ...       26.853 sec (=   0.448 min)   0.7 %
EPR/NMR calculation             ...     4026.065 sec (=  67.101 min)  99.0 %
                             ****ORCA TERMINATED NORMALLY****
TOTAL RUN TIME: 0 days 1 hours 7 minutes 49 seconds 698 msec
