
                                 *****************
                                 * O   R   C   A *
                                 *****************

                                            #,                                       
                                            ###                                      
                                            ####                                     
                                            #####                                    
                                            ######                                   
                                           ########,                                 
                                     ,,################,,,,,                         
                               ,,#################################,,                 
                          ,,##########################################,,             
                       ,#########################################, ''#####,          
                    ,#############################################,,   '####,        
                  ,##################################################,,,,####,       
                ,###########''''           ''''###############################       
              ,#####''   ,,,,##########,,,,          '''####'''          '####       
            ,##' ,,,,###########################,,,                        '##       
           ' ,,###''''                  '''############,,,                           
         ,,##''                                '''############,,,,        ,,,,,,###''
      ,#''                                            '''#######################'''  
     '                                                          ''''####''''         
             ,#######,   #######,   ,#######,      ##                                
            ,#'     '#,  ##    ##  ,#'     '#,    #''#        ######   ,####,        
            ##       ##  ##   ,#'  ##            #'  '#       #        #'  '#        
            ##       ##  #######   ##           ,######,      #####,   #    #        
            '#,     ,#'  ##    ##  '#,     ,#' ,#      #,         ##   #,  ,#        
             '#######'   ##     ##  '#######'  #'      '#     #####' # '####'        



                  #######################################################
                  #                        -***-                        #
                  #          Department of theory and spectroscopy      #
                  #    Directorship and core code : Frank Neese         #
                  #        Max Planck Institute fuer Kohlenforschung    #
                  #                Kaiser Wilhelm Platz 1               #
                  #                 D-45470 Muelheim/Ruhr               #
                  #                      Germany                        #
                  #                                                     #
                  #                  All rights reserved                #
                  #                        -***-                        #
                  #######################################################


                         Program Version 5.0.4 -  RELEASE  -


 With contributions from (in alphabetic order):
   Daniel Aravena         : Magnetic Suceptibility
   Michael Atanasov       : Ab Initio Ligand Field Theory (pilot matlab implementation)
   Alexander A. Auer      : GIAO ZORA, VPT2 properties, NMR spectrum
   Ute Becker             : Parallelization
   Giovanni Bistoni       : ED, misc. LED, open-shell LED, HFLD
   Martin Brehm           : Molecular dynamics
   Dmytro Bykov           : SCF Hessian
   Vijay G. Chilkuri      : MRCI spin determinant printing, contributions to CSF-ICE
   Dipayan Datta          : RHF DLPNO-CCSD density
   Achintya Kumar Dutta   : EOM-CC, STEOM-CC
   Dmitry Ganyushin       : Spin-Orbit,Spin-Spin,Magnetic field MRCI
   Miquel Garcia          : C-PCM and meta-GGA Hessian, CC/C-PCM, Gaussian charge scheme
   Yang Guo               : DLPNO-NEVPT2, F12-NEVPT2, CIM, IAO-localization
   Andreas Hansen         : Spin unrestricted coupled pair/coupled cluster methods
   Benjamin Helmich-Paris : MC-RPA, TRAH-SCF, COSX integrals
   Lee Huntington         : MR-EOM, pCC
   Robert Izsak           : Overlap fitted RIJCOSX, COSX-SCS-MP3, EOM
   Marcus Kettner         : VPT2
   Christian Kollmar      : KDIIS, OOCD, Brueckner-CCSD(T), CCSD density, CASPT2, CASPT2-K
   Simone Kossmann        : Meta GGA functionals, TD-DFT gradient, OOMP2, MP2 Hessian
   Martin Krupicka        : Initial AUTO-CI
   Lucas Lang             : DCDCAS
   Marvin Lechner         : AUTO-CI (C++ implementation), FIC-MRCC
   Dagmar Lenk            : GEPOL surface, SMD
   Dimitrios Liakos       : Extrapolation schemes; Compound Job, initial MDCI parallelization
   Dimitrios Manganas     : Further ROCIS development; embedding schemes
   Dimitrios Pantazis     : SARC Basis sets
   Anastasios Papadopoulos: AUTO-CI, single reference methods and gradients
   Taras Petrenko         : DFT Hessian,TD-DFT gradient, ASA, ECA, R-Raman, ABS, FL, XAS/XES, NRVS
   Peter Pinski           : DLPNO-MP2, DLPNO-MP2 Gradient
   Christoph Reimann      : Effective Core Potentials
   Marius Retegan         : Local ZFS, SOC
   Christoph Riplinger    : Optimizer, TS searches, QM/MM, DLPNO-CCSD(T), (RO)-DLPNO pert. Triples
   Tobias Risthaus        : Range-separated hybrids, TD-DFT gradient, RPA, STAB
   Michael Roemelt        : Original ROCIS implementation
   Masaaki Saitow         : Open-shell DLPNO-CCSD energy and density
   Barbara Sandhoefer     : DKH picture change effects
   Avijit Sen             : IP-ROCIS
   Kantharuban Sivalingam : CASSCF convergence, NEVPT2, FIC-MRCI
   Bernardo de Souza      : ESD, SOC TD-DFT
   Georgi Stoychev        : AutoAux, RI-MP2 NMR, DLPNO-MP2 response
   Willem Van den Heuvel  : Paramagnetic NMR
   Boris Wezisla          : Elementary symmetry handling
   Frank Wennmohs         : Technical directorship


 We gratefully acknowledge several colleagues who have allowed us to
 interface, adapt or use parts of their codes:
   Stefan Grimme, W. Hujo, H. Kruse, P. Pracht,  : VdW corrections, initial TS optimization,
                  C. Bannwarth, S. Ehlert          DFT functionals, gCP, sTDA/sTD-DF
   Ed Valeev, F. Pavosevic, A. Kumar             : LibInt (2-el integral package), F12 methods
   Garnet Chan, S. Sharma, J. Yang, R. Olivares  : DMRG
   Ulf Ekstrom                                   : XCFun DFT Library
   Mihaly Kallay                                 : mrcc  (arbitrary order and MRCC methods)
   Jiri Pittner, Ondrej Demel                    : Mk-CCSD
   Frank Weinhold                                : gennbo (NPA and NBO analysis)
   Christopher J. Cramer and Donald G. Truhlar   : smd solvation model
   Lars Goerigk                                  : TD-DFT with DH, B97 family of functionals
   V. Asgeirsson, H. Jonsson                     : NEB implementation
   FAccTs GmbH                                   : IRC, NEB, NEB-TS, DLPNO-Multilevel, CI-OPT
                                                   MM, QMMM, 2- and 3-layer-ONIOM, Crystal-QMMM,
                                                   LR-CPCM, SF, NACMEs, symmetry and pop. for TD-DFT,
                                                   nearIR, NL-DFT gradient (VV10), updates on ESD,
                                                   ML-optimized integration grids
   S Lehtola, MJT Oliveira, MAL Marques          : LibXC Library
   Liviu Ungur et al                             : ANISO software


 Your calculation uses the libint2 library for the computation of 2-el integrals
 For citations please refer to: http://libint.valeyev.net

 Your ORCA version has been built with support for libXC version: 5.1.0
 For citations please refer to: https://tddft.org/programs/libxc/

 This ORCA versions uses:
   CBLAS   interface :  Fast vector & matrix operations
   LAPACKE interface :  Fast linear algebra routines
   SCALAPACK package :  Parallel linear algebra routines
   Shared memory     :  Shared parallel matrices
   BLAS/LAPACK       :  OpenBLAS 0.3.15  USE64BITINT DYNAMIC_ARCH NO_AFFINITY SkylakeX SINGLE_THREADED
        Core in use  :  SkylakeX
   Copyright (c) 2011-2014, The OpenBLAS Project




***************************************
The coordinates will be read from file: opt_EPRII.xyz
***************************************


================================================================================

----- Orbital basis set information -----
Your calculation utilizes the basis: EPR-II
   V. Barone, in Recent Advances in Density Functional Methods, Part 1 (ed. D. P. Chong), World Scientific, Singapore, 1995, p. 287.

----- AuxJ basis set information -----
Your calculation utilizes the AutoAux generation procedure.
  G. L. Stoychev, A. A. Auer, F. Neese, J. Chem. Theory Comput. 13, 554 (2017)

----- AuxC basis set information -----
Your calculation utilizes the AutoAux generation procedure.
  G. L. Stoychev, A. A. Auer, F. Neese, J. Chem. Theory Comput. 13, 554 (2017)

----- AuxJK basis set information -----
Your calculation utilizes the AutoAux generation procedure.
  G. L. Stoychev, A. A. Auer, F. Neese, J. Chem. Theory Comput. 13, 554 (2017)

================================================================================
                                        WARNINGS
                       Please study these warnings very carefully!
================================================================================

WARNING: Old DensityContainer found on disk!
         Will remove this file - 
         If you want to keep old densities, please start your calculation with a different basename. 


WARNING: your system is open-shell and RHF/RKS was chosen
  ===> : WILL SWITCH to UHF/UKS


INFO   : the flag for use of the SHARK integral package has been found!

================================================================================
                                       INPUT FILE
================================================================================
NAME = EPRII_i.inp
|  1> ! B3LYP EPR-II AUTOAUX
|  2> %pal nprocs 16 end
|  3> *XYZFile 0 2 opt_EPRII.xyz
|  4> %EPRNMR
|  5>         GTENSOR   TRUE
|  6>         NUCLEI    = ALL H {SHIFT, AISO, ADIP, AORB}
|  7>         ORI       GIAO
|  8> END
|  9> 
| 10>                          ****END OF INPUT****
================================================================================

                       ****************************
                       * Single Point Calculation *
                       ****************************

---------------------------------
CARTESIAN COORDINATES (ANGSTROEM)
---------------------------------
  C     -3.999402    0.213685   -0.312346
  C     -2.781646    0.139199   -0.279563
  C      2.885064   -0.115833   -0.143630
  C     -1.349191    0.051342   -0.243667
  C     -0.703564   -1.213530   -0.180788
  C      0.695159   -1.219680   -0.150529
  C      1.452624   -0.027473   -0.178968
  C      0.807017    1.237436   -0.239477
  C     -0.591703    1.243797   -0.271141
  H      1.232344   -2.159771   -0.103275
  H     -1.128899    2.184032   -0.317045
  C     -1.532392   -2.488816   -0.148153
  H     -2.179448   -2.501079   -1.035488
  H     -2.220163   -2.429221    0.705979
  C     -0.751709   -3.810467   -0.075235
  H     -0.080718   -3.896558   -0.940406
  H     -0.114007   -3.819586    0.818849
  C     -1.678891   -5.038705   -0.038189
  H     -2.351361   -4.958566    0.826232
  H     -2.320524   -5.035157   -0.929332
  C     -0.909129   -6.368999    0.033916
  H     -0.280880   -6.412178    0.930789
  H     -0.254409   -6.492930   -0.836097
  C      1.637400    2.511433   -0.265380
  H      2.291639    2.511234    0.616765
  H      2.318362    2.460718   -1.125675
  C      0.859604    3.835135   -0.314206
  H      0.226440    3.866022   -1.210469
  H      0.188546    3.911025    0.550257
  C      1.798012    5.058230   -0.323509
  H      2.442759    5.033856    0.567958
  H      2.490480    4.965092   -1.181865
  C      1.078709    6.375211   -0.385546
  H      0.119449    6.416637   -0.902426
  C      1.772366    7.668430   -0.066000
  H      2.464457    7.939372   -0.886231
  H      2.414409    7.533250    0.817778
  C      0.814060    8.852804    0.173338
  H      0.186783    8.990460   -0.717074
  H      0.134343    8.600514    0.996591
  C      1.550236   10.165209    0.492184
  H      2.166759   10.061585    1.392301
  H      2.212714   10.455496   -0.331308
  C      4.102879   -0.190997   -0.114314
  H     -5.062864    0.281032   -0.339843
  H      5.166323   -0.258816   -0.087579
  H     -1.592755   -7.223828    0.062836
  H      0.846310   10.986606    0.661613

----------------------------
CARTESIAN COORDINATES (A.U.)
----------------------------
  NO LB      ZA    FRAG     MASS         X           Y           Z
   0 C     6.0000    0    12.011   -7.557775    0.403806   -0.590249
   1 C     6.0000    0    12.011   -5.256549    0.263047   -0.528297
   2 C     6.0000    0    12.011    5.451981   -0.218893   -0.271421
   3 C     6.0000    0    12.011   -2.549601    0.097022   -0.460464
   4 C     6.0000    0    12.011   -1.329543   -2.293239   -0.341640
   5 C     6.0000    0    12.011    1.313660   -2.304861   -0.284458
   6 C     6.0000    0    12.011    2.745062   -0.051917   -0.338200
   7 C     6.0000    0    12.011    1.525040    2.338415   -0.452547
   8 C     6.0000    0    12.011   -1.118156    2.350436   -0.512381
   9 H     1.0000    0     1.008    2.328793   -4.081376   -0.195161
  10 H     1.0000    0     1.008   -2.133310    4.127222   -0.599128
  11 C     6.0000    0    12.011   -2.895801   -4.703181   -0.279969
  12 H     1.0000    0     1.008   -4.118560   -4.726354   -1.956790
  13 H     1.0000    0     1.008   -4.195500   -4.590562    1.334107
  14 C     6.0000    0    12.011   -1.420524   -7.200739   -0.142173
  15 H     1.0000    0     1.008   -0.152535   -7.363428   -1.777110
  16 H     1.0000    0     1.008   -0.215442   -7.217972    1.547401
  17 C     6.0000    0    12.011   -3.172644   -9.521772   -0.072167
  18 H     1.0000    0     1.008   -4.443428   -9.370332    1.561352
  19 H     1.0000    0     1.008   -4.385156   -9.515067   -1.756184
  20 C     6.0000    0    12.011   -1.718006  -12.035663    0.064092
  21 H     1.0000    0     1.008   -0.530785  -12.117260    1.758937
  22 H     1.0000    0     1.008   -0.480763  -12.269860   -1.579994
  23 C     6.0000    0    12.011    3.094237    4.745921   -0.501496
  24 H     1.0000    0     1.008    4.330570    4.745545    1.165516
  25 H     1.0000    0     1.008    4.381069    4.650083   -2.127217
  26 C     6.0000    0    12.011    1.624416    7.247354   -0.593764
  27 H     1.0000    0     1.008    0.427910    7.305724   -2.287455
  28 H     1.0000    0     1.008    0.356300    7.390766    1.039835
  29 C     6.0000    0    12.011    3.397751    9.558670   -0.611343
  30 H     1.0000    0     1.008    4.616145    9.512610    1.073284
  31 H     1.0000    0     1.008    4.706326    9.382665   -2.233402
  32 C     6.0000    0    12.011    2.038465   12.047403   -0.728577
  33 H     1.0000    0     1.008    0.225726   12.125686   -1.705338
  34 C     6.0000    0    12.011    3.349287   14.491232   -0.124721
  35 H     1.0000    0     1.008    4.657149   15.003239   -1.674733
  36 H     1.0000    0     1.008    4.562572   14.235779    1.545377
  37 C     6.0000    0    12.011    1.538350   16.729374    0.327561
  38 H     1.0000    0     1.008    0.352969   16.989507   -1.355073
  39 H     1.0000    0     1.008    0.253871   16.252617    1.883284
  40 C     6.0000    0    12.011    2.929522   19.209461    0.930094
  41 H     1.0000    0     1.008    4.094581   19.013640    2.631067
  42 H     1.0000    0     1.008    4.181424   19.758025   -0.626081
  43 C     6.0000    0    12.011    7.753317   -0.360931   -0.216021
  44 H     1.0000    0     1.008   -9.567426    0.531074   -0.642210
  45 H     1.0000    0     1.008    9.762935   -0.489091   -0.165500
  46 H     1.0000    0     1.008   -3.009871  -13.651057    0.118743
  47 H     1.0000    0     1.008    1.599293   20.761676    1.250268

--------------------------------
INTERNAL COORDINATES (ANGSTROEM)
--------------------------------
 C      0   0   0     0.000000000000     0.00000000     0.00000000
 C      1   0   0     1.220472793502     0.00000000     0.00000000
 C      2   1   0     5.674074439543   179.06205050     0.00000000
 C      2   1   3     1.435595604379   179.89314905   275.11766001
 C      4   2   1     1.421509101753   120.58073669   272.99417601
 C      5   4   2     1.399063561802   117.31885488   179.91914300
 C      6   5   4     1.412769829551   122.13260872     0.07218453
 C      7   6   5     1.421431105858   120.55009906     0.03635847
 C      8   7   6     1.399092014718   117.32802420   359.90105066
 H      6   5   4     1.083777280438   120.01956428   180.04332743
 H      9   8   7     1.083848704539   120.02703946   179.97794627
 C      5   4   2     1.521307615176   119.96131883   359.87575156
 H     12   5   4     1.098269792982   108.24071659    56.86972047
 H     12   5   4     1.098235944166   108.20297434   303.50652211
 C     12   5   4     1.536731307739   116.43625618   180.20848053
 H     15  12   5     1.098254257540   109.90222268   301.15602456
 H     15  12   5     1.098241281048   109.92280729    58.19869765
 C     15  12   5     1.539353005407   112.41883170   179.65054901
 H     18  15  12     1.098117460942   109.24245341   301.97678266
 H     18  15  12     1.098108526949   109.25856077    57.88708852
 C     18  15  12     1.538640043482   112.93244707   179.95993924
 H     21  18  15     1.095875920394   111.05270057    59.66127502
 H     21  18  15     1.095874186608   111.06725169   299.92942828
 C      8   7   6     1.520945960348   119.87756017   179.82426919
 H     24   8   7     1.098275008025   108.14353095   303.93925674
 H     24   8   7     1.098356989741   108.24926385    57.26206823
 C     24   8   7     1.536078028411   116.48191414   180.70423845
 H     27  24   8     1.097787676769   110.01355410   300.75176602
 H     27  24   8     1.096984514576   110.14016246    58.18648902
 C     27  24   8     1.541641909822   112.06469266   179.45168657
 H     30  27  24     1.100456199317   109.52235741   302.32245899
 H     30  27  24     1.106780402508   108.58789723    56.53267122
 C     30  27  24     1.501893498564   113.85435457   179.38970871
 H     33  30  27     1.090440903161   118.30774664   329.56545334
 C     33  30  27     1.501893445616   121.67231372   164.66447383
 H     35  33  30     1.106877633178   109.99196925    73.00866025
 H     35  33  30     1.100706833537   109.54108331   317.97922246
 C     35  33  30     1.542198112289   114.03540620   195.00806065
 H     38  35  33     1.097842509185   108.99407716   302.26877814
 H     38  35  33     1.097000976268   108.95753558    58.06825161
 C     38  35  33     1.538189285908   112.95589047   180.25692071
 H     41  38  35     1.095923039907   111.02756778   300.37970676
 H     41  38  35     1.096030873297   111.07042248    60.04701563
 C      3   2   1     1.220484289364   179.04533809   190.00396322
 H      1   2   4     1.065946213617   179.86236526   238.57329267
 H     44   3   7     1.065939482912   179.86800875   245.91046907
 H     21  18  15     1.094949629900   111.33831844   179.78519737
 H     41  38  35     1.094948118558   111.37346880   180.25277303

---------------------------
INTERNAL COORDINATES (A.U.)
---------------------------
 C      0   0   0     0.000000000000     0.00000000     0.00000000
 C      1   0   0     2.306359333621     0.00000000     0.00000000
 C      2   1   0    10.722446754219   179.06205050     0.00000000
 C      2   1   3     2.712882531338   179.89314905   275.11766001
 C      4   2   1     2.686262899190   120.58073669   272.99417601
 C      5   4   2     2.643846975754   117.31885488   179.91914300
 C      6   5   4     2.669748068118   122.13260872     0.07218453
 C      7   6   5     2.686115508309   120.55009906     0.03635847
 C      8   7   6     2.643900743974   117.32802420   359.90105066
 H      6   5   4     2.048042250194   120.01956428   180.04332743
 H      9   8   7     2.048177222184   120.02703946   179.97794627
 C      5   4   2     2.874854758132   119.96131883   359.87575156
 H     12   5   4     2.075429129894   108.24071659    56.86972047
 H     12   5   4     2.075365164902   108.20297434   303.50652211
 C     12   5   4     2.904001313050   116.43625618   180.20848053
 H     15  12   5     2.075399772164   109.90222268   301.15602456
 H     15  12   5     2.075375250148   109.92280729    58.19869765
 C     15  12   5     2.908955603647   112.41883170   179.65054901
 H     18  15  12     2.075141264057   109.24245341   301.97678266
 H     18  15  12     2.075124381258   109.25856077    57.88708852
 C     18  15  12     2.907608300865   112.93244707   179.95993924
 H     21  18  15     2.070905366304   111.05270057    59.66127502
 H     21  18  15     2.070902089923   111.06725169   299.92942828
 C      8   7   6     2.874171329552   119.87756017   179.82426919
 H     24   8   7     2.075438984897   108.14353095   303.93925674
 H     24   8   7     2.075593907889   108.24926385    57.26206823
 C     24   8   7     2.902766794030   116.48191414   180.70423845
 H     27  24   8     2.074518062288   110.01355410   300.75176602
 H     27  24   8     2.073000305701   110.14016246    58.18648902
 C     27  24   8     2.913281006139   112.06469266   179.45168657
 H     30  27  24     2.079560839085   109.52235741   302.32245899
 H     30  27  24     2.091511851132   108.58789723    56.53267122
 C     30  27  24     2.838167394603   113.85435457   179.38970871
 H     33  30  27     2.060634672200   118.30774664   329.56545334
 C     33  30  27     2.838167294546   121.67231372   164.66447383
 H     35  33  30     2.091695590469   109.99196925    73.00866025
 H     35  33  30     2.080034469121   109.54108331   317.97922246
 C     35  33  30     2.914332076477   114.03540620   195.00806065
 H     38  35  33     2.074621680537   108.99407716   302.26877814
 H     38  35  33     2.073031413790   108.95753558    58.06825161
 C     38  35  33     2.906756492497   112.95589047   180.25692071
 H     41  38  35     2.070994409279   111.02756778   300.37970676
 H     41  38  35     2.071198184853   111.07042248    60.04701563
 C      3   2   1     2.306381057652   179.04533809   190.00396322
 H      1   2   4     2.014346417226   179.86236526   238.57329267
 H     44   3   7     2.014333698037   179.86800875   245.91046907
 H     21  18  15     2.069154930949   111.33831844   179.78519737
 H     41  38  35     2.069152074927   111.37346880   180.25277303

---------------------
BASIS SET INFORMATION
---------------------
There are 2 groups of distinct atoms

 Group   1 Type C   : 10s5p1d contracted to 6s2p1d pattern {511111/41/1}
 Group   2 Type H   : 6s1p contracted to 4s1p pattern {3111/1}

Atom   0C    basis set group =>   1
Atom   1C    basis set group =>   1
Atom   2C    basis set group =>   1
Atom   3C    basis set group =>   1
Atom   4C    basis set group =>   1
Atom   5C    basis set group =>   1
Atom   6C    basis set group =>   1
Atom   7C    basis set group =>   1
Atom   8C    basis set group =>   1
Atom   9H    basis set group =>   2
Atom  10H    basis set group =>   2
Atom  11C    basis set group =>   1
Atom  12H    basis set group =>   2
Atom  13H    basis set group =>   2
Atom  14C    basis set group =>   1
Atom  15H    basis set group =>   2
Atom  16H    basis set group =>   2
Atom  17C    basis set group =>   1
Atom  18H    basis set group =>   2
Atom  19H    basis set group =>   2
Atom  20C    basis set group =>   1
Atom  21H    basis set group =>   2
Atom  22H    basis set group =>   2
Atom  23C    basis set group =>   1
Atom  24H    basis set group =>   2
Atom  25H    basis set group =>   2
Atom  26C    basis set group =>   1
Atom  27H    basis set group =>   2
Atom  28H    basis set group =>   2
Atom  29C    basis set group =>   1
Atom  30H    basis set group =>   2
Atom  31H    basis set group =>   2
Atom  32C    basis set group =>   1
Atom  33H    basis set group =>   2
Atom  34C    basis set group =>   1
Atom  35H    basis set group =>   2
Atom  36H    basis set group =>   2
Atom  37C    basis set group =>   1
Atom  38H    basis set group =>   2
Atom  39H    basis set group =>   2
Atom  40C    basis set group =>   1
Atom  41H    basis set group =>   2
Atom  42H    basis set group =>   2
Atom  43C    basis set group =>   1
Atom  44H    basis set group =>   2
Atom  45H    basis set group =>   2
Atom  46H    basis set group =>   2
Atom  47H    basis set group =>   2
---------------------------------
AUXILIARY/J BASIS SET INFORMATION
---------------------------------
There are 2 groups of distinct atoms

 Group   1 Type C   : 17s13p12d2f contracted to 17s13p12d2f pattern {11111111111111111/1111111111111/111111111111/11}
 Group   2 Type H   : 15s6p1d contracted to 15s6p1d pattern {111111111111111/111111/1}

Atom   0C    basis set group =>   1
Atom   1C    basis set group =>   1
Atom   2C    basis set group =>   1
Atom   3C    basis set group =>   1
Atom   4C    basis set group =>   1
Atom   5C    basis set group =>   1
Atom   6C    basis set group =>   1
Atom   7C    basis set group =>   1
Atom   8C    basis set group =>   1
Atom   9H    basis set group =>   2
Atom  10H    basis set group =>   2
Atom  11C    basis set group =>   1
Atom  12H    basis set group =>   2
Atom  13H    basis set group =>   2
Atom  14C    basis set group =>   1
Atom  15H    basis set group =>   2
Atom  16H    basis set group =>   2
Atom  17C    basis set group =>   1
Atom  18H    basis set group =>   2
Atom  19H    basis set group =>   2
Atom  20C    basis set group =>   1
Atom  21H    basis set group =>   2
Atom  22H    basis set group =>   2
Atom  23C    basis set group =>   1
Atom  24H    basis set group =>   2
Atom  25H    basis set group =>   2
Atom  26C    basis set group =>   1
Atom  27H    basis set group =>   2
Atom  28H    basis set group =>   2
Atom  29C    basis set group =>   1
Atom  30H    basis set group =>   2
Atom  31H    basis set group =>   2
Atom  32C    basis set group =>   1
Atom  33H    basis set group =>   2
Atom  34C    basis set group =>   1
Atom  35H    basis set group =>   2
Atom  36H    basis set group =>   2
Atom  37C    basis set group =>   1
Atom  38H    basis set group =>   2
Atom  39H    basis set group =>   2
Atom  40C    basis set group =>   1
Atom  41H    basis set group =>   2
Atom  42H    basis set group =>   2
Atom  43C    basis set group =>   1
Atom  44H    basis set group =>   2
Atom  45H    basis set group =>   2
Atom  46H    basis set group =>   2
Atom  47H    basis set group =>   2
---------------------------------
AUXILIARY/C BASIS SET INFORMATION
---------------------------------
There are 2 groups of distinct atoms

 Group   1 Type C   : 17s13p12d2f contracted to 17s13p12d2f pattern {11111111111111111/1111111111111/111111111111/11}
 Group   2 Type H   : 15s6p1d contracted to 15s6p1d pattern {111111111111111/111111/1}

Atom   0C    basis set group =>   1
Atom   1C    basis set group =>   1
Atom   2C    basis set group =>   1
Atom   3C    basis set group =>   1
Atom   4C    basis set group =>   1
Atom   5C    basis set group =>   1
Atom   6C    basis set group =>   1
Atom   7C    basis set group =>   1
Atom   8C    basis set group =>   1
Atom   9H    basis set group =>   2
Atom  10H    basis set group =>   2
Atom  11C    basis set group =>   1
Atom  12H    basis set group =>   2
Atom  13H    basis set group =>   2
Atom  14C    basis set group =>   1
Atom  15H    basis set group =>   2
Atom  16H    basis set group =>   2
Atom  17C    basis set group =>   1
Atom  18H    basis set group =>   2
Atom  19H    basis set group =>   2
Atom  20C    basis set group =>   1
Atom  21H    basis set group =>   2
Atom  22H    basis set group =>   2
Atom  23C    basis set group =>   1
Atom  24H    basis set group =>   2
Atom  25H    basis set group =>   2
Atom  26C    basis set group =>   1
Atom  27H    basis set group =>   2
Atom  28H    basis set group =>   2
Atom  29C    basis set group =>   1
Atom  30H    basis set group =>   2
Atom  31H    basis set group =>   2
Atom  32C    basis set group =>   1
Atom  33H    basis set group =>   2
Atom  34C    basis set group =>   1
Atom  35H    basis set group =>   2
Atom  36H    basis set group =>   2
Atom  37C    basis set group =>   1
Atom  38H    basis set group =>   2
Atom  39H    basis set group =>   2
Atom  40C    basis set group =>   1
Atom  41H    basis set group =>   2
Atom  42H    basis set group =>   2
Atom  43C    basis set group =>   1
Atom  44H    basis set group =>   2
Atom  45H    basis set group =>   2
Atom  46H    basis set group =>   2
Atom  47H    basis set group =>   2
----------------------------------
AUXILIARY/JK BASIS SET INFORMATION
----------------------------------
There are 2 groups of distinct atoms

 Group   1 Type C   : 17s13p12d2f contracted to 17s13p12d2f pattern {11111111111111111/1111111111111/111111111111/11}
 Group   2 Type H   : 15s6p1d contracted to 15s6p1d pattern {111111111111111/111111/1}

Atom   0C    basis set group =>   1
Atom   1C    basis set group =>   1
Atom   2C    basis set group =>   1
Atom   3C    basis set group =>   1
Atom   4C    basis set group =>   1
Atom   5C    basis set group =>   1
Atom   6C    basis set group =>   1
Atom   7C    basis set group =>   1
Atom   8C    basis set group =>   1
Atom   9H    basis set group =>   2
Atom  10H    basis set group =>   2
Atom  11C    basis set group =>   1
Atom  12H    basis set group =>   2
Atom  13H    basis set group =>   2
Atom  14C    basis set group =>   1
Atom  15H    basis set group =>   2
Atom  16H    basis set group =>   2
Atom  17C    basis set group =>   1
Atom  18H    basis set group =>   2
Atom  19H    basis set group =>   2
Atom  20C    basis set group =>   1
Atom  21H    basis set group =>   2
Atom  22H    basis set group =>   2
Atom  23C    basis set group =>   1
Atom  24H    basis set group =>   2
Atom  25H    basis set group =>   2
Atom  26C    basis set group =>   1
Atom  27H    basis set group =>   2
Atom  28H    basis set group =>   2
Atom  29C    basis set group =>   1
Atom  30H    basis set group =>   2
Atom  31H    basis set group =>   2
Atom  32C    basis set group =>   1
Atom  33H    basis set group =>   2
Atom  34C    basis set group =>   1
Atom  35H    basis set group =>   2
Atom  36H    basis set group =>   2
Atom  37C    basis set group =>   1
Atom  38H    basis set group =>   2
Atom  39H    basis set group =>   2
Atom  40C    basis set group =>   1
Atom  41H    basis set group =>   2
Atom  42H    basis set group =>   2
Atom  43C    basis set group =>   1
Atom  44H    basis set group =>   2
Atom  45H    basis set group =>   2
Atom  46H    basis set group =>   2
Atom  47H    basis set group =>   2

Checking for AutoStart:
The File: EPRII_i.gbw exists
Trying to determine its content:
     ... Fine, the file contains calculation information
     ... Fine, the calculation information was read
     ... Fine, the file contains a basis set
     ... Fine, the basis set was read
     ... Fine, the file contains a geometry
     ... Fine, the geometry was read
     ... Fine, the file contains a set of orbitals
     ... Fine, the orbitals can be read
     => possible old guess file was deleted
     => GBW file was renamed to GES file
     => GES file is set as startup file
     => Guess is set to MORead
     ... now leaving AutoStart



           ************************************************************
           *        Program running with 16 parallel MPI-processes    *
           *              working on a common directory               *
           ************************************************************
------------------------------------------------------------------------------
                           ORCA GTO INTEGRAL CALCULATION
                           -- RI-GTO INTEGRALS CHOSEN --
------------------------------------------------------------------------------
------------------------------------------------------------------------------
                   ___                                                        
                  /   \      - P O W E R E D   B Y -                         
                 /     \                                                     
                 |  |  |   _    _      __       _____    __    __             
                 |  |  |  | |  | |    /  \     |  _  \  |  |  /  |          
                  \  \/   | |  | |   /    \    | | | |  |  | /  /          
                 / \  \   | |__| |  /  /\  \   | |_| |  |  |/  /          
                |  |  |   |  __  | /  /__\  \  |    /   |      \           
                |  |  |   | |  | | |   __   |  |    \   |  |\   \          
                \     /   | |  | | |  |  |  |  | |\  \  |  | \   \       
                 \___/    |_|  |_| |__|  |__|  |_| \__\ |__|  \__/        
                                                                              
                      - O R C A' S   B I G   F R I E N D -                    
                                      &                                       
                       - I N T E G R A L  F E E D E R -                       
                                                                              
 v1 FN, 2020, v2 2021                                                         
------------------------------------------------------------------------------


Reading SHARK input file EPRII_i.SHARKINP.tmp ... ok
----------------------
SHARK INTEGRAL PACKAGE
----------------------

Number of atoms                             ...     48
Number of basis functions                   ...    546
Number of shells                            ...    324
Maximum angular momentum                    ...      2
Integral batch strategy                     ... SHARK/LIBINT Hybrid
RI-J (if used) integral strategy            ... SPLIT-RIJ (Revised 2003 algorithm where possible)
Printlevel                                  ...      1
Contraction scheme used                     ... SEGMENTED contraction
Coulomb Range Separation                    ... NOT USED
Exchange Range Separation                   ... NOT USED
Finite Nucleus Model                        ... NOT USED
Auxiliary Coulomb fitting basis             ... AVAILABLE
   # of basis functions in Aux-J            ...   3756
   # of shells in Aux-J                     ...   1518
   Maximum angular momentum in Aux-J        ...      3
Auxiliary J/K fitting basis                 ... AVAILABLE
   # of basis functions in Aux-JK           ...   3756
   # of shells in Aux-JK                    ...   1518
   Maximum angular momentum in Aux-JK       ...      3
Auxiliary Correlation fitting basis         ... AVAILABLE
   # of basis functions in Aux-C            ...   3756
   # of shells in Aux-C                     ...   1518
   Maximum angular momentum in Aux-C        ...      3
Auxiliary 'external' fitting basis          ... NOT available
Integral threshold                          ...     1.000000e-10
Primitive cut-off                           ...     1.000000e-11
Primitive pair pre-selection threshold      ...     1.000000e-11

Calculating pre-screening integrals         ... done (  0.0 sec) Dimension = 324
Organizing shell pair data                  ... done (  0.2 sec)
Shell pair information
Total number of shell pairs                 ...     52650
Shell pairs after pre-screening             ...     26054
Total number of primitive shell pairs       ...    138492
Primitive shell pairs kept                  ...     48833
          la=0 lb=0:  12152 shell pairs
          la=1 lb=0:   8975 shell pairs
          la=1 lb=1:   1557 shell pairs
          la=2 lb=0:   2361 shell pairs
          la=2 lb=1:    874 shell pairs
          la=2 lb=2:    135 shell pairs

Calculating one electron integrals          ... done (  0.0 sec)
Calculating RI/J V-Matrix + Cholesky decomp.... done (  0.8 sec)
Calculating RI/JK V-Matrix + Cholesky decomp... done (  0.8 sec)
Calculating RI/C V-Matrix + Cholesky decomp.... done (  0.8 sec)
Calculating Nuclear repulsion               ... done (  0.0 sec) ENN=   1435.919752417401 Eh

SHARK setup successfully completed in   3.0 seconds

Maximum memory used throughout the entire GTOINT-calculation: 52.4 MB


           ************************************************************
           *        Program running with 16 parallel MPI-processes    *
           *              working on a common directory               *
           ************************************************************
-------------------------------------------------------------------------------
                                 ORCA SCF
-------------------------------------------------------------------------------

------------
SCF SETTINGS
------------
Hamiltonian:
 Density Functional     Method          .... DFT(GTOs)
 Exchange Functional    Exchange        .... B88
   X-Alpha parameter    XAlpha          ....  0.666667
   Becke's b parameter  XBeta           ....  0.004200
 Correlation Functional Correlation     .... LYP
 LDA part of GGA corr.  LDAOpt          .... VWN-5
 Gradients option       PostSCFGGA      .... off
 Hybrid DFT is turned on
   Fraction HF Exchange ScalHFX         ....  0.200000
   Scaling of DF-GGA-X  ScalDFX         ....  0.720000
   Scaling of DF-GGA-C  ScalDFC         ....  0.810000
   Scaling of DF-LDA-C  ScalLDAC        ....  1.000000
   Perturbative correction              ....  0.000000
   Density functional embedding theory  .... OFF
   NL short-range parameter             ....  4.800000
 RI-approximation to the Coulomb term is turned on
   Number of AuxJ basis functions       .... 3756
   RIJ-COSX (HFX calculated with COS-X)).... on


General Settings:
 Integral files         IntName         .... EPRII_i
 Hartree-Fock type      HFTyp           .... UHF
 Total Charge           Charge          ....    0
 Multiplicity           Mult            ....    2
 Number of Electrons    NEL             ....  153
 Basis Dimension        Dim             ....  546
 Nuclear Repulsion      ENuc            ....   1435.9197524174 Eh

Convergence Acceleration:
 DIIS                   CNVDIIS         .... on
   Start iteration      DIISMaxIt       ....    12
   Startup error        DIISStart       ....  0.200000
   # of expansion vecs  DIISMaxEq       ....     5
   Bias factor          DIISBfac        ....   1.050
   Max. coefficient     DIISMaxC        ....  10.000
 Trust-Rad. Augm. Hess. CNVTRAH         .... auto
   Auto Start mean grad. ratio tolernc. ....  1.125000
   Auto Start start iteration           ....     1
   Auto Start num. interpolation iter.  ....    10
   Max. Number of Micro iterations      ....    16
   Max. Number of Macro iterations      .... Maxiter - #DIIS iter
   Number of Davidson start vectors     ....     2
   Converg. threshold I  (grad. norm)   ....   5.000e-05
   Converg. threshold II (energy diff.) ....   1.000e-06
   Grad. Scal. Fac. for Micro threshold ....   0.100
   Minimum threshold for Micro iter.    ....   0.010
   NR start threshold (gradient norm)   ....   0.001
   Initial trust radius                 ....   0.400
   Minimum AH scaling param. (alpha)    ....   1.000
   Maximum AH scaling param. (alpha)    .... 1000.000
   Orbital update algorithm             .... Taylor
   White noise on init. David. guess    .... on
   Maximum white noise                  ....   0.010
   Quad. conv. algorithm                .... NR
 SOSCF                  CNVSOSCF        .... off
 Level Shifting         CNVShift        .... on
   Level shift para.    LevelShift      ....    0.2500
   Turn off err/grad.   ShiftErr        ....    0.0010
 Zerner damping         CNVZerner       .... off
 Static damping         CNVDamp         .... on
   Fraction old density DampFac         ....    0.7000
   Max. Damping (<1)    DampMax         ....    0.9800
   Min. Damping (>=0)   DampMin         ....    0.0000
   Turn off err/grad.   DampErr         ....    0.1000
 Fernandez-Rico         CNVRico         .... off

SCF Procedure:
 Maximum # iterations   MaxIter         ....   125
 SCF integral mode      SCFMode         .... Direct
   Integral package                     .... SHARK and LIBINT hybrid scheme
 Reset frequency        DirectResetFreq ....    20
 Integral Threshold     Thresh          ....  1.000e-10 Eh
 Primitive CutOff       TCut            ....  1.000e-11 Eh

Convergence Tolerance:
 Convergence Check Mode ConvCheckMode   .... Total+1el-Energy
 Convergence forced     ConvForced      .... 0
 Energy Change          TolE            ....  1.000e-06 Eh
 1-El. energy change                    ....  1.000e-03 Eh
 DIIS Error             TolErr          ....  1.000e-06


Diagonalization of the overlap matrix:
Smallest eigenvalue                        ... 1.378e-04
Time for diagonalization                   ...    0.055 sec
Threshold for overlap eigenvalues          ... 1.000e-08
Number of eigenvalues below threshold      ... 0
Time for construction of square roots      ...    0.055 sec
Total time needed                          ...    0.112 sec

---------------------
INITIAL GUESS: MOREAD
---------------------
Guess MOs are being read from file: EPRII_i.ges
Input geometry compatible with but different from current geometry
Input basis set matches current basis set (good)
MOs were renormalized
MOs were reorthogonalized (Cholesky)
                      ------------------
                      INITIAL GUESS DONE (   0.2 sec)
                      ------------------
-------------------
DFT GRID GENERATION
-------------------

General Integration Accuracy     IntAcc      ... 4.388
Radial Grid Type                 RadialGrid  ... OptM3 with GC (2021)
Angular Grid (max. ang.)         AngularGrid ... 4 (Lebedev-302)
Angular grid pruning method      GridPruning ... 4 (adaptive)
Weight generation scheme         WeightScheme... Becke
Basis function cutoff            BFCut       ... 1.0000e-10
Integration weight cutoff        WCut        ... 1.0000e-14
Angular grids for H and He will be reduced by one unit
Partially contracted basis set               ... off
Rotationally invariant grid construction     ... off

Total number of grid points                  ...   211645
Total number of batches                      ...     3331
Average number of points per batch           ...       63
Average number of grid points per atom       ...     4409
Time for grid setup =    1.186 sec

--------------------
COSX GRID GENERATION
--------------------

GRIDX 1
-------
General Integration Accuracy     IntAcc      ... 3.816
Radial Grid Type                 RadialGrid  ... OptM3 with GC (2021)
Angular Grid (max. ang.)         AngularGrid ... 1 (Lebedev-50)
Angular grid pruning method      GridPruning ... 4 (adaptive)
Weight generation scheme         WeightScheme... Becke
Basis function cutoff            BFCut       ... 1.0000e-10
Integration weight cutoff        WCut        ... 1.0000e-14
Angular grids for H and He will be reduced by one unit
Partially contracted basis set               ... on
Rotationally invariant grid construction     ... off

Total number of grid points                  ...    27006
Total number of batches                      ...      448
Average number of points per batch           ...       60
Average number of grid points per atom       ...      563
UseSFitting                                  ... on

GRIDX 2
-------
General Integration Accuracy     IntAcc      ... 4.020
Radial Grid Type                 RadialGrid  ... OptM3 with GC (2021)
Angular Grid (max. ang.)         AngularGrid ... 2 (Lebedev-110)
Angular grid pruning method      GridPruning ... 4 (adaptive)
Weight generation scheme         WeightScheme... Becke
Basis function cutoff            BFCut       ... 1.0000e-10
Integration weight cutoff        WCut        ... 1.0000e-14
Angular grids for H and He will be reduced by one unit
Partially contracted basis set               ... on
Rotationally invariant grid construction     ... off

Total number of grid points                  ...    56995
Total number of batches                      ...      916
Average number of points per batch           ...       62
Average number of grid points per atom       ...     1187
UseSFitting                                  ... on

GRIDX 3
-------
General Integration Accuracy     IntAcc      ... 4.338
Radial Grid Type                 RadialGrid  ... OptM3 with GC (2021)
Angular Grid (max. ang.)         AngularGrid ... 3 (Lebedev-194)
Angular grid pruning method      GridPruning ... 4 (adaptive)
Weight generation scheme         WeightScheme... Becke
Basis function cutoff            BFCut       ... 1.0000e-10
Integration weight cutoff        WCut        ... 1.0000e-14
Angular grids for H and He will be reduced by one unit
Partially contracted basis set               ... on
Rotationally invariant grid construction     ... off

Total number of grid points                  ...   124354
Total number of batches                      ...     1967
Average number of points per batch           ...       63
Average number of grid points per atom       ...     2591
UseSFitting                                  ... on

Time for X-Grid setup             =    2.055 sec

--------------
SCF ITERATIONS
--------------
ITER       Energy         Delta-E        Max-DP      RMS-DP      [F,P]     Damp
               ***  Starting incremental Fock matrix formation  ***
  0   -815.8808509386   0.000000000000 0.00257621  0.00003812  0.0043451 0.7000
  1   -815.8812505679  -0.000399629318 0.00257249  0.00003274  0.0033348 0.7000
                               ***Turning on DIIS***
  2   -815.8815526464  -0.000302078471 0.00679239  0.00008085  0.0025061 0.0000
  3   -815.8822956234  -0.000742976983 0.00132107  0.00001410  0.0007061 0.0000
               *** Restarting incremental Fock matrix formation ***
                                   *** Resetting DIIS ***
  4   -815.8822989527  -0.000003329294 0.00098537  0.00001266  0.0004176 0.0000
  5   -815.8822945337   0.000004418969 0.00051151  0.00000673  0.0004925 0.0000
  6   -815.8823079356  -0.000013401920 0.00020852  0.00000160  0.0001601 0.0000
  7   -815.8823078083   0.000000127361 0.00011779  0.00000099  0.0001841 0.0000
                 **** Energy Check signals convergence ****

               *****************************************************
               *                     SUCCESS                       *
               *           SCF CONVERGED AFTER   8 CYCLES          *
               *****************************************************

Old exchange energy                            =    -23.647339856 Eh
New exchange energy                            =    -23.647316795 Eh
Exchange energy change after final integration =      0.000023062 Eh
Total energy after final integration           =   -815.882285215 Eh
Final COS-X integration done in                =     8.499 sec

----------------
TOTAL SCF ENERGY
----------------

Total Energy       :         -815.88228521 Eh          -22201.28567 eV

Components:
Nuclear Repulsion  :         1435.91975242 Eh           39073.36291 eV
Electronic Energy  :        -2251.80203763 Eh          -61274.64859 eV
One Electron Energy:        -3950.50898470 Eh         -107498.81461 eV
Two Electron Energy:         1698.70694707 Eh           46224.16602 eV
Max COSX asymmetry :            0.00000307 Eh               0.00008 eV

Virial components:
Potential Energy   :        -1625.28773628 Eh          -44226.32773 eV
Kinetic Energy     :          809.40545106 Eh           22025.04205 eV
Virial Ratio       :            2.00800197


DFT components:
N(Alpha)           :       77.000106856272 electrons
N(Beta)            :       76.000087204270 electrons
N(Total)           :      153.000194060542 electrons
E(X)               :      -93.761335753691 Eh       
E(C)               :       -5.899561526542 Eh       
E(XC)              :      -99.660897280232 Eh       
DFET-embed. en.    :        0.000000000000 Eh       

---------------
SCF CONVERGENCE
---------------

  Last Energy change         ...   -4.6799e-07  Tolerance :   1.0000e-06
  Last MAX-Density change    ...    0.0000e+00  Tolerance :   1.0000e-05
  Last RMS-Density change    ...    0.0000e+00  Tolerance :   1.0000e-06
  Last DIIS Error            ...    1.5529e-05  Tolerance :   1.0000e-06

             **** THE GBW FILE WAS UPDATED (EPRII_i.gbw) ****
             **** DENSITY EPRII_i.scfp WAS UPDATED ****
             **** ENERGY FILE WAS UPDATED (EPRII_i.en.tmp) ****
----------------------
UHF SPIN CONTAMINATION
----------------------

Warning: in a DFT calculation there is little theoretical justification to 
         calculate <S**2> as in Hartree-Fock theory. We will do it anyways
         but you should keep in mind that the values have only limited relevance

Expectation value of <S**2>     :     0.753990
Ideal value S*(S+1) for S=0.5   :     0.750000
Deviation                       :     0.003990

             **** THE GBW FILE WAS UPDATED (EPRII_i.gbw) ****
             **** DENSITY EPRII_i.scfp WAS UPDATED ****
----------------
ORBITAL ENERGIES
----------------
                 SPIN UP ORBITALS
  NO   OCC          E(Eh)            E(eV) 
   0   1.0000     -10.224077      -278.2113 
   1   1.0000     -10.224072      -278.2111 
   2   1.0000     -10.212254      -277.8896 
   3   1.0000     -10.212168      -277.8872 
   4   1.0000     -10.207184      -277.7516 
   5   1.0000     -10.206969      -277.7458 
   6   1.0000     -10.200073      -277.5581 
   7   1.0000     -10.200007      -277.5563 
   8   1.0000     -10.198213      -277.5075 
   9   1.0000     -10.198027      -277.5024 
  10   1.0000     -10.187651      -277.2201 
  11   1.0000     -10.187196      -277.2077 
  12   1.0000     -10.185835      -277.1707 
  13   1.0000     -10.183959      -277.1196 
  14   1.0000     -10.182627      -277.0834 
  15   1.0000     -10.181501      -277.0527 
  16   1.0000     -10.181081      -277.0413 
  17   1.0000     -10.181015      -277.0395 
  18   1.0000     -10.178704      -276.9766 
  19   1.0000     -10.170929      -276.7650 
  20   1.0000     -10.169327      -276.7214 
  21   1.0000      -0.873025       -23.7562 
  22   1.0000      -0.817156       -22.2360 
  23   1.0000      -0.802623       -21.8405 
  24   1.0000      -0.793713       -21.5980 
  25   1.0000      -0.782606       -21.2958 
  26   1.0000      -0.760825       -20.7031 
  27   1.0000      -0.752592       -20.4791 
  28   1.0000      -0.730647       -19.8819 
  29   1.0000      -0.721204       -19.6250 
  30   1.0000      -0.705200       -19.1895 
  31   1.0000      -0.673802       -18.3351 
  32   1.0000      -0.643043       -17.4981 
  33   1.0000      -0.637539       -17.3483 
  34   1.0000      -0.612109       -16.6563 
  35   1.0000      -0.590664       -16.0728 
  36   1.0000      -0.580026       -15.7833 
  37   1.0000      -0.565704       -15.3936 
  38   1.0000      -0.563314       -15.3285 
  39   1.0000      -0.544534       -14.8175 
  40   1.0000      -0.527232       -14.3467 
  41   1.0000      -0.499686       -13.5971 
  42   1.0000      -0.485282       -13.2052 
  43   1.0000      -0.475099       -12.9281 
  44   1.0000      -0.471882       -12.8406 
  45   1.0000      -0.470693       -12.8082 
  46   1.0000      -0.455688       -12.3999 
  47   1.0000      -0.432821       -11.7777 
  48   1.0000      -0.428002       -11.6465 
  49   1.0000      -0.426771       -11.6130 
  50   1.0000      -0.421975       -11.4825 
  51   1.0000      -0.415691       -11.3115 
  52   1.0000      -0.409556       -11.1446 
  53   1.0000      -0.406101       -11.0506 
  54   1.0000      -0.387883       -10.5548 
  55   1.0000      -0.384647       -10.4668 
  56   1.0000      -0.381690       -10.3863 
  57   1.0000      -0.371491       -10.1088 
  58   1.0000      -0.363757        -9.8983 
  59   1.0000      -0.356622        -9.7042 
  60   1.0000      -0.355682        -9.6786 
  61   1.0000      -0.351450        -9.5634 
  62   1.0000      -0.337180        -9.1751 
  63   1.0000      -0.335725        -9.1355 
  64   1.0000      -0.329223        -8.9586 
  65   1.0000      -0.328030        -8.9261 
  66   1.0000      -0.327441        -8.9101 
  67   1.0000      -0.324382        -8.8269 
  68   1.0000      -0.322601        -8.7784 
  69   1.0000      -0.321320        -8.7436 
  70   1.0000      -0.312153        -8.4941 
  71   1.0000      -0.280144        -7.6231 
  72   1.0000      -0.277259        -7.5446 
  73   1.0000      -0.276147        -7.5143 
  74   1.0000      -0.246702        -6.7131 
  75   1.0000      -0.220493        -5.9999 
  76   1.0000      -0.180879        -4.9220 
  77   0.0000      -0.053864        -1.4657 
  78   0.0000      -0.006204        -0.1688 
  79   0.0000       0.018880         0.5137 
  80   0.0000       0.022212         0.6044 
  81   0.0000       0.024818         0.6753 
  82   0.0000       0.028081         0.7641 
  83   0.0000       0.032883         0.8948 
  84   0.0000       0.036723         0.9993 
  85   0.0000       0.037870         1.0305 
  86   0.0000       0.041502         1.1293 
  87   0.0000       0.042555         1.1580 
  88   0.0000       0.045046         1.2258 
  89   0.0000       0.045686         1.2432 
  90   0.0000       0.053854         1.4654 
  91   0.0000       0.058734         1.5982 
  92   0.0000       0.073373         1.9966 
  93   0.0000       0.080599         2.1932 
  94   0.0000       0.090947         2.4748 
  95   0.0000       0.096151         2.6164 
  96   0.0000       0.104354         2.8396 
  97   0.0000       0.108061         2.9405 
  98   0.0000       0.114111         3.1051 
  99   0.0000       0.126616         3.4454 
 100   0.0000       0.146574         3.9885 
 101   0.0000       0.150731         4.1016 
 102   0.0000       0.154953         4.2165 
 103   0.0000       0.156783         4.2663 
 104   0.0000       0.159203         4.3321 
 105   0.0000       0.165545         4.5047 
 106   0.0000       0.178445         4.8557 
 107   0.0000       0.179245         4.8775 
 108   0.0000       0.186124         5.0647 
 109   0.0000       0.189040         5.1440 
 110   0.0000       0.192134         5.2282 
 111   0.0000       0.192862         5.2480 
 112   0.0000       0.199753         5.4356 
 113   0.0000       0.200055         5.4438 
 114   0.0000       0.202439         5.5086 
 115   0.0000       0.204638         5.5685 
 116   0.0000       0.211530         5.7560 
 117   0.0000       0.215820         5.8728 
 118   0.0000       0.218517         5.9461 
 119   0.0000       0.219222         5.9653 
 120   0.0000       0.220397         5.9973 
 121   0.0000       0.227487         6.1902 
 122   0.0000       0.229436         6.2433 
 123   0.0000       0.239039         6.5046 
 124   0.0000       0.241818         6.5802 
 125   0.0000       0.245516         6.6808 
 126   0.0000       0.251159         6.8344 
 127   0.0000       0.255069         6.9408 
 128   0.0000       0.258128         7.0240 
 129   0.0000       0.260025         7.0756 
 130   0.0000       0.264496         7.1973 
 131   0.0000       0.272277         7.4090 
 132   0.0000       0.277920         7.5626 
 133   0.0000       0.279083         7.5942 
 134   0.0000       0.280013         7.6195 
 135   0.0000       0.284555         7.7431 
 136   0.0000       0.291009         7.9187 
 137   0.0000       0.292931         7.9711 
 138   0.0000       0.295192         8.0326 
 139   0.0000       0.298731         8.1289 
 140   0.0000       0.300106         8.1663 
 141   0.0000       0.303901         8.2696 
 142   0.0000       0.309775         8.4294 
 143   0.0000       0.312980         8.5166 
 144   0.0000       0.315453         8.5839 
 145   0.0000       0.316309         8.6072 
 146   0.0000       0.318504         8.6669 
 147   0.0000       0.322685         8.7807 
 148   0.0000       0.327138         8.9019 
 149   0.0000       0.328218         8.9313 
 150   0.0000       0.335817         9.1380 
 151   0.0000       0.338403         9.2084 
 152   0.0000       0.345234         9.3943 
 153   0.0000       0.348495         9.4830 
 154   0.0000       0.349256         9.5037 
 155   0.0000       0.351192         9.5564 
 156   0.0000       0.363465         9.8904 
 157   0.0000       0.368648        10.0314 
 158   0.0000       0.371116        10.0986 
 159   0.0000       0.371551        10.1104 
 160   0.0000       0.375249        10.2111 
 161   0.0000       0.381690        10.3863 
 162   0.0000       0.389926        10.6104 
 163   0.0000       0.396738        10.7958 
 164   0.0000       0.399882        10.8813 
 165   0.0000       0.405118        11.0238 
 166   0.0000       0.408247        11.1090 
 167   0.0000       0.414557        11.2807 
 168   0.0000       0.418782        11.3956 
 169   0.0000       0.420248        11.4355 
 170   0.0000       0.424737        11.5577 
 171   0.0000       0.430267        11.7082 
 172   0.0000       0.441679        12.0187 
 173   0.0000       0.443823        12.0770 
 174   0.0000       0.445619        12.1259 
 175   0.0000       0.456888        12.4325 
 176   0.0000       0.458113        12.4659 
 177   0.0000       0.459191        12.4952 
 178   0.0000       0.464859        12.6494 
 179   0.0000       0.468562        12.7502 
 180   0.0000       0.475176        12.9302 
 181   0.0000       0.480226        13.0676 
 182   0.0000       0.499705        13.5977 
 183   0.0000       0.502064        13.6618 
 184   0.0000       0.506984        13.7957 
 185   0.0000       0.512424        13.9438 
 186   0.0000       0.516380        14.0514 
 187   0.0000       0.532363        14.4863 
 188   0.0000       0.536280        14.5929 
 189   0.0000       0.539507        14.6807 
 190   0.0000       0.542250        14.7554 
 191   0.0000       0.546681        14.8759 
 192   0.0000       0.555759        15.1230 
 193   0.0000       0.562598        15.3091 
 194   0.0000       0.571083        15.5400 
 195   0.0000       0.577310        15.7094 
 196   0.0000       0.582537        15.8516 
 197   0.0000       0.585392        15.9293 
 198   0.0000       0.588775        16.0214 
 199   0.0000       0.598155        16.2766 
 200   0.0000       0.606051        16.4915 
 201   0.0000       0.613057        16.6821 
 202   0.0000       0.627368        17.0716 
 203   0.0000       0.637300        17.3418 
 204   0.0000       0.654461        17.8088 
 205   0.0000       0.661925        18.0119 
 206   0.0000       0.673674        18.3316 
 207   0.0000       0.685229        18.6460 
 208   0.0000       0.713909        19.4264 
 209   0.0000       0.733640        19.9634 
 210   0.0000       0.767540        20.8858 
 211   0.0000       0.775110        21.0918 
 212   0.0000       0.779546        21.2125 
 213   0.0000       0.796903        21.6848 
 214   0.0000       0.799297        21.7500 
 215   0.0000       0.821050        22.3419 
 216   0.0000       0.831303        22.6209 
 217   0.0000       0.835193        22.7267 
 218   0.0000       0.840105        22.8604 
 219   0.0000       0.849454        23.1148 
 220   0.0000       0.851447        23.1691 
 221   0.0000       0.854584        23.2544 
 222   0.0000       0.859032        23.3754 
 223   0.0000       0.863670        23.5017 
 224   0.0000       0.873940        23.7811 
 225   0.0000       0.877909        23.8891 
 226   0.0000       0.885071        24.0840 
 227   0.0000       0.887353        24.1461 
 228   0.0000       0.897503        24.4223 
 229   0.0000       0.904555        24.6142 
 230   0.0000       0.909250        24.7419 
 231   0.0000       0.915627        24.9155 
 232   0.0000       0.920876        25.0583 
 233   0.0000       0.921024        25.0623 
 234   0.0000       0.925868        25.1942 
 235   0.0000       0.927259        25.2320 
 236   0.0000       0.938420        25.5357 
 237   0.0000       0.947092        25.7717 
 238   0.0000       0.949450        25.8358 
 239   0.0000       0.957748        26.0616 
 240   0.0000       0.959694        26.1146 
 241   0.0000       0.967831        26.3360 
 242   0.0000       0.973490        26.4900 
 243   0.0000       0.983596        26.7650 
 244   0.0000       0.985967        26.8295 
 245   0.0000       0.990814        26.9614 
 246   0.0000       0.991184        26.9715 
 247   0.0000       0.996567        27.1180 
 248   0.0000       1.006923        27.3998 
 249   0.0000       1.009478        27.4693 
 250   0.0000       1.015464        27.6322 
 251   0.0000       1.030208        28.0334 
 252   0.0000       1.031863        28.0784 
 253   0.0000       1.034190        28.1417 
 254   0.0000       1.037604        28.2346 
 255   0.0000       1.040379        28.3102 
 256   0.0000       1.049823        28.5671 
 257   0.0000       1.054249        28.6876 
 258   0.0000       1.058408        28.8007 
 259   0.0000       1.081747        29.4358 
 260   0.0000       1.085288        29.5322 
 261   0.0000       1.091830        29.7102 
 262   0.0000       1.106316        30.1044 
 263   0.0000       1.108165        30.1547 
 264   0.0000       1.116112        30.3710 
 265   0.0000       1.119680        30.4680 
 266   0.0000       1.132377        30.8135 
 267   0.0000       1.139972        31.0202 
 268   0.0000       1.143207        31.1082 
 269   0.0000       1.152109        31.3505 
 270   0.0000       1.152998        31.3747 
 271   0.0000       1.169217        31.8160 
 272   0.0000       1.177907        32.0525 
 273   0.0000       1.185547        32.2604 
 274   0.0000       1.189004        32.3544 
 275   0.0000       1.196454        32.5572 
 276   0.0000       1.200114        32.6568 
 277   0.0000       1.203292        32.7432 
 278   0.0000       1.216613        33.1057 
 279   0.0000       1.224054        33.3082 
 280   0.0000       1.231542        33.5120 
 281   0.0000       1.233769        33.5725 
 282   0.0000       1.238737        33.7077 
 283   0.0000       1.244122        33.8543 
 284   0.0000       1.253001        34.0959 
 285   0.0000       1.255143        34.1542 
 286   0.0000       1.259462        34.2717 
 287   0.0000       1.279800        34.8251 
 288   0.0000       1.293434        35.1961 
 289   0.0000       1.294394        35.2222 
 290   0.0000       1.303145        35.4604 
 291   0.0000       1.304942        35.5093 
 292   0.0000       1.315649        35.8006 
 293   0.0000       1.336611        36.3710 
 294   0.0000       1.342178        36.5225 
 295   0.0000       1.351345        36.7720 
 296   0.0000       1.366833        37.1934 
 297   0.0000       1.372257        37.3410 
 298   0.0000       1.382766        37.6270 
 299   0.0000       1.387265        37.7494 
 300   0.0000       1.394935        37.9581 
 301   0.0000       1.400158        38.1002 
 302   0.0000       1.410242        38.3746 
 303   0.0000       1.413445        38.4618 
 304   0.0000       1.430493        38.9257 
 305   0.0000       1.434656        39.0390 
 306   0.0000       1.438711        39.1493 
 307   0.0000       1.443327        39.2749 
 308   0.0000       1.449132        39.4329 
 309   0.0000       1.457139        39.6508 
 310   0.0000       1.463586        39.8262 
 311   0.0000       1.487732        40.4833 
 312   0.0000       1.497198        40.7408 
 313   0.0000       1.500164        40.8215 
 314   0.0000       1.516482        41.2656 
 315   0.0000       1.518115        41.3100 
 316   0.0000       1.522453        41.4281 
 317   0.0000       1.523449        41.4552 
 318   0.0000       1.532884        41.7119 
 319   0.0000       1.538466        41.8638 
 320   0.0000       1.545016        42.0420 
 321   0.0000       1.556569        42.3564 
 322   0.0000       1.559142        42.4264 
 323   0.0000       1.561605        42.4934 
 324   0.0000       1.579241        42.9733 
 325   0.0000       1.588236        43.2181 
 326   0.0000       1.591975        43.3198 
 327   0.0000       1.598904        43.5084 
 328   0.0000       1.600320        43.5469 
 329   0.0000       1.604960        43.6732 
 330   0.0000       1.609388        43.7937 
 331   0.0000       1.611866        43.8611 
 332   0.0000       1.614415        43.9305 
 333   0.0000       1.626682        44.2643 
 334   0.0000       1.628914        44.3250 
 335   0.0000       1.644573        44.7511 
 336   0.0000       1.650957        44.9248 
 337   0.0000       1.655243        45.0414 
 338   0.0000       1.674210        45.5576 
 339   0.0000       1.678505        45.6744 
 340   0.0000       1.683419        45.8082 
 341   0.0000       1.686099        45.8811 
 342   0.0000       1.694274        46.1035 
 343   0.0000       1.694940        46.1217 
 344   0.0000       1.708273        46.4845 
 345   0.0000       1.710265        46.5387 
 346   0.0000       1.724175        46.9172 
 347   0.0000       1.726683        46.9854 
 348   0.0000       1.735363        47.2216 
 349   0.0000       1.744092        47.4592 
 350   0.0000       1.746049        47.5124 
 351   0.0000       1.758032        47.8385 
 352   0.0000       1.760031        47.8929 
 353   0.0000       1.763361        47.9835 
 354   0.0000       1.778651        48.3996 
 355   0.0000       1.780806        48.4582 
 356   0.0000       1.785675        48.5907 
 357   0.0000       1.793878        48.8139 
 358   0.0000       1.797854        48.9221 
 359   0.0000       1.804829        49.1119 
 360   0.0000       1.811650        49.2975 
 361   0.0000       1.814284        49.3692 
 362   0.0000       1.818063        49.4720 
 363   0.0000       1.843633        50.1678 
 364   0.0000       1.856256        50.5113 
 365   0.0000       1.862006        50.6678 
 366   0.0000       1.885312        51.3019 
 367   0.0000       1.898797        51.6689 
 368   0.0000       1.904004        51.8106 
 369   0.0000       1.917912        52.1890 
 370   0.0000       1.920506        52.2596 
 371   0.0000       1.926182        52.4141 
 372   0.0000       1.938361        52.7455 
 373   0.0000       1.942316        52.8531 
 374   0.0000       1.951972        53.1159 
 375   0.0000       1.973567        53.7035 
 376   0.0000       1.988613        54.1129 
 377   0.0000       2.004345        54.5410 
 378   0.0000       2.026556        55.1454 
 379   0.0000       2.040809        55.5332 
 380   0.0000       2.052732        55.8577 
 381   0.0000       2.068963        56.2993 
 382   0.0000       2.073083        56.4115 
 383   0.0000       2.092372        56.9363 
 384   0.0000       2.112489        57.4838 
 385   0.0000       2.116932        57.6046 
 386   0.0000       2.127202        57.8841 
 387   0.0000       2.153005        58.5862 
 388   0.0000       2.156425        58.6793 
 389   0.0000       2.164483        58.8986 
 390   0.0000       2.169660        59.0395 
 391   0.0000       2.183504        59.4162 
 392   0.0000       2.197838        59.8062 
 393   0.0000       2.205728        60.0209 
 394   0.0000       2.214836        60.2688 
 395   0.0000       2.226365        60.5825 
 396   0.0000       2.252727        61.2998 
 397   0.0000       2.256224        61.3950 
 398   0.0000       2.261642        61.5424 
 399   0.0000       2.263405        61.5904 
 400   0.0000       2.270994        61.7969 
 401   0.0000       2.287111        62.2354 
 402   0.0000       2.305718        62.7418 
 403   0.0000       2.307677        62.7951 
 404   0.0000       2.316946        63.0473 
 405   0.0000       2.319674        63.1215 
 406   0.0000       2.322215        63.1907 
 407   0.0000       2.333687        63.5029 
 408   0.0000       2.335984        63.5654 
 409   0.0000       2.347355        63.8748 
 410   0.0000       2.356622        64.1269 
 411   0.0000       2.360790        64.2404 
 412   0.0000       2.388424        64.9923 
 413   0.0000       2.409977        65.5788 
 414   0.0000       2.417284        65.7776 
 415   0.0000       2.425782        66.0089 
 416   0.0000       2.433345        66.2147 
 417   0.0000       2.437316        66.3227 
 418   0.0000       2.446503        66.5727 
 419   0.0000       2.462342        67.0037 
 420   0.0000       2.465730        67.0959 
 421   0.0000       2.481874        67.5352 
 422   0.0000       2.487787        67.6961 
 423   0.0000       2.493068        67.8398 
 424   0.0000       2.499949        68.0271 
 425   0.0000       2.508385        68.2566 
 426   0.0000       2.525209        68.7144 
 427   0.0000       2.531470        68.8848 
 428   0.0000       2.533671        68.9447 
 429   0.0000       2.550430        69.4007 
 430   0.0000       2.560726        69.6809 
 431   0.0000       2.569991        69.9330 
 432   0.0000       2.571719        69.9800 
 433   0.0000       2.576540        70.1112 
 434   0.0000       2.588052        70.4245 
 435   0.0000       2.595661        70.6315 
 436   0.0000       2.613471        71.1161 
 437   0.0000       2.619559        71.2818 
 438   0.0000       2.626862        71.4805 
 439   0.0000       2.640406        71.8491 
 440   0.0000       2.702511        73.5391 
 441   0.0000       2.731453        74.3266 
 442   0.0000       2.765352        75.2490 
 443   0.0000       2.784390        75.7671 
 444   0.0000       2.811929        76.5165 
 445   0.0000       2.861095        77.8544 
 446   0.0000       2.939446        79.9864 
 447   0.0000       2.960968        80.5720 
 448   0.0000       2.964999        80.6817 
 449   0.0000       3.264133        88.8216 
 450   0.0000       4.989475       135.7705 
 451   0.0000       4.991409       135.8231 
 452   0.0000       5.000684       136.0755 
 453   0.0000       5.008988       136.3015 
 454   0.0000       5.015075       136.4671 
 455   0.0000       5.015831       136.4877 
 456   0.0000       5.019570       136.5894 
 457   0.0000       5.024248       136.7167 
 458   0.0000       5.034519       136.9962 
 459   0.0000       5.039460       137.1307 
 460   0.0000       5.043375       137.2372 
 461   0.0000       5.051971       137.4711 
 462   0.0000       5.054534       137.5409 
 463   0.0000       5.140028       139.8673 
 464   0.0000       5.185548       141.1059 
 465   0.0000       5.223342       142.1344 
 466   0.0000       5.234848       142.4474 
 467   0.0000       5.264375       143.2509 
 468   0.0000       5.270433       143.4158 
 469   0.0000       5.278443       143.6337 
 470   0.0000       5.291832       143.9981 
 471   0.0000       5.307939       144.4364 
 472   0.0000       5.312760       144.5675 
 473   0.0000       5.314902       144.6258 
 474   0.0000       5.336164       145.2044 
 475   0.0000       5.346822       145.4944 
 476   0.0000       5.373072       146.2087 
 477   0.0000       5.383243       146.4855 
 478   0.0000       5.398302       146.8953 
 479   0.0000       5.399646       146.9318 
 480   0.0000       5.431422       147.7965 
 481   0.0000       5.447579       148.2362 
 482   0.0000       5.505241       149.8052 
 483   0.0000       5.561098       151.3252 
 484   0.0000       5.595477       152.2607 
 485   0.0000       5.609343       152.6380 
 486   0.0000       5.632712       153.2739 
 487   0.0000       5.653206       153.8316 
 488   0.0000       5.713255       155.4656 
 489   0.0000       5.729823       155.9164 
 490   0.0000       5.764173       156.8511 
 491   0.0000       5.807459       158.0290 
 492   0.0000       5.833173       158.7287 
 493   0.0000       5.861478       159.4989 
 494   0.0000       5.891100       160.3050 
 495   0.0000       6.018624       163.7751 
 496   0.0000       6.255585       170.2231 
 497   0.0000       6.363962       173.1722 
 498   0.0000      29.612963       805.8097 
 499   0.0000      29.709952       808.4489 
 500   0.0000      29.818675       811.4074 
 501   0.0000      29.852635       812.3315 
 502   0.0000      29.857560       812.4655 
 503   0.0000      29.922818       814.2413 
 504   0.0000      29.985805       815.9552 
 505   0.0000      30.036601       817.3375 
 506   0.0000      30.052112       817.7595 
 507   0.0000      30.092280       818.8526 
 508   0.0000      30.097480       818.9941 
 509   0.0000      30.131261       819.9133 
 510   0.0000      30.158076       820.6430 
 511   0.0000      30.196327       821.6838 
 512   0.0000      30.205389       821.9304 
 513   0.0000      30.246951       823.0614 
 514   0.0000      30.274342       823.8067 
 515   0.0000      30.300666       824.5231 
 516   0.0000      30.338700       825.5580 
 517   0.0000      30.463002       828.9404 
 518   0.0000      30.586445       832.2995 
 519   0.0000      36.615877       996.3687 
 520   0.0000      36.618205       996.4320 
 521   0.0000      36.629680       996.7443 
 522   0.0000      36.633140       996.8384 
 523   0.0000      36.639347       997.0073 
 524   0.0000      36.641230       997.0586 
 525   0.0000      36.647676       997.2339 
 526   0.0000      36.653788       997.4003 
 527   0.0000      36.664663       997.6962 
 528   0.0000      36.665187       997.7105 
 529   0.0000      36.675938       998.0030 
 530   0.0000      36.679338       998.0955 
 531   0.0000      36.775523      1000.7129 
 532   0.0000      36.829686      1002.1867 
 533   0.0000      36.848455      1002.6974 
 534   0.0000      36.856728      1002.9225 
 535   0.0000      36.867775      1003.2232 
 536   0.0000      36.874060      1003.3942 
 537   0.0000      36.879033      1003.5295 
 538   0.0000      36.886789      1003.7406 
 539   0.0000      36.889692      1003.8195 
 540   0.0000      36.933425      1005.0096 
 541   0.0000      36.939338      1005.1705 
 542   0.0000      36.948683      1005.4248 
 543   0.0000      36.950648      1005.4782 
 544   0.0000      37.002071      1006.8775 
 545   0.0000      37.029188      1007.6154 

                 SPIN DOWN ORBITALS
  NO   OCC          E(Eh)            E(eV) 
   0   1.0000     -10.224078      -278.2113 
   1   1.0000     -10.224067      -278.2110 
   2   1.0000     -10.212263      -277.8898 
   3   1.0000     -10.212163      -277.8871 
   4   1.0000     -10.207185      -277.7516 
   5   1.0000     -10.206969      -277.7457 
   6   1.0000     -10.200067      -277.5579 
   7   1.0000     -10.200010      -277.5564 
   8   1.0000     -10.198212      -277.5075 
   9   1.0000     -10.198028      -277.5025 
  10   1.0000     -10.187640      -277.2198 
  11   1.0000     -10.187197      -277.2077 
  12   1.0000     -10.184832      -277.1434 
  13   1.0000     -10.182390      -277.0769 
  14   1.0000     -10.181947      -277.0649 
  15   1.0000     -10.181501      -277.0527 
  16   1.0000     -10.181015      -277.0395 
  17   1.0000     -10.178467      -276.9702 
  18   1.0000     -10.172082      -276.7964 
  19   1.0000     -10.170929      -276.7650 
  20   1.0000     -10.169321      -276.7213 
  21   1.0000      -0.873013       -23.7559 
  22   1.0000      -0.816403       -22.2154 
  23   1.0000      -0.796364       -21.6702 
  24   1.0000      -0.793536       -21.5932 
  25   1.0000      -0.780868       -21.2485 
  26   1.0000      -0.759753       -20.6739 
  27   1.0000      -0.752276       -20.4705 
  28   1.0000      -0.726440       -19.7674 
  29   1.0000      -0.721088       -19.6218 
  30   1.0000      -0.701780       -19.0964 
  31   1.0000      -0.673033       -18.3142 
  32   1.0000      -0.642520       -17.4839 
  33   1.0000      -0.636819       -17.3287 
  34   1.0000      -0.609942       -16.5974 
  35   1.0000      -0.589341       -16.0368 
  36   1.0000      -0.578987       -15.7550 
  37   1.0000      -0.565290       -15.3823 
  38   1.0000      -0.548241       -14.9184 
  39   1.0000      -0.544234       -14.8093 
  40   1.0000      -0.526655       -14.3310 
  41   1.0000      -0.499350       -13.5880 
  42   1.0000      -0.485258       -13.2045 
  43   1.0000      -0.474931       -12.9235 
  44   1.0000      -0.471049       -12.8179 
  45   1.0000      -0.467069       -12.7096 
  46   1.0000      -0.453285       -12.3345 
  47   1.0000      -0.432000       -11.7553 
  48   1.0000      -0.426371       -11.6022 
  49   1.0000      -0.424666       -11.5558 
  50   1.0000      -0.421694       -11.4749 
  51   1.0000      -0.415406       -11.3038 
  52   1.0000      -0.405391       -11.0313 
  53   1.0000      -0.402656       -10.9568 
  54   1.0000      -0.386232       -10.5099 
  55   1.0000      -0.382060       -10.3964 
  56   1.0000      -0.379485       -10.3263 
  57   1.0000      -0.370341       -10.0775 
  58   1.0000      -0.362280        -9.8581 
  59   1.0000      -0.355183        -9.6650 
  60   1.0000      -0.354591        -9.6489 
  61   1.0000      -0.350466        -9.5367 
  62   1.0000      -0.335560        -9.1310 
  63   1.0000      -0.334594        -9.1048 
  64   1.0000      -0.327953        -8.9241 
  65   1.0000      -0.327411        -8.9093 
  66   1.0000      -0.325914        -8.8686 
  67   1.0000      -0.322971        -8.7885 
  68   1.0000      -0.322433        -8.7738 
  69   1.0000      -0.320888        -8.7318 
  70   1.0000      -0.309286        -8.4161 
  71   1.0000      -0.280136        -7.6229 
  72   1.0000      -0.277258        -7.5446 
  73   1.0000      -0.276135        -7.5140 
  74   1.0000      -0.246645        -6.7115 
  75   1.0000      -0.220460        -5.9990 
  76   0.0000      -0.053875        -1.4660 
  77   0.0000      -0.037430        -1.0185 
  78   0.0000      -0.006073        -0.1653 
  79   0.0000       0.019006         0.5172 
  80   0.0000       0.022415         0.6099 
  81   0.0000       0.025300         0.6884 
  82   0.0000       0.028265         0.7691 
  83   0.0000       0.033817         0.9202 
  84   0.0000       0.036739         0.9997 
  85   0.0000       0.038096         1.0367 
  86   0.0000       0.041639         1.1331 
  87   0.0000       0.042563         1.1582 
  88   0.0000       0.045333         1.2336 
  89   0.0000       0.045709         1.2438 
  90   0.0000       0.054160         1.4738 
  91   0.0000       0.059131         1.6090 
  92   0.0000       0.073438         1.9984 
  93   0.0000       0.080823         2.1993 
  94   0.0000       0.091477         2.4892 
  95   0.0000       0.096752         2.6327 
  96   0.0000       0.104371         2.8401 
  97   0.0000       0.108960         2.9650 
  98   0.0000       0.114313         3.1106 
  99   0.0000       0.127164         3.4603 
 100   0.0000       0.146810         3.9949 
 101   0.0000       0.151240         4.1154 
 102   0.0000       0.155290         4.2257 
 103   0.0000       0.156877         4.2688 
 104   0.0000       0.159631         4.3438 
 105   0.0000       0.166702         4.5362 
 106   0.0000       0.179160         4.8752 
 107   0.0000       0.181059         4.9269 
 108   0.0000       0.188272         5.1231 
 109   0.0000       0.190610         5.1868 
 110   0.0000       0.192850         5.2477 
 111   0.0000       0.194512         5.2930 
 112   0.0000       0.200032         5.4432 
 113   0.0000       0.201325         5.4783 
 114   0.0000       0.202939         5.5222 
 115   0.0000       0.205326         5.5872 
 116   0.0000       0.213237         5.8025 
 117   0.0000       0.216057         5.8792 
 118   0.0000       0.219085         5.9616 
 119   0.0000       0.219623         5.9762 
 120   0.0000       0.221967         6.0400 
 121   0.0000       0.227649         6.1947 
 122   0.0000       0.229745         6.2517 
 123   0.0000       0.239972         6.5300 
 124   0.0000       0.242286         6.5929 
 125   0.0000       0.246139         6.6978 
 126   0.0000       0.251849         6.8532 
 127   0.0000       0.255193         6.9442 
[...]
  Y           0.4089284           -0.5798714            0.7046465
  Z           0.8110876            0.5848291            0.0105711

Notes:  (1) The A matrix conforms to the "SAI" spin Hamiltonian convention.
        (2) Tensor is right-handed.

 -----------------------------------------------------------
 Nucleus  45H : A:ISTP=    1 I=  0.5 P=533.5514 MHz/au**3
                Q:ISTP=    2 I=  1.0 Q=  0.0029 barn     
 -----------------------------------------------------------
 Solving for nuclear perturbation:
Forming RHS of the CP-SCF equations         ... 
Calc. nucleus orbit integrals (SHARK)       ... done

------------------------------------------------------------------------------
                           ORCA CP-SCF CALCULATION
------------------------------------------------------------------------------

Input orbitals are from        ... EPRII_i.gbw
Input Perturbation             ... EPRII_i.pin.tmp
Wavefunction output            ... EPRII_i.pout.tmp
Perturbation mode              ... Imaginary perturbation
Solver                         ... POPLE
Max. number of iterations      ... 64
Convergence tolerance          ... 1.000e-03
Integral handling              ... Direct
DFT GridXC                     ... 1
COSX GridX                     ... 1
COSX IntAccX                   ... 3.067
COSX Algorithm                 ... Auto
Number of perturbations        ... 3
Number of operators            ... 2
Orbital ranges used for CP-SCF:
 Operator 0:  Orbitals   0... 76  to  77...545
 Operator 1:  Orbitals   0... 75  to  76...545
Variables per perturbation     ... 71833
DFT calculation                         ... on
XC functional terms                     ... off
Hybrid DFT                              ... on
   Exchange mixing (SCF)                ...  0.200
   Exchange mixing (CP-SCF)             ...  0.200
   GGA exch. scaling(SCF)               ...  0.720
   GGA exch. scaling (CP-SCF)           ...  0.720
   GGA corr. scaling (SCF)              ...  0.810
   GGA corr. scaling (CP-SCF)           ...  0.810

CP-SCF GRID
-----------

General Integration Accuracy     IntAcc      ... 3.467
Radial Grid Type                 RadialGrid  ... OptM3 with GC (2021)
Angular Grid (max. ang.)         AngularGrid ... 1 (Lebedev-50)
Angular grid pruning method      GridPruning ... 4 (adaptive)
Weight generation scheme         WeightScheme... Becke
Basis function cutoff            BFCut       ... 1.0000e-10
Integration weight cutoff        WCut        ... 1.0000e-14
Angular grids for H and He will be reduced by one unit
Partially contracted basis set               ... off
Rotationally invariant grid construction     ... off

Total number of grid points                  ...    29777
Total number of batches                      ...      487
Average number of points per batch           ...       61
Average number of grid points per atom       ...      620

CP-SCF GRIDX
------------

General Integration Accuracy     IntAcc      ... 3.067
Radial Grid Type                 RadialGrid  ... OptM3 with GC (2021)
Angular Grid (max. ang.)         AngularGrid ... 1 (Lebedev-50)
Angular grid pruning method      GridPruning ... 4 (adaptive)
Weight generation scheme         WeightScheme... Becke
Basis function cutoff            BFCut       ... 1.0000e-10
Integration weight cutoff        WCut        ... 1.0000e-14
Angular grids for H and He will be reduced by one unit
Partially contracted basis set               ... on
Rotationally invariant grid construction     ... off

Total number of grid points                  ...    14108
Total number of batches                      ...      250
Average number of points per batch           ...       56
Average number of grid points per atom       ...      294

Memory available               ... 864.4 MB
Memory needed per perturbation ...  17.4 MB
Perturbations treated per batch... 3
Number of batches              ... 1
     CP-SCF ITERATION   0:   1.0397e-01 (   2.1 sec   0/  3 done)
     CP-SCF ITERATION   1:   1.7647e-03 (   1.8 sec   1/  3 done)
     CP-SCF ITERATION   2:   1.5205e-04 (   1.5 sec   3/  3 done)
                    *** THE CP-SCF HAS CONVERGED ***

Forming final perturbed densities           ... done
Transforming perturbed density to AO basis  ... done

 Raw HFC matrix (all values in MHz): 
 -----------------------------------
                -0.0395              -0.2295               0.0104
                -0.2295               0.1925              -0.0195
                 0.0105              -0.0195              -0.1803

 A(FC)          -0.0092              -0.0092              -0.0092
 A(SD)          -0.1705              -0.1732               0.3437
 A(ORB+DIA)      0.0000               0.0000               0.0001    A(PC) =   0.0000
 A(ORB)         -0.0000              -0.0000               0.0001    A(PC) =   0.0000
 A(DIA)          0.0000               0.0000               0.0000    A(PC) =   0.0000
             ----------           ----------           ----------
 A(Tot)         -0.1796              -0.1823               0.3346    A(iso)=   -0.0091
 Orientation: 
  X          -0.6827135            0.5100309           -0.5232311
  Y          -0.3885459            0.3530433            0.8511125
  Z           0.6188169            0.7843653           -0.0428570

Notes:  (1) The A matrix conforms to the "SAI" spin Hamiltonian convention.
        (2) Tensor is right-handed.

 -----------------------------------------------------------
 Nucleus  46H : A:ISTP=    1 I=  0.5 P=533.5514 MHz/au**3
                Q:ISTP=    2 I=  1.0 Q=  0.0029 barn     
 -----------------------------------------------------------
 Solving for nuclear perturbation:
Forming RHS of the CP-SCF equations         ... 
Calc. nucleus orbit integrals (SHARK)       ... done

------------------------------------------------------------------------------
                           ORCA CP-SCF CALCULATION
------------------------------------------------------------------------------

Input orbitals are from        ... EPRII_i.gbw
Input Perturbation             ... EPRII_i.pin.tmp
Wavefunction output            ... EPRII_i.pout.tmp
Perturbation mode              ... Imaginary perturbation
Solver                         ... POPLE
Max. number of iterations      ... 64
Convergence tolerance          ... 1.000e-03
Integral handling              ... Direct
DFT GridXC                     ... 1
COSX GridX                     ... 1
COSX IntAccX                   ... 3.067
COSX Algorithm                 ... Auto
Number of perturbations        ... 3
Number of operators            ... 2
Orbital ranges used for CP-SCF:
 Operator 0:  Orbitals   0... 76  to  77...545
 Operator 1:  Orbitals   0... 75  to  76...545
Variables per perturbation     ... 71833
DFT calculation                         ... on
XC functional terms                     ... off
Hybrid DFT                              ... on
   Exchange mixing (SCF)                ...  0.200
   Exchange mixing (CP-SCF)             ...  0.200
   GGA exch. scaling(SCF)               ...  0.720
   GGA exch. scaling (CP-SCF)           ...  0.720
   GGA corr. scaling (SCF)              ...  0.810
   GGA corr. scaling (CP-SCF)           ...  0.810

CP-SCF GRID
-----------

General Integration Accuracy     IntAcc      ... 3.467
Radial Grid Type                 RadialGrid  ... OptM3 with GC (2021)
Angular Grid (max. ang.)         AngularGrid ... 1 (Lebedev-50)
Angular grid pruning method      GridPruning ... 4 (adaptive)
Weight generation scheme         WeightScheme... Becke
Basis function cutoff            BFCut       ... 1.0000e-10
Integration weight cutoff        WCut        ... 1.0000e-14
Angular grids for H and He will be reduced by one unit
Partially contracted basis set               ... off
Rotationally invariant grid construction     ... off

Total number of grid points                  ...    29777
Total number of batches                      ...      487
Average number of points per batch           ...       61
Average number of grid points per atom       ...      620

CP-SCF GRIDX
------------

General Integration Accuracy     IntAcc      ... 3.067
Radial Grid Type                 RadialGrid  ... OptM3 with GC (2021)
Angular Grid (max. ang.)         AngularGrid ... 1 (Lebedev-50)
Angular grid pruning method      GridPruning ... 4 (adaptive)
Weight generation scheme         WeightScheme... Becke
Basis function cutoff            BFCut       ... 1.0000e-10
Integration weight cutoff        WCut        ... 1.0000e-14
Angular grids for H and He will be reduced by one unit
Partially contracted basis set               ... on
Rotationally invariant grid construction     ... off

Total number of grid points                  ...    14108
Total number of batches                      ...      250
Average number of points per batch           ...       56
Average number of grid points per atom       ...      294

Memory available               ... 863.8 MB
Memory needed per perturbation ...  17.4 MB
Perturbations treated per batch... 3
Number of batches              ... 1
     CP-SCF ITERATION   0:   3.7302e-02 (   1.8 sec   0/  3 done)
     CP-SCF ITERATION   1:   6.2185e-04 (   1.9 sec   3/  3 done)
                    *** THE CP-SCF HAS CONVERGED ***

Forming final perturbed densities           ... done
Transforming perturbed density to AO basis  ... done

 Raw HFC matrix (all values in MHz): 
 -----------------------------------
                -0.0260               0.0174              -0.0006
                 0.0174               0.0557              -0.0023
                -0.0006              -0.0023              -0.0295

 A(FC)           0.0000               0.0000               0.0000
 A(SD)          -0.0295              -0.0298               0.0593
 A(ORB+DIA)      0.0000               0.0000               0.0000    A(PC) =   0.0000
 A(ORB)          0.0000              -0.0000               0.0000    A(PC) =   0.0000
 A(DIA)          0.0000               0.0000               0.0000    A(PC) =   0.0000
             ----------           ----------           ----------
 A(Tot)         -0.0295              -0.0297               0.0593    A(iso)=    0.0000
 Orientation: 
  X           0.6859207            0.6995981           -0.2001880
  Y          -0.1599213           -0.1234520           -0.9793798
  Z          -0.7098859            0.7037912            0.0272024

Notes:  (1) The A matrix conforms to the "SAI" spin Hamiltonian convention.
        (2) Tensor is right-handed.

 -----------------------------------------------------------
 Nucleus  47H : A:ISTP=    1 I=  0.5 P=533.5514 MHz/au**3
                Q:ISTP=    2 I=  1.0 Q=  0.0029 barn     
 -----------------------------------------------------------
 Solving for nuclear perturbation:
Forming RHS of the CP-SCF equations         ... 
Calc. nucleus orbit integrals (SHARK)       ... done

------------------------------------------------------------------------------
                           ORCA CP-SCF CALCULATION
------------------------------------------------------------------------------

Input orbitals are from        ... EPRII_i.gbw
Input Perturbation             ... EPRII_i.pin.tmp
Wavefunction output            ... EPRII_i.pout.tmp
Perturbation mode              ... Imaginary perturbation
Solver                         ... POPLE
Max. number of iterations      ... 64
Convergence tolerance          ... 1.000e-03
Integral handling              ... Direct
DFT GridXC                     ... 1
COSX GridX                     ... 1
COSX IntAccX                   ... 3.067
COSX Algorithm                 ... Auto
Number of perturbations        ... 3
Number of operators            ... 2
Orbital ranges used for CP-SCF:
 Operator 0:  Orbitals   0... 76  to  77...545
 Operator 1:  Orbitals   0... 75  to  76...545
Variables per perturbation     ... 71833
DFT calculation                         ... on
XC functional terms                     ... off
Hybrid DFT                              ... on
   Exchange mixing (SCF)                ...  0.200
   Exchange mixing (CP-SCF)             ...  0.200
   GGA exch. scaling(SCF)               ...  0.720
   GGA exch. scaling (CP-SCF)           ...  0.720
   GGA corr. scaling (SCF)              ...  0.810
   GGA corr. scaling (CP-SCF)           ...  0.810

CP-SCF GRID
-----------

General Integration Accuracy     IntAcc      ... 3.467
Radial Grid Type                 RadialGrid  ... OptM3 with GC (2021)
Angular Grid (max. ang.)         AngularGrid ... 1 (Lebedev-50)
Angular grid pruning method      GridPruning ... 4 (adaptive)
Weight generation scheme         WeightScheme... Becke
Basis function cutoff            BFCut       ... 1.0000e-10
Integration weight cutoff        WCut        ... 1.0000e-14
Angular grids for H and He will be reduced by one unit
Partially contracted basis set               ... off
Rotationally invariant grid construction     ... off

Total number of grid points                  ...    29777
Total number of batches                      ...      487
Average number of points per batch           ...       61
Average number of grid points per atom       ...      620

CP-SCF GRIDX
------------

General Integration Accuracy     IntAcc      ... 3.067
Radial Grid Type                 RadialGrid  ... OptM3 with GC (2021)
Angular Grid (max. ang.)         AngularGrid ... 1 (Lebedev-50)
Angular grid pruning method      GridPruning ... 4 (adaptive)
Weight generation scheme         WeightScheme... Becke
Basis function cutoff            BFCut       ... 1.0000e-10
Integration weight cutoff        WCut        ... 1.0000e-14
Angular grids for H and He will be reduced by one unit
Partially contracted basis set               ... on
Rotationally invariant grid construction     ... off

Total number of grid points                  ...    14108
Total number of batches                      ...      250
Average number of points per batch           ...       56
Average number of grid points per atom       ...      294

Memory available               ... 863.2 MB
Memory needed per perturbation ...  17.4 MB
Perturbations treated per batch... 3
Number of batches              ... 1
     CP-SCF ITERATION   0:   3.6988e-02 (   1.8 sec   0/  3 done)
     CP-SCF ITERATION   1:   5.2575e-04 (   1.8 sec   3/  3 done)
                    *** THE CP-SCF HAS CONVERGED ***

Forming final perturbed densities           ... done
Transforming perturbed density to AO basis  ... done

 Raw HFC matrix (all values in MHz): 
 -----------------------------------
                -0.9606              -0.1972              -0.1337
                -0.1971               1.0107               0.4279
                -0.1337               0.4278              -0.9802

 A(FC)          -0.3101              -0.3101              -0.3101
 A(SD)          -0.6158               1.4316              -0.8158
 A(ORB+DIA)     -0.0001               0.0006              -0.0002    A(PC) =   0.0001
 A(ORB)         -0.0000               0.0004              -0.0002    A(PC) =   0.0001
 A(DIA)         -0.0001               0.0001              -0.0000    A(PC) =  -0.0000
             ----------           ----------           ----------
 A(Tot)         -0.9260               1.1221              -1.1262    A(iso)=   -0.3100
 Orientation: 
  X          -0.8383114            0.1052112            0.5349435
  Y          -0.1976055           -0.9731200           -0.1182775
  Z           0.5081201           -0.2048612            0.8365679

Notes:  (1) The A matrix conforms to the "SAI" spin Hamiltonian convention.
        (2) Tensor is right-handed.


--------------------------------------------------------------------------------
----------------------------------------------------------------------------
                           ORCA EULER ANGLE PROGRAM
----------------------------------------------------------------------------

Only g-tensor available        -->  using g-tensor as reference tensor

Reference tensor               ...  g

g-tensor ordering              ...  |g_min> --> |gx>
                                    |g_mid> --> |gy>
                                    |g_max> --> |gz>

A- and EFG-tensor ordering     ...  the axes |Ax>, |Qx>, |Ay>, etc. are assigned
                                    such that the Euler rotation is minimal. You
                                    can find the respective eigenvalues as Ax,
                                    EFGx, Ay, etc. in the tables below.
                                    The relation of |Ax>, |Ay>,  etc. to Amin, Amid, etc.
                                    (as printed in the ORCA EPR/NMR CALCULATION Output)
                                    is obtained in the detailed printout.

Euler rotation around          ...  z - y - z
   First rotation              -->  by alpha around z
   Second rotation             -->  by beta around y'
   Third rotation              -->  by gamma around z''
   Positive / Negative angle   -->  clockwise / counterclockwise rotation

Plot EFG-tensors                    (-)
Plot HFC-tensors                    (-)
Detailed Printout                   (-)

-------------------------------------------------------------------------
          Euler rotation of hyperfine tensor to g-tensor
-------------------------------------------------------------------------

-------------------------------------------------------------------
 Atom  |   Alpha    Beta    Gamma   |   Ax       Ay       Az 
       |          [degrees]         |           [MHz]         
-------------------------------------------------------------------
  9H      150.0     36.5   -163.1      -0.12     0.27    -0.11
 10H     -162.8     35.6    152.1      -0.75     1.34    -0.72
 12H     -165.1     16.7    157.5      -0.06     0.22    -0.06
 13H       -2.2     34.9    -16.8      -0.06     0.22    -0.06
 15H       16.9     35.2    -19.0      -0.07     0.14    -0.07
 16H       18.8     41.9    -28.9      -0.07     0.14    -0.07
 18H        5.1     28.0    -21.3      -0.05     0.09    -0.05
 19H        0.2     24.6     -8.8      -0.05     0.09    -0.05
 21H       24.6     32.0    -35.0      -0.04     0.07    -0.04
 22H       21.1     30.5    -24.5      -0.04     0.07    -0.04
 24H       97.9     37.4   -116.9      -0.42     2.69    -0.40
 25H       52.2     32.2    -42.8       0.08     3.05    -0.44
 27H     -136.3     11.2    143.0      -4.39     3.79    -4.59
 28H        5.2     40.7    -30.7      -4.45     4.56    -5.84
 30H     -108.3     24.0     66.9      41.15    41.93    55.30
 31H      -90.2     44.0    123.5     126.08   123.94   137.22
 33H       57.6     19.1    -56.6     -59.83   -97.12   -20.57
 35H      -45.7     25.3     18.0     126.63   137.76   124.52
 36H     -125.0     44.6    145.1      41.77    55.89    42.57
 38H       93.1     39.4   -103.4      -4.38     3.73    -4.57
 39H       47.2     35.9    -13.0      -4.48     4.50    -5.84
 41H      -22.3     13.5     34.9      -0.25     2.74    -0.26
 42H       17.7     25.3    -21.3       0.14     2.98    -0.33
 44H      -59.1     30.6     35.5      -0.11     0.24    -0.11
 45H      -61.5     42.2     94.2      -0.18    -0.18     0.33
 46H       14.4     28.4    -24.1      -0.03     0.06    -0.03
 47H       30.5     39.8    -16.7      -0.93     1.12    -1.13
-------------------------------------------------------------------


Maximum memory used throughout the entire EPRNMR-calculation: 246.2 MB

Timings for individual modules:

Sum of individual times         ...     4633.195 sec (=  77.220 min)
GTO integral calculation        ...        5.281 sec (=   0.088 min)   0.1 %
Spin-Orbit-Coupling Matrices    ...       12.715 sec (=   0.212 min)   0.3 %
SCF iterations                  ...       72.438 sec (=   1.207 min)   1.6 %
EPR/NMR calculation             ...     4542.760 sec (=  75.713 min)  98.0 %
                             ****ORCA TERMINATED NORMALLY****
TOTAL RUN TIME: 0 days 1 hours 17 minutes 17 seconds 672 msec
