
                                 *****************
                                 * O   R   C   A *
                                 *****************

                                            #,                                       
                                            ###                                      
                                            ####                                     
                                            #####                                    
                                            ######                                   
                                           ########,                                 
                                     ,,################,,,,,                         
                               ,,#################################,,                 
                          ,,##########################################,,             
                       ,#########################################, ''#####,          
                    ,#############################################,,   '####,        
                  ,##################################################,,,,####,       
                ,###########''''           ''''###############################       
              ,#####''   ,,,,##########,,,,          '''####'''          '####       
            ,##' ,,,,###########################,,,                        '##       
           ' ,,###''''                  '''############,,,                           
         ,,##''                                '''############,,,,        ,,,,,,###''
      ,#''                                            '''#######################'''  
     '                                                          ''''####''''         
             ,#######,   #######,   ,#######,      ##                                
            ,#'     '#,  ##    ##  ,#'     '#,    #''#        ######   ,####,        
            ##       ##  ##   ,#'  ##            #'  '#       #        #'  '#        
            ##       ##  #######   ##           ,######,      #####,   #    #        
            '#,     ,#'  ##    ##  '#,     ,#' ,#      #,         ##   #,  ,#        
             '#######'   ##     ##  '#######'  #'      '#     #####' # '####'        



                  #######################################################
                  #                        -***-                        #
                  #          Department of theory and spectroscopy      #
                  #    Directorship and core code : Frank Neese         #
                  #        Max Planck Institute fuer Kohlenforschung    #
                  #                Kaiser Wilhelm Platz 1               #
                  #                 D-45470 Muelheim/Ruhr               #
                  #                      Germany                        #
                  #                                                     #
                  #                  All rights reserved                #
                  #                        -***-                        #
                  #######################################################


                         Program Version 5.0.4 -  RELEASE  -


 With contributions from (in alphabetic order):
   Daniel Aravena         : Magnetic Suceptibility
   Michael Atanasov       : Ab Initio Ligand Field Theory (pilot matlab implementation)
   Alexander A. Auer      : GIAO ZORA, VPT2 properties, NMR spectrum
   Ute Becker             : Parallelization
   Giovanni Bistoni       : ED, misc. LED, open-shell LED, HFLD
   Martin Brehm           : Molecular dynamics
   Dmytro Bykov           : SCF Hessian
   Vijay G. Chilkuri      : MRCI spin determinant printing, contributions to CSF-ICE
   Dipayan Datta          : RHF DLPNO-CCSD density
   Achintya Kumar Dutta   : EOM-CC, STEOM-CC
   Dmitry Ganyushin       : Spin-Orbit,Spin-Spin,Magnetic field MRCI
   Miquel Garcia          : C-PCM and meta-GGA Hessian, CC/C-PCM, Gaussian charge scheme
   Yang Guo               : DLPNO-NEVPT2, F12-NEVPT2, CIM, IAO-localization
   Andreas Hansen         : Spin unrestricted coupled pair/coupled cluster methods
   Benjamin Helmich-Paris : MC-RPA, TRAH-SCF, COSX integrals
   Lee Huntington         : MR-EOM, pCC
   Robert Izsak           : Overlap fitted RIJCOSX, COSX-SCS-MP3, EOM
   Marcus Kettner         : VPT2
   Christian Kollmar      : KDIIS, OOCD, Brueckner-CCSD(T), CCSD density, CASPT2, CASPT2-K
   Simone Kossmann        : Meta GGA functionals, TD-DFT gradient, OOMP2, MP2 Hessian
   Martin Krupicka        : Initial AUTO-CI
   Lucas Lang             : DCDCAS
   Marvin Lechner         : AUTO-CI (C++ implementation), FIC-MRCC
   Dagmar Lenk            : GEPOL surface, SMD
   Dimitrios Liakos       : Extrapolation schemes; Compound Job, initial MDCI parallelization
   Dimitrios Manganas     : Further ROCIS development; embedding schemes
   Dimitrios Pantazis     : SARC Basis sets
   Anastasios Papadopoulos: AUTO-CI, single reference methods and gradients
   Taras Petrenko         : DFT Hessian,TD-DFT gradient, ASA, ECA, R-Raman, ABS, FL, XAS/XES, NRVS
   Peter Pinski           : DLPNO-MP2, DLPNO-MP2 Gradient
   Christoph Reimann      : Effective Core Potentials
   Marius Retegan         : Local ZFS, SOC
   Christoph Riplinger    : Optimizer, TS searches, QM/MM, DLPNO-CCSD(T), (RO)-DLPNO pert. Triples
   Tobias Risthaus        : Range-separated hybrids, TD-DFT gradient, RPA, STAB
   Michael Roemelt        : Original ROCIS implementation
   Masaaki Saitow         : Open-shell DLPNO-CCSD energy and density
   Barbara Sandhoefer     : DKH picture change effects
   Avijit Sen             : IP-ROCIS
   Kantharuban Sivalingam : CASSCF convergence, NEVPT2, FIC-MRCI
   Bernardo de Souza      : ESD, SOC TD-DFT
   Georgi Stoychev        : AutoAux, RI-MP2 NMR, DLPNO-MP2 response
   Willem Van den Heuvel  : Paramagnetic NMR
   Boris Wezisla          : Elementary symmetry handling
   Frank Wennmohs         : Technical directorship


 We gratefully acknowledge several colleagues who have allowed us to
 interface, adapt or use parts of their codes:
   Stefan Grimme, W. Hujo, H. Kruse, P. Pracht,  : VdW corrections, initial TS optimization,
                  C. Bannwarth, S. Ehlert          DFT functionals, gCP, sTDA/sTD-DF
   Ed Valeev, F. Pavosevic, A. Kumar             : LibInt (2-el integral package), F12 methods
   Garnet Chan, S. Sharma, J. Yang, R. Olivares  : DMRG
   Ulf Ekstrom                                   : XCFun DFT Library
   Mihaly Kallay                                 : mrcc  (arbitrary order and MRCC methods)
   Jiri Pittner, Ondrej Demel                    : Mk-CCSD
   Frank Weinhold                                : gennbo (NPA and NBO analysis)
   Christopher J. Cramer and Donald G. Truhlar   : smd solvation model
   Lars Goerigk                                  : TD-DFT with DH, B97 family of functionals
   V. Asgeirsson, H. Jonsson                     : NEB implementation
   FAccTs GmbH                                   : IRC, NEB, NEB-TS, DLPNO-Multilevel, CI-OPT
                                                   MM, QMMM, 2- and 3-layer-ONIOM, Crystal-QMMM,
                                                   LR-CPCM, SF, NACMEs, symmetry and pop. for TD-DFT,
                                                   nearIR, NL-DFT gradient (VV10), updates on ESD,
                                                   ML-optimized integration grids
   S Lehtola, MJT Oliveira, MAL Marques          : LibXC Library
   Liviu Ungur et al                             : ANISO software


 Your calculation uses the libint2 library for the computation of 2-el integrals
 For citations please refer to: http://libint.valeyev.net

 Your ORCA version has been built with support for libXC version: 5.1.0
 For citations please refer to: https://tddft.org/programs/libxc/

 This ORCA versions uses:
   CBLAS   interface :  Fast vector & matrix operations
   LAPACKE interface :  Fast linear algebra routines
   SCALAPACK package :  Parallel linear algebra routines
   Shared memory     :  Shared parallel matrices
   BLAS/LAPACK       :  OpenBLAS 0.3.15  USE64BITINT DYNAMIC_ARCH NO_AFFINITY SkylakeX SINGLE_THREADED
        Core in use  :  SkylakeX
   Copyright (c) 2011-2014, The OpenBLAS Project




***************************************
The coordinates will be read from file: opt.xyz
***************************************


================================================================================

----- Orbital basis set information -----
Your calculation utilizes the basis: EPR-II
   V. Barone, in Recent Advances in Density Functional Methods, Part 1 (ed. D. P. Chong), World Scientific, Singapore, 1995, p. 287.

----- AuxJ basis set information -----
Your calculation utilizes the AutoAux generation procedure.
  G. L. Stoychev, A. A. Auer, F. Neese, J. Chem. Theory Comput. 13, 554 (2017)

----- AuxC basis set information -----
Your calculation utilizes the AutoAux generation procedure.
  G. L. Stoychev, A. A. Auer, F. Neese, J. Chem. Theory Comput. 13, 554 (2017)

----- AuxJK basis set information -----
Your calculation utilizes the AutoAux generation procedure.
  G. L. Stoychev, A. A. Auer, F. Neese, J. Chem. Theory Comput. 13, 554 (2017)

================================================================================
                                        WARNINGS
                       Please study these warnings very carefully!
================================================================================

WARNING: Old DensityContainer found on disk!
         Will remove this file - 
         If you want to keep old densities, please start your calculation with a different basename. 


WARNING: your system is open-shell and RHF/RKS was chosen
  ===> : WILL SWITCH to UHF/UKS


INFO   : the flag for use of the SHARK integral package has been found!

================================================================================
                                       INPUT FILE
================================================================================
NAME = EPRII.inp
|  1> ! B3LYP EPR-II AUTOAUX
|  2> %pal nprocs 16 end
|  3> *XYZFile 0 2 opt.xyz
|  4> %EPRNMR
|  5>         GTENSOR   TRUE
|  6>         NUCLEI    = ALL H {SHIFT, AISO, ADIP, AORB}
|  7>         ORI       CenterOfElCharge
|  8> END
|  9> 
| 10>                          ****END OF INPUT****
================================================================================

                       ****************************
                       * Single Point Calculation *
                       ****************************

---------------------------------
CARTESIAN COORDINATES (ANGSTROEM)
---------------------------------
  C     -3.990231    0.213841   -0.298689
  C     -2.777202    0.134401   -0.264168
  C      2.881118   -0.106320   -0.120939
  C     -1.347580    0.049789   -0.226693
  C     -0.698663   -1.210432   -0.168978
  C      0.696414   -1.210949   -0.136033
  C      1.451516   -0.021244   -0.158159
  C      0.802554    1.238942   -0.215585
  C     -0.592525    1.239697   -0.248218
  H      1.240484   -2.154117   -0.091566
  H     -1.136490    2.183031   -0.291658
  C     -1.520796   -2.484849   -0.145693
  H     -2.176647   -2.488350   -1.035776
  H     -2.218070   -2.430135    0.710536
  C     -0.747760   -3.804774   -0.083711
  H     -0.066510   -3.882053   -0.951169
  H     -0.105100   -3.822574    0.815836
  C     -1.671277   -5.028796   -0.062159
  H     -2.353766   -4.954482    0.804809
  H     -2.318821   -5.011894   -0.958437
  C     -0.911004   -6.356092   -0.003542
  H     -0.279819   -6.416782    0.899916
  H     -0.247977   -6.477180   -0.877607
  C      1.625960    2.512302   -0.238909
  H      2.288489    2.510214    0.646135
  H      2.316797    2.461154   -1.100696
  C      0.854747    3.833459   -0.287928
  H      0.209453    3.860975   -1.184672
  H      0.180476    3.912331    0.583195
  C      1.786297    5.054577   -0.308234
  H      2.452926    5.030614    0.576943
  H      2.476574    4.960570   -1.179156
  C      1.071033    6.365835   -0.362651
  H      0.095267    6.402624   -0.863681
  C      1.766851    7.657378   -0.078213
  H      2.447636    7.917283   -0.923106
  H      2.441558    7.532993    0.792881
  C      0.820543    8.841876    0.167056
  H      0.163439    8.964772   -0.713802
  H      0.153001    8.598335    1.013255
  C      1.555999   10.154269    0.446799
  H      2.197776   10.071072    1.341050
  H      2.205841   10.437943   -0.399281
  C      4.094180   -0.186871   -0.089942
  H     -5.059895    0.285441   -0.327738
  H      5.163803   -0.259276   -0.061371
  H     -1.600271   -7.215913    0.013460
  H      0.851264   10.984019    0.618926

----------------------------
CARTESIAN COORDINATES (A.U.)
----------------------------
  NO LB      ZA    FRAG     MASS         X           Y           Z
   0 C     6.0000    0    12.011   -7.540443    0.404102   -0.564441
   1 C     6.0000    0    12.011   -5.248151    0.253982   -0.499205
   2 C     6.0000    0    12.011    5.444523   -0.200916   -0.228541
   3 C     6.0000    0    12.011   -2.546557    0.094088   -0.428388
   4 C     6.0000    0    12.011   -1.320281   -2.287384   -0.319322
   5 C     6.0000    0    12.011    1.316032   -2.288362   -0.257066
   6 C     6.0000    0    12.011    2.742967   -0.040146   -0.298877
   7 C     6.0000    0    12.011    1.516606    2.341260   -0.407397
   8 C     6.0000    0    12.011   -1.119709    2.342688   -0.469065
   9 H     1.0000    0     1.008    2.344176   -4.070692   -0.173035
  10 H     1.0000    0     1.008   -2.147654    4.125332   -0.551153
  11 C     6.0000    0    12.011   -2.873887   -4.695684   -0.275319
  12 H     1.0000    0     1.008   -4.113266   -4.702301   -1.957333
  13 H     1.0000    0     1.008   -4.191546   -4.592290    1.342718
  14 C     6.0000    0    12.011   -1.413063   -7.189981   -0.158191
  15 H     1.0000    0     1.008   -0.125686   -7.336017   -1.797449
  16 H     1.0000    0     1.008   -0.198611   -7.223618    1.541707
  17 C     6.0000    0    12.011   -3.158256   -9.503046   -0.117464
  18 H     1.0000    0     1.008   -4.447973   -9.362614    1.520868
  19 H     1.0000    0     1.008   -4.381937   -9.471107   -1.811183
  20 C     6.0000    0    12.011   -1.721549  -12.011274   -0.006693
  21 H     1.0000    0     1.008   -0.528780  -12.125961    1.700595
  22 H     1.0000    0     1.008   -0.468608  -12.240097   -1.658438
  23 C     6.0000    0    12.011    3.072619    4.747563   -0.451472
  24 H     1.0000    0     1.008    4.324617    4.743617    1.221018
  25 H     1.0000    0     1.008    4.378111    4.650907   -2.080014
  26 C     6.0000    0    12.011    1.615237    7.244188   -0.544106
  27 H     1.0000    0     1.008    0.395809    7.296186   -2.238705
  28 H     1.0000    0     1.008    0.341050    7.393234    1.102078
  29 C     6.0000    0    12.011    3.375613    9.551766   -0.582477
  30 H     1.0000    0     1.008    4.635359    9.506484    1.090264
  31 H     1.0000    0     1.008    4.680046    9.374118   -2.228283
  32 C     6.0000    0    12.011    2.023959   12.029684   -0.685312
  33 H     1.0000    0     1.008    0.180029   12.099206   -1.632121
  34 C     6.0000    0    12.011    3.338865   14.470348   -0.147801
  35 H     1.0000    0     1.008    4.625361   14.961497   -1.744418
  36 H     1.0000    0     1.008    4.613877   14.235294    1.498328
  37 C     6.0000    0    12.011    1.550602   16.708724    0.315689
  38 H     1.0000    0     1.008    0.308854   16.940964   -1.348890
  39 H     1.0000    0     1.008    0.289130   16.248499    1.914775
  40 C     6.0000    0    12.011    2.940412   19.188787    0.844327
  41 H     1.0000    0     1.008    4.153195   19.031567    2.534216
  42 H     1.0000    0     1.008    4.168435   19.724854   -0.754532
  43 C     6.0000    0    12.011    7.736880   -0.353135   -0.169966
  44 H     1.0000    0     1.008   -9.561816    0.539405   -0.619335
  45 H     1.0000    0     1.008    9.758173   -0.489961   -0.115974
  46 H     1.0000    0     1.008   -3.024075  -13.636100    0.025435
  47 H     1.0000    0     1.008    1.608656   20.756787    1.169600

--------------------------------
INTERNAL COORDINATES (ANGSTROEM)
--------------------------------
 C      0   0   0     0.000000000000     0.00000000     0.00000000
 C      1   0   0     1.216117300565     0.00000000     0.00000000
 C      2   1   0     5.665248771760   178.67761451     0.00000000
 C      2   1   3     1.432613825907   179.61834457   348.16914013
 C      4   2   1     1.418654589576   120.66329900   197.73351178
 C      5   4   2     1.395465866938   117.29550747   179.95887674
 C      6   5   4     1.409278387283   122.34215469     0.00000000
 C      7   6   5     1.418632466811   120.36015666     0.00000000
 C      8   7   6     1.395459934866   117.30702135     0.00000000
 H      6   5   4     1.089750567201   120.02688666   180.00645413
 H      9   8   7     1.089800388089   120.02687508   179.94491344
 C      5   4   2     1.516767495352   119.93882327   359.96700702
 H     12   5   4     1.105622523053   108.16965870    56.29388234
 H     12   5   4     1.105582648123   108.18937256   303.69597780
 C     12   5   4     1.530891106325   116.83043287   179.97136075
 H     15  12   5     1.105693044963   109.85347588   301.66257700
 H     15  12   5     1.105673591743   109.89641577    58.16164100
 C     15  12   5     1.533484839186   112.62303170   179.90666597
 H     18  15  12     1.105869607301   109.21106582   302.19410671
 H     18  15  12     1.105853537794   109.21139386    57.50674665
 C     18  15  12     1.530740866611   113.17484615   179.86427273
 H     21  18  15     1.103773146214   111.28686982    59.72408227
 H     21  18  15     1.103747463839   111.29395931   299.99763367
 C      8   7   6     1.516571393193   119.87466156   179.99993926
 H     24   8   7     1.105554226519   108.14795404   304.21875343
 H     24   8   7     1.105689496596   108.20245639    56.80707413
 C     24   8   7     1.530565281228   116.85111328   180.55827679
 H     27  24   8     1.105128420309   109.98027970   301.48969527
 H     27  24   8     1.104408138057   110.12146284    58.39438627
 C     27  24   8     1.536010107097   112.39937940   180.00427198
 H     30  27  24     1.108379926733   109.69518902   303.12781338
 H     30  27  24     1.115269099821   108.58306519    56.70669984
 C     30  27  24     1.494644224834   114.06061672   179.72608076
 H     33  30  27     1.097498554175   118.13176450   330.19856581
 C     33  30  27     1.494374056272   121.90232074   165.79994611
 H     35  33  30     1.115733918676   109.95621207    72.46416976
 H     35  33  30     1.108831076602   109.62757730   318.15960031
 C     35  33  30     1.535803009478   114.20920583   194.69308218
 H     38  35  33     1.105802712550   108.94418458   302.64834308
 H     38  35  33     1.104979023347   108.93839463    57.84670394
 C     38  35  33     1.530204502947   113.23636774   180.38109264
 H     41  38  35     1.103849725868   111.27809064   300.15772310
 H     41  38  35     1.103909711919   111.29745378    59.83305319
 C      3   2   1     1.216129260056   178.63742761   187.23701788
 H      1   2   4     1.072451254423   179.88881240   298.38081564
 H     44   3   7     1.072451049778   179.90112472   313.93426540
 H     21  18  15     1.102120481651   111.49610538   179.85071443
 H     41  38  35     1.102162990591   111.52523936   180.02743401

---------------------------
INTERNAL COORDINATES (A.U.)
---------------------------
 C      0   0   0     0.000000000000     0.00000000     0.00000000
 C      1   0   0     2.298128644791     0.00000000     0.00000000
 C      2   1   0    10.705768659161   178.67761451     0.00000000
 C      2   1   3     2.707247786634   179.61834457   348.16914013
 C      4   2   1     2.680868652928   120.66329900   197.73351178
 C      5   4   2     2.637048317748   117.29550747   179.95887674
 C      6   5   4     2.663150198420   122.34215469     0.00000000
 C      7   6   5     2.680826846961   120.36015666     0.00000000
 C      8   7   6     2.637037107756   117.30702135     0.00000000
 H      6   5   4     2.059330126296   120.02688666   180.00645413
 H      9   8   7     2.059424274130   120.02687508   179.94491344
 C      5   4   2     2.866275175049   119.93882327   359.96700702
 H     12   5   4     2.089323776066   108.16965870    56.29388234
 H     12   5   4     2.089248423368   108.18937256   303.69597780
 C     12   5   4     2.892964931810   116.83043287   179.97136075
 H     15  12   5     2.089457043161   109.85347588   301.66257700
 H     15  12   5     2.089420281904   109.89641577    58.16164100
 C     15  12   5     2.897866376581   112.62303170   179.90666597
 H     18  15  12     2.089790697626   109.21106582   302.19410671
 H     18  15  12     2.089760330659   109.21139386    57.50674665
 C     18  15  12     2.892681019896   113.17484615   179.86427273
 H     21  18  15     2.085828960322   111.28686982    59.72408227
 H     21  18  15     2.085780427665   111.29395931   299.99763367
 C      8   7   6     2.865904595674   119.87466156   179.99993926
 H     24   8   7     2.089194714320   108.14795404   304.21875343
 H     24   8   7     2.089450337720   108.20245639    56.80707413
 C     24   8   7     2.892349211610   116.85111328   180.55827679
 H     27  24   8     2.088390057196   109.98027970   301.48969527
 H     27  24   8     2.087028921001   110.12146284    58.39438627
 C     27  24   8     2.902638441348   112.39937940   180.00427198
 H     30  27  24     2.094534513861   109.69518902   303.12781338
 H     30  27  24     2.107553164287   108.58306519    56.70669984
 C     30  27  24     2.824468252583   114.06061672   179.72608076
 H     33  30  27     2.073971699765   118.13176450   330.19856581
 C     33  30  27     2.823957707992   121.90232074   165.79994611
 H     35  33  30     2.108431544624   109.95621207    72.46416976
 H     35  33  30     2.095387063558   109.62757730   318.15960031
 C     35  33  30     2.902247083566   114.20920583   194.69308218
 H     38  35  33     2.089664284866   108.94418458   302.64834308
 H     38  35  33     2.088107737853   108.93839463    57.84670394
 C     38  35  33     2.891667439463   113.23636774   180.38109264
 H     41  38  35     2.085973674895   111.27809064   300.15772310
 H     41  38  35     2.086087032104   111.29745378    59.83305319
 C      3   2   1     2.298151244954   178.63742761   187.23701788
 H      1   2   4     2.026639162840   179.88881240   298.38081564
 H     44   3   7     2.026638776116   179.90112472   313.93426540
 H     21  18  15     2.082705876905   111.49610538   179.85071443
 H     41  38  35     2.082786207160   111.52523936   180.02743401

---------------------
BASIS SET INFORMATION
---------------------
There are 2 groups of distinct atoms

 Group   1 Type C   : 10s5p1d contracted to 6s2p1d pattern {511111/41/1}
 Group   2 Type H   : 6s1p contracted to 4s1p pattern {3111/1}

Atom   0C    basis set group =>   1
Atom   1C    basis set group =>   1
Atom   2C    basis set group =>   1
Atom   3C    basis set group =>   1
Atom   4C    basis set group =>   1
Atom   5C    basis set group =>   1
Atom   6C    basis set group =>   1
Atom   7C    basis set group =>   1
Atom   8C    basis set group =>   1
Atom   9H    basis set group =>   2
Atom  10H    basis set group =>   2
Atom  11C    basis set group =>   1
Atom  12H    basis set group =>   2
Atom  13H    basis set group =>   2
Atom  14C    basis set group =>   1
Atom  15H    basis set group =>   2
Atom  16H    basis set group =>   2
Atom  17C    basis set group =>   1
Atom  18H    basis set group =>   2
Atom  19H    basis set group =>   2
Atom  20C    basis set group =>   1
Atom  21H    basis set group =>   2
Atom  22H    basis set group =>   2
Atom  23C    basis set group =>   1
Atom  24H    basis set group =>   2
Atom  25H    basis set group =>   2
Atom  26C    basis set group =>   1
Atom  27H    basis set group =>   2
Atom  28H    basis set group =>   2
Atom  29C    basis set group =>   1
Atom  30H    basis set group =>   2
Atom  31H    basis set group =>   2
Atom  32C    basis set group =>   1
Atom  33H    basis set group =>   2
Atom  34C    basis set group =>   1
Atom  35H    basis set group =>   2
Atom  36H    basis set group =>   2
Atom  37C    basis set group =>   1
Atom  38H    basis set group =>   2
Atom  39H    basis set group =>   2
Atom  40C    basis set group =>   1
Atom  41H    basis set group =>   2
Atom  42H    basis set group =>   2
Atom  43C    basis set group =>   1
Atom  44H    basis set group =>   2
Atom  45H    basis set group =>   2
Atom  46H    basis set group =>   2
Atom  47H    basis set group =>   2
---------------------------------
AUXILIARY/J BASIS SET INFORMATION
---------------------------------
There are 2 groups of distinct atoms

 Group   1 Type C   : 17s13p12d2f contracted to 17s13p12d2f pattern {11111111111111111/1111111111111/111111111111/11}
 Group   2 Type H   : 15s6p1d contracted to 15s6p1d pattern {111111111111111/111111/1}

Atom   0C    basis set group =>   1
Atom   1C    basis set group =>   1
Atom   2C    basis set group =>   1
Atom   3C    basis set group =>   1
Atom   4C    basis set group =>   1
Atom   5C    basis set group =>   1
Atom   6C    basis set group =>   1
Atom   7C    basis set group =>   1
Atom   8C    basis set group =>   1
Atom   9H    basis set group =>   2
Atom  10H    basis set group =>   2
Atom  11C    basis set group =>   1
Atom  12H    basis set group =>   2
Atom  13H    basis set group =>   2
Atom  14C    basis set group =>   1
Atom  15H    basis set group =>   2
Atom  16H    basis set group =>   2
Atom  17C    basis set group =>   1
Atom  18H    basis set group =>   2
Atom  19H    basis set group =>   2
Atom  20C    basis set group =>   1
Atom  21H    basis set group =>   2
Atom  22H    basis set group =>   2
Atom  23C    basis set group =>   1
Atom  24H    basis set group =>   2
Atom  25H    basis set group =>   2
Atom  26C    basis set group =>   1
Atom  27H    basis set group =>   2
Atom  28H    basis set group =>   2
Atom  29C    basis set group =>   1
Atom  30H    basis set group =>   2
Atom  31H    basis set group =>   2
Atom  32C    basis set group =>   1
Atom  33H    basis set group =>   2
Atom  34C    basis set group =>   1
Atom  35H    basis set group =>   2
Atom  36H    basis set group =>   2
Atom  37C    basis set group =>   1
Atom  38H    basis set group =>   2
Atom  39H    basis set group =>   2
Atom  40C    basis set group =>   1
Atom  41H    basis set group =>   2
Atom  42H    basis set group =>   2
Atom  43C    basis set group =>   1
Atom  44H    basis set group =>   2
Atom  45H    basis set group =>   2
Atom  46H    basis set group =>   2
Atom  47H    basis set group =>   2
---------------------------------
AUXILIARY/C BASIS SET INFORMATION
---------------------------------
There are 2 groups of distinct atoms

 Group   1 Type C   : 17s13p12d2f contracted to 17s13p12d2f pattern {11111111111111111/1111111111111/111111111111/11}
 Group   2 Type H   : 15s6p1d contracted to 15s6p1d pattern {111111111111111/111111/1}

Atom   0C    basis set group =>   1
Atom   1C    basis set group =>   1
Atom   2C    basis set group =>   1
Atom   3C    basis set group =>   1
Atom   4C    basis set group =>   1
Atom   5C    basis set group =>   1
Atom   6C    basis set group =>   1
Atom   7C    basis set group =>   1
Atom   8C    basis set group =>   1
Atom   9H    basis set group =>   2
Atom  10H    basis set group =>   2
Atom  11C    basis set group =>   1
Atom  12H    basis set group =>   2
Atom  13H    basis set group =>   2
Atom  14C    basis set group =>   1
Atom  15H    basis set group =>   2
Atom  16H    basis set group =>   2
Atom  17C    basis set group =>   1
Atom  18H    basis set group =>   2
Atom  19H    basis set group =>   2
Atom  20C    basis set group =>   1
Atom  21H    basis set group =>   2
Atom  22H    basis set group =>   2
Atom  23C    basis set group =>   1
Atom  24H    basis set group =>   2
Atom  25H    basis set group =>   2
Atom  26C    basis set group =>   1
Atom  27H    basis set group =>   2
Atom  28H    basis set group =>   2
Atom  29C    basis set group =>   1
Atom  30H    basis set group =>   2
Atom  31H    basis set group =>   2
Atom  32C    basis set group =>   1
Atom  33H    basis set group =>   2
Atom  34C    basis set group =>   1
Atom  35H    basis set group =>   2
Atom  36H    basis set group =>   2
Atom  37C    basis set group =>   1
Atom  38H    basis set group =>   2
Atom  39H    basis set group =>   2
Atom  40C    basis set group =>   1
Atom  41H    basis set group =>   2
Atom  42H    basis set group =>   2
Atom  43C    basis set group =>   1
Atom  44H    basis set group =>   2
Atom  45H    basis set group =>   2
Atom  46H    basis set group =>   2
Atom  47H    basis set group =>   2
----------------------------------
AUXILIARY/JK BASIS SET INFORMATION
----------------------------------
There are 2 groups of distinct atoms

 Group   1 Type C   : 17s13p12d2f contracted to 17s13p12d2f pattern {11111111111111111/1111111111111/111111111111/11}
 Group   2 Type H   : 15s6p1d contracted to 15s6p1d pattern {111111111111111/111111/1}

Atom   0C    basis set group =>   1
Atom   1C    basis set group =>   1
Atom   2C    basis set group =>   1
Atom   3C    basis set group =>   1
Atom   4C    basis set group =>   1
Atom   5C    basis set group =>   1
Atom   6C    basis set group =>   1
Atom   7C    basis set group =>   1
Atom   8C    basis set group =>   1
Atom   9H    basis set group =>   2
Atom  10H    basis set group =>   2
Atom  11C    basis set group =>   1
Atom  12H    basis set group =>   2
Atom  13H    basis set group =>   2
Atom  14C    basis set group =>   1
Atom  15H    basis set group =>   2
Atom  16H    basis set group =>   2
Atom  17C    basis set group =>   1
Atom  18H    basis set group =>   2
Atom  19H    basis set group =>   2
Atom  20C    basis set group =>   1
Atom  21H    basis set group =>   2
Atom  22H    basis set group =>   2
Atom  23C    basis set group =>   1
Atom  24H    basis set group =>   2
Atom  25H    basis set group =>   2
Atom  26C    basis set group =>   1
Atom  27H    basis set group =>   2
Atom  28H    basis set group =>   2
Atom  29C    basis set group =>   1
Atom  30H    basis set group =>   2
Atom  31H    basis set group =>   2
Atom  32C    basis set group =>   1
Atom  33H    basis set group =>   2
Atom  34C    basis set group =>   1
Atom  35H    basis set group =>   2
Atom  36H    basis set group =>   2
Atom  37C    basis set group =>   1
Atom  38H    basis set group =>   2
Atom  39H    basis set group =>   2
Atom  40C    basis set group =>   1
Atom  41H    basis set group =>   2
Atom  42H    basis set group =>   2
Atom  43C    basis set group =>   1
Atom  44H    basis set group =>   2
Atom  45H    basis set group =>   2
Atom  46H    basis set group =>   2
Atom  47H    basis set group =>   2

Checking for AutoStart:
The File: EPRII.gbw exists
Trying to determine its content:
     ... Fine, the file contains calculation information
     ... Fine, the calculation information was read
     ... Fine, the file contains a basis set
     ... Fine, the basis set was read
     ... Fine, the file contains a geometry
     ... Fine, the geometry was read
     ... Fine, the file contains a set of orbitals
     ... Fine, the orbitals can be read
     => possible old guess file was deleted
     => GBW file was renamed to GES file
     => GES file is set as startup file
     => Guess is set to MORead
     ... now leaving AutoStart



           ************************************************************
           *        Program running with 16 parallel MPI-processes    *
           *              working on a common directory               *
           ************************************************************
------------------------------------------------------------------------------
                           ORCA GTO INTEGRAL CALCULATION
                           -- RI-GTO INTEGRALS CHOSEN --
------------------------------------------------------------------------------
------------------------------------------------------------------------------
                   ___                                                        
                  /   \      - P O W E R E D   B Y -                         
                 /     \                                                     
                 |  |  |   _    _      __       _____    __    __             
                 |  |  |  | |  | |    /  \     |  _  \  |  |  /  |          
                  \  \/   | |  | |   /    \    | | | |  |  | /  /          
                 / \  \   | |__| |  /  /\  \   | |_| |  |  |/  /          
                |  |  |   |  __  | /  /__\  \  |    /   |      \           
                |  |  |   | |  | | |   __   |  |    \   |  |\   \          
                \     /   | |  | | |  |  |  |  | |\  \  |  | \   \       
                 \___/    |_|  |_| |__|  |__|  |_| \__\ |__|  \__/        
                                                                              
                      - O R C A' S   B I G   F R I E N D -                    
                                      &                                       
                       - I N T E G R A L  F E E D E R -                       
                                                                              
 v1 FN, 2020, v2 2021                                                         
------------------------------------------------------------------------------


Reading SHARK input file EPRII.SHARKINP.tmp ... ok
----------------------
SHARK INTEGRAL PACKAGE
----------------------

Number of atoms                             ...     48
Number of basis functions                   ...    546
Number of shells                            ...    324
Maximum angular momentum                    ...      2
Integral batch strategy                     ... SHARK/LIBINT Hybrid
RI-J (if used) integral strategy            ... SPLIT-RIJ (Revised 2003 algorithm where possible)
Printlevel                                  ...      1
Contraction scheme used                     ... SEGMENTED contraction
Coulomb Range Separation                    ... NOT USED
Exchange Range Separation                   ... NOT USED
Finite Nucleus Model                        ... NOT USED
Auxiliary Coulomb fitting basis             ... AVAILABLE
   # of basis functions in Aux-J            ...   3756
   # of shells in Aux-J                     ...   1518
   Maximum angular momentum in Aux-J        ...      3
Auxiliary J/K fitting basis                 ... AVAILABLE
   # of basis functions in Aux-JK           ...   3756
   # of shells in Aux-JK                    ...   1518
   Maximum angular momentum in Aux-JK       ...      3
Auxiliary Correlation fitting basis         ... AVAILABLE
   # of basis functions in Aux-C            ...   3756
   # of shells in Aux-C                     ...   1518
   Maximum angular momentum in Aux-C        ...      3
Auxiliary 'external' fitting basis          ... NOT available
Integral threshold                          ...     1.000000e-10
Primitive cut-off                           ...     1.000000e-11
Primitive pair pre-selection threshold      ...     1.000000e-11

Calculating pre-screening integrals         ... done (  0.0 sec) Dimension = 324
Organizing shell pair data                  ... done (  0.2 sec)
Shell pair information
Total number of shell pairs                 ...     52650
Shell pairs after pre-screening             ...     26078
Total number of primitive shell pairs       ...    138492
Primitive shell pairs kept                  ...     48893
          la=0 lb=0:  12163 shell pairs
          la=1 lb=0:   8984 shell pairs
          la=1 lb=1:   1557 shell pairs
          la=2 lb=0:   2365 shell pairs
          la=2 lb=1:    874 shell pairs
          la=2 lb=2:    135 shell pairs

Calculating one electron integrals          ... done (  0.0 sec)
Calculating RI/J V-Matrix + Cholesky decomp.... done (  1.1 sec)
Calculating RI/JK V-Matrix + Cholesky decomp... done (  1.0 sec)
Calculating RI/C V-Matrix + Cholesky decomp.... done (  0.9 sec)
Calculating Nuclear repulsion               ... done (  0.0 sec) ENN=   1438.090867443210 Eh

SHARK setup successfully completed in   3.7 seconds

Maximum memory used throughout the entire GTOINT-calculation: 52.4 MB


           ************************************************************
           *        Program running with 16 parallel MPI-processes    *
           *              working on a common directory               *
           ************************************************************
-------------------------------------------------------------------------------
                                 ORCA SCF
-------------------------------------------------------------------------------

------------
SCF SETTINGS
------------
Hamiltonian:
 Density Functional     Method          .... DFT(GTOs)
 Exchange Functional    Exchange        .... B88
   X-Alpha parameter    XAlpha          ....  0.666667
   Becke's b parameter  XBeta           ....  0.004200
 Correlation Functional Correlation     .... LYP
 LDA part of GGA corr.  LDAOpt          .... VWN-5
 Gradients option       PostSCFGGA      .... off
 Hybrid DFT is turned on
   Fraction HF Exchange ScalHFX         ....  0.200000
   Scaling of DF-GGA-X  ScalDFX         ....  0.720000
   Scaling of DF-GGA-C  ScalDFC         ....  0.810000
   Scaling of DF-LDA-C  ScalLDAC        ....  1.000000
   Perturbative correction              ....  0.000000
   Density functional embedding theory  .... OFF
   NL short-range parameter             ....  4.800000
 RI-approximation to the Coulomb term is turned on
   Number of AuxJ basis functions       .... 3756
   RIJ-COSX (HFX calculated with COS-X)).... on


General Settings:
 Integral files         IntName         .... EPRII
 Hartree-Fock type      HFTyp           .... UHF
 Total Charge           Charge          ....    0
 Multiplicity           Mult            ....    2
 Number of Electrons    NEL             ....  153
 Basis Dimension        Dim             ....  546
 Nuclear Repulsion      ENuc            ....   1438.0908674432 Eh

Convergence Acceleration:
 DIIS                   CNVDIIS         .... on
   Start iteration      DIISMaxIt       ....    12
   Startup error        DIISStart       ....  0.200000
   # of expansion vecs  DIISMaxEq       ....     5
   Bias factor          DIISBfac        ....   1.050
   Max. coefficient     DIISMaxC        ....  10.000
 Trust-Rad. Augm. Hess. CNVTRAH         .... auto
   Auto Start mean grad. ratio tolernc. ....  1.125000
   Auto Start start iteration           ....     1
   Auto Start num. interpolation iter.  ....    10
   Max. Number of Micro iterations      ....    16
   Max. Number of Macro iterations      .... Maxiter - #DIIS iter
   Number of Davidson start vectors     ....     2
   Converg. threshold I  (grad. norm)   ....   5.000e-05
   Converg. threshold II (energy diff.) ....   1.000e-06
   Grad. Scal. Fac. for Micro threshold ....   0.100
   Minimum threshold for Micro iter.    ....   0.010
   NR start threshold (gradient norm)   ....   0.001
   Initial trust radius                 ....   0.400
   Minimum AH scaling param. (alpha)    ....   1.000
   Maximum AH scaling param. (alpha)    .... 1000.000
   Orbital update algorithm             .... Taylor
   White noise on init. David. guess    .... on
   Maximum white noise                  ....   0.010
   Quad. conv. algorithm                .... NR
 SOSCF                  CNVSOSCF        .... off
 Level Shifting         CNVShift        .... on
   Level shift para.    LevelShift      ....    0.2500
   Turn off err/grad.   ShiftErr        ....    0.0010
 Zerner damping         CNVZerner       .... off
 Static damping         CNVDamp         .... on
   Fraction old density DampFac         ....    0.7000
   Max. Damping (<1)    DampMax         ....    0.9800
   Min. Damping (>=0)   DampMin         ....    0.0000
   Turn off err/grad.   DampErr         ....    0.1000
 Fernandez-Rico         CNVRico         .... off

SCF Procedure:
 Maximum # iterations   MaxIter         ....   125
 SCF integral mode      SCFMode         .... Direct
   Integral package                     .... SHARK and LIBINT hybrid scheme
 Reset frequency        DirectResetFreq ....    20
 Integral Threshold     Thresh          ....  1.000e-10 Eh
 Primitive CutOff       TCut            ....  1.000e-11 Eh

Convergence Tolerance:
 Convergence Check Mode ConvCheckMode   .... Total+1el-Energy
 Convergence forced     ConvForced      .... 0
 Energy Change          TolE            ....  1.000e-06 Eh
 1-El. energy change                    ....  1.000e-03 Eh
 DIIS Error             TolErr          ....  1.000e-06


Diagonalization of the overlap matrix:
Smallest eigenvalue                        ... 1.352e-04
Time for diagonalization                   ...    0.055 sec
Threshold for overlap eigenvalues          ... 1.000e-08
Number of eigenvalues below threshold      ... 0
Time for construction of square roots      ...    0.053 sec
Total time needed                          ...    0.109 sec

---------------------
INITIAL GUESS: MOREAD
---------------------
Guess MOs are being read from file: EPRII.ges
Input Geometry matches current geometry (good)
Input basis set matches current basis set (good)
MOs were renormalized
MOs were reorthogonalized (Cholesky)
                      ------------------
                      INITIAL GUESS DONE (   0.2 sec)
                      ------------------
-------------------
DFT GRID GENERATION
-------------------

General Integration Accuracy     IntAcc      ... 4.388
Radial Grid Type                 RadialGrid  ... OptM3 with GC (2021)
Angular Grid (max. ang.)         AngularGrid ... 4 (Lebedev-302)
Angular grid pruning method      GridPruning ... 4 (adaptive)
Weight generation scheme         WeightScheme... Becke
Basis function cutoff            BFCut       ... 1.0000e-10
Integration weight cutoff        WCut        ... 1.0000e-14
Angular grids for H and He will be reduced by one unit
Partially contracted basis set               ... off
Rotationally invariant grid construction     ... off

Total number of grid points                  ...   211627
Total number of batches                      ...     3329
Average number of points per batch           ...       63
Average number of grid points per atom       ...     4409
Time for grid setup =    1.145 sec

--------------------
COSX GRID GENERATION
--------------------

GRIDX 1
-------
General Integration Accuracy     IntAcc      ... 3.816
Radial Grid Type                 RadialGrid  ... OptM3 with GC (2021)
Angular Grid (max. ang.)         AngularGrid ... 1 (Lebedev-50)
Angular grid pruning method      GridPruning ... 4 (adaptive)
Weight generation scheme         WeightScheme... Becke
Basis function cutoff            BFCut       ... 1.0000e-10
Integration weight cutoff        WCut        ... 1.0000e-14
Angular grids for H and He will be reduced by one unit
Partially contracted basis set               ... on
Rotationally invariant grid construction     ... off

Total number of grid points                  ...    27004
Total number of batches                      ...      449
Average number of points per batch           ...       60
Average number of grid points per atom       ...      563
UseSFitting                                  ... on

GRIDX 2
-------
General Integration Accuracy     IntAcc      ... 4.020
Radial Grid Type                 RadialGrid  ... OptM3 with GC (2021)
Angular Grid (max. ang.)         AngularGrid ... 2 (Lebedev-110)
Angular grid pruning method      GridPruning ... 4 (adaptive)
Weight generation scheme         WeightScheme... Becke
Basis function cutoff            BFCut       ... 1.0000e-10
Integration weight cutoff        WCut        ... 1.0000e-14
Angular grids for H and He will be reduced by one unit
Partially contracted basis set               ... on
Rotationally invariant grid construction     ... off

Total number of grid points                  ...    56988
Total number of batches                      ...      916
Average number of points per batch           ...       62
Average number of grid points per atom       ...     1187
UseSFitting                                  ... on

GRIDX 3
-------
General Integration Accuracy     IntAcc      ... 4.338
Radial Grid Type                 RadialGrid  ... OptM3 with GC (2021)
Angular Grid (max. ang.)         AngularGrid ... 3 (Lebedev-194)
Angular grid pruning method      GridPruning ... 4 (adaptive)
Weight generation scheme         WeightScheme... Becke
Basis function cutoff            BFCut       ... 1.0000e-10
Integration weight cutoff        WCut        ... 1.0000e-14
Angular grids for H and He will be reduced by one unit
Partially contracted basis set               ... on
Rotationally invariant grid construction     ... off

Total number of grid points                  ...   124376
Total number of batches                      ...     1970
Average number of points per batch           ...       63
Average number of grid points per atom       ...     2591
UseSFitting                                  ... on

Time for X-Grid setup             =    2.184 sec

--------------
SCF ITERATIONS
--------------
ITER       Energy         Delta-E        Max-DP      RMS-DP      [F,P]     Damp
               ***  Starting incremental Fock matrix formation  ***
  0   -815.8811024221   0.000000000000 0.00010089  0.00000054  0.0000073 0.7000
                 **** Energy Check signals convergence ****

               *****************************************************
               *                     SUCCESS                       *
               *           SCF CONVERGED AFTER   1 CYCLES          *
               *****************************************************

Old exchange energy                            =    -23.642558408 Eh
New exchange energy                            =    -23.642528495 Eh
Exchange energy change after final integration =      0.000029913 Eh
Total energy after final integration           =   -815.881072275 Eh
Final COS-X integration done in                =     8.657 sec

----------------
TOTAL SCF ENERGY
----------------

Total Energy       :         -815.88107227 Eh          -22201.25267 eV

Components:
Nuclear Repulsion  :         1438.09086744 Eh           39132.44196 eV
Electronic Energy  :        -2253.97193972 Eh          -61333.69462 eV
One Electron Energy:        -3954.86249637 Eh         -107617.27968 eV
Two Electron Energy:         1700.89055666 Eh           46283.58506 eV
Max COSX asymmetry :            0.00000315 Eh               0.00009 eV

Virial components:
Potential Energy   :        -1625.21629287 Eh          -44224.38365 eV
Kinetic Energy     :          809.33522059 Eh           22023.13099 eV
Virial Ratio       :            2.00808794


DFT components:
N(Alpha)           :       77.000101212814 electrons
N(Beta)            :       76.000079214695 electrons
N(Total)           :      153.000180427509 electrons
E(X)               :      -93.743025329250 Eh       
E(C)               :       -5.899466055500 Eh       
E(XC)              :      -99.642491384750 Eh       
DFET-embed. en.    :        0.000000000000 Eh       

---------------
SCF CONVERGENCE
---------------

  Last Energy change         ...    2.3393e-07  Tolerance :   1.0000e-06
  Last MAX-Density change    ...    2.8754e-05  Tolerance :   1.0000e-05
  Last RMS-Density change    ...    1.5394e-07  Tolerance :   1.0000e-06
  Last DIIS Error            ...    5.5723e-06  Tolerance :   1.0000e-06

             **** THE GBW FILE WAS UPDATED (EPRII.gbw) ****
             **** DENSITY EPRII.scfp WAS UPDATED ****
             **** ENERGY FILE WAS UPDATED (EPRII.en.tmp) ****
----------------------
UHF SPIN CONTAMINATION
----------------------

Warning: in a DFT calculation there is little theoretical justification to 
         calculate <S**2> as in Hartree-Fock theory. We will do it anyways
         but you should keep in mind that the values have only limited relevance

Expectation value of <S**2>     :     0.754013
Ideal value S*(S+1) for S=0.5   :     0.750000
Deviation                       :     0.004013

             **** THE GBW FILE WAS UPDATED (EPRII.gbw) ****
             **** DENSITY EPRII.scfp WAS UPDATED ****
----------------
ORBITAL ENERGIES
----------------
                 SPIN UP ORBITALS
  NO   OCC          E(Eh)            E(eV) 
   0   1.0000     -10.223028      -278.1827 
   1   1.0000     -10.223003      -278.1820 
   2   1.0000     -10.211355      -277.8651 
   3   1.0000     -10.211235      -277.8618 
   4   1.0000     -10.206132      -277.7230 
   5   1.0000     -10.205926      -277.7174 
   6   1.0000     -10.199634      -277.5461 
   7   1.0000     -10.199571      -277.5444 
   8   1.0000     -10.197925      -277.4996 
   9   1.0000     -10.197735      -277.4945 
  10   1.0000     -10.188541      -277.2443 
  11   1.0000     -10.188049      -277.2309 
  12   1.0000     -10.186030      -277.1760 
  13   1.0000     -10.185193      -277.1532 
  14   1.0000     -10.183810      -277.1156 
  15   1.0000     -10.182655      -277.0841 
  16   1.0000     -10.182367      -277.0763 
  17   1.0000     -10.182287      -277.0741 
  18   1.0000     -10.180102      -277.0146 
  19   1.0000     -10.173114      -276.8245 
  20   1.0000     -10.171564      -276.7823 
  21   1.0000      -0.874598       -23.7990 
  22   1.0000      -0.818357       -22.2686 
  23   1.0000      -0.804103       -21.8808 
  24   1.0000      -0.794670       -21.6241 
  25   1.0000      -0.783621       -21.3234 
  26   1.0000      -0.761672       -20.7261 
  27   1.0000      -0.753640       -20.5076 
  28   1.0000      -0.731279       -19.8991 
  29   1.0000      -0.721878       -19.6433 
  30   1.0000      -0.705527       -19.1984 
  31   1.0000      -0.673639       -18.3306 
  32   1.0000      -0.642922       -17.4948 
  33   1.0000      -0.637506       -17.3474 
  34   1.0000      -0.610993       -16.6260 
  35   1.0000      -0.589526       -16.0418 
  36   1.0000      -0.578196       -15.7335 
  37   1.0000      -0.564181       -15.3521 
  38   1.0000      -0.561888       -15.2898 
  39   1.0000      -0.543406       -14.7868 
  40   1.0000      -0.526232       -14.3195 
  41   1.0000      -0.499562       -13.5938 
  42   1.0000      -0.485296       -13.2056 
  43   1.0000      -0.475909       -12.9501 
  44   1.0000      -0.471054       -12.8180 
  45   1.0000      -0.469751       -12.7826 
  46   1.0000      -0.454654       -12.3718 
  47   1.0000      -0.432569       -11.7708 
  48   1.0000      -0.428735       -11.6665 
  49   1.0000      -0.427506       -11.6330 
  50   1.0000      -0.421017       -11.4565 
  51   1.0000      -0.415725       -11.3125 
  52   1.0000      -0.408819       -11.1245 
  53   1.0000      -0.406607       -11.0643 
  54   1.0000      -0.388076       -10.5601 
  55   1.0000      -0.383836       -10.4447 
  56   1.0000      -0.382186       -10.3998 
  57   1.0000      -0.370132       -10.0718 
  58   1.0000      -0.363471        -9.8906 
  59   1.0000      -0.356736        -9.7073 
  60   1.0000      -0.356252        -9.6941 
  61   1.0000      -0.349896        -9.5211 
  62   1.0000      -0.336150        -9.1471 
  63   1.0000      -0.335364        -9.1257 
  64   1.0000      -0.329305        -8.9609 
  65   1.0000      -0.328012        -8.9257 
  66   1.0000      -0.326325        -8.8797 
  67   1.0000      -0.323823        -8.8117 
  68   1.0000      -0.321808        -8.7568 
  69   1.0000      -0.319882        -8.7044 
  70   1.0000      -0.313696        -8.5361 
  71   1.0000      -0.280862        -7.6426 
  72   1.0000      -0.277919        -7.5626 
  73   1.0000      -0.276702        -7.5294 
  74   1.0000      -0.246638        -6.7114 
  75   1.0000      -0.220672        -6.0048 
  76   1.0000      -0.180482        -4.9112 
  77   0.0000      -0.053339        -1.4514 
  78   0.0000      -0.005281        -0.1437 
  79   0.0000       0.018971         0.5162 
  80   0.0000       0.021783         0.5927 
  81   0.0000       0.024673         0.6714 
  82   0.0000       0.027859         0.7581 
  83   0.0000       0.032370         0.8808 
  84   0.0000       0.037176         1.0116 
  85   0.0000       0.038172         1.0387 
  86   0.0000       0.042372         1.1530 
  87   0.0000       0.043600         1.1864 
  88   0.0000       0.044660         1.2153 
  89   0.0000       0.045494         1.2380 
  90   0.0000       0.053644         1.4597 
  91   0.0000       0.058147         1.5823 
  92   0.0000       0.073115         1.9896 
  93   0.0000       0.080376         2.1872 
  94   0.0000       0.090457         2.4615 
  95   0.0000       0.095744         2.6053 
  96   0.0000       0.105583         2.8731 
  97   0.0000       0.107933         2.9370 
  98   0.0000       0.113723         3.0946 
  99   0.0000       0.126224         3.4347 
 100   0.0000       0.146253         3.9798 
 101   0.0000       0.150764         4.1025 
 102   0.0000       0.155085         4.2201 
 103   0.0000       0.155990         4.2447 
 104   0.0000       0.159395         4.3373 
 105   0.0000       0.165455         4.5023 
 106   0.0000       0.175434         4.7738 
 107   0.0000       0.178781         4.8649 
 108   0.0000       0.184083         5.0091 
 109   0.0000       0.189794         5.1646 
 110   0.0000       0.190166         5.1747 
 111   0.0000       0.193208         5.2575 
 112   0.0000       0.196842         5.3564 
 113   0.0000       0.199209         5.4207 
 114   0.0000       0.199540         5.4298 
 115   0.0000       0.203901         5.5484 
 116   0.0000       0.212347         5.7783 
 117   0.0000       0.215475         5.8634 
 118   0.0000       0.215544         5.8652 
 119   0.0000       0.216906         5.9023 
 120   0.0000       0.220761         6.0072 
 121   0.0000       0.228553         6.2192 
 122   0.0000       0.229515         6.2454 
 123   0.0000       0.237267         6.4564 
 124   0.0000       0.241797         6.5796 
 125   0.0000       0.246066         6.6958 
 126   0.0000       0.249990         6.8026 
 127   0.0000       0.253336         6.8936 
 128   0.0000       0.257699         7.0123 
 129   0.0000       0.258669         7.0388 
 130   0.0000       0.264112         7.1869 
 131   0.0000       0.272512         7.4154 
 132   0.0000       0.278096         7.5674 
 133   0.0000       0.278629         7.5819 
 134   0.0000       0.280067         7.6210 
 135   0.0000       0.284303         7.7363 
 136   0.0000       0.291124         7.9219 
 137   0.0000       0.292989         7.9726 
 138   0.0000       0.294888         8.0243 
 139   0.0000       0.298429         8.1207 
 140   0.0000       0.301339         8.1999 
 141   0.0000       0.303677         8.2635 
 142   0.0000       0.311342         8.4721 
 143   0.0000       0.313006         8.5173 
 144   0.0000       0.315918         8.5966 
 145   0.0000       0.317550         8.6410 
 146   0.0000       0.319436         8.6923 
 147   0.0000       0.322868         8.7857 
 148   0.0000       0.327901         8.9226 
 149   0.0000       0.328663         8.9434 
 150   0.0000       0.336234         9.1494 
 151   0.0000       0.339041         9.2258 
 152   0.0000       0.345471         9.4007 
 153   0.0000       0.348817         9.4918 
 154   0.0000       0.349884         9.5208 
 155   0.0000       0.351296         9.5593 
 156   0.0000       0.364309         9.9134 
 157   0.0000       0.368539        10.0285 
 158   0.0000       0.371528        10.1098 
 159   0.0000       0.372363        10.1325 
 160   0.0000       0.375712        10.2236 
 161   0.0000       0.382018        10.3952 
 162   0.0000       0.390620        10.6293 
 163   0.0000       0.396370        10.7858 
 164   0.0000       0.400064        10.8863 
 165   0.0000       0.405835        11.0433 
 166   0.0000       0.408838        11.1250 
 167   0.0000       0.413928        11.2635 
 168   0.0000       0.418351        11.3839 
 169   0.0000       0.419927        11.4268 
 170   0.0000       0.426260        11.5991 
 171   0.0000       0.429895        11.6980 
 172   0.0000       0.442467        12.0401 
 173   0.0000       0.444314        12.0904 
 174   0.0000       0.447090        12.1659 
 175   0.0000       0.458334        12.4719 
 176   0.0000       0.458531        12.4773 
 177   0.0000       0.460204        12.5228 
 178   0.0000       0.466251        12.6873 
 179   0.0000       0.468828        12.7574 
 180   0.0000       0.476444        12.9647 
 181   0.0000       0.480867        13.0851 
 182   0.0000       0.500970        13.6321 
 183   0.0000       0.503053        13.6888 
 184   0.0000       0.508429        13.8351 
 185   0.0000       0.513882        13.9834 
 186   0.0000       0.517491        14.0816 
 187   0.0000       0.533638        14.5210 
 188   0.0000       0.537575        14.6282 
 189   0.0000       0.540295        14.7022 
 190   0.0000       0.544393        14.8137 
 191   0.0000       0.547780        14.9059 
 192   0.0000       0.556231        15.1358 
 193   0.0000       0.564046        15.3485 
 194   0.0000       0.572367        15.5749 
 195   0.0000       0.578566        15.7436 
 196   0.0000       0.584174        15.8962 
 197   0.0000       0.587116        15.9762 
 198   0.0000       0.589652        16.0452 
 199   0.0000       0.599554        16.3147 
 200   0.0000       0.606939        16.5156 
 201   0.0000       0.613993        16.7076 
 202   0.0000       0.628082        17.0910 
 203   0.0000       0.638017        17.3613 
 204   0.0000       0.655587        17.8394 
 205   0.0000       0.663533        18.0556 
 206   0.0000       0.676476        18.4078 
 207   0.0000       0.686557        18.6822 
 208   0.0000       0.714269        19.4362 
 209   0.0000       0.734174        19.9779 
 210   0.0000       0.764308        20.7979 
 211   0.0000       0.772334        21.0163 
 212   0.0000       0.778796        21.1921 
 213   0.0000       0.794982        21.6326 
 214   0.0000       0.795915        21.6580 
 215   0.0000       0.820290        22.3212 
 216   0.0000       0.829415        22.5695 
 217   0.0000       0.836362        22.7586 
 218   0.0000       0.838884        22.8272 
 219   0.0000       0.847559        23.0633 
 220   0.0000       0.848670        23.0935 
 221   0.0000       0.852759        23.2047 
 222   0.0000       0.859055        23.3761 
 223   0.0000       0.863367        23.4934 
 224   0.0000       0.871201        23.7066 
 225   0.0000       0.877000        23.8644 
 226   0.0000       0.882629        24.0175 
 227   0.0000       0.884705        24.0740 
 228   0.0000       0.895156        24.3584 
 229   0.0000       0.900728        24.5100 
 230   0.0000       0.908356        24.7176 
 231   0.0000       0.914583        24.8871 
 232   0.0000       0.918105        24.9829 
 233   0.0000       0.920156        25.0387 
 234   0.0000       0.923059        25.1177 
 235   0.0000       0.924624        25.1603 
 236   0.0000       0.935955        25.4686 
 237   0.0000       0.944547        25.7024 
 238   0.0000       0.945848        25.7378 
 239   0.0000       0.956306        26.0224 
 240   0.0000       0.958002        26.0686 
 241   0.0000       0.966696        26.3051 
 242   0.0000       0.973542        26.4914 
 243   0.0000       0.982570        26.7371 
 244   0.0000       0.987330        26.8666 
 245   0.0000       0.990383        26.9497 
 246   0.0000       0.990973        26.9658 
 247   0.0000       0.995770        27.0963 
 248   0.0000       1.006915        27.3995 
 249   0.0000       1.008827        27.4516 
 250   0.0000       1.014640        27.6098 
 251   0.0000       1.030141        28.0316 
 252   0.0000       1.032279        28.0897 
 253   0.0000       1.034388        28.1471 
 254   0.0000       1.036649        28.2086 
 255   0.0000       1.039711        28.2920 
 256   0.0000       1.049866        28.5683 
 257   0.0000       1.054690        28.6996 
 258   0.0000       1.059358        28.8266 
 259   0.0000       1.082531        29.4572 
 260   0.0000       1.085910        29.5491 
 261   0.0000       1.092928        29.7401 
 262   0.0000       1.105956        30.0946 
 263   0.0000       1.106588        30.1118 
 264   0.0000       1.115199        30.3461 
 265   0.0000       1.118595        30.4385 
 266   0.0000       1.131564        30.7914 
 267   0.0000       1.141303        31.0564 
 268   0.0000       1.142806        31.0973 
 269   0.0000       1.152230        31.3538 
 270   0.0000       1.153114        31.3778 
 271   0.0000       1.169042        31.8113 
 272   0.0000       1.176624        32.0176 
 273   0.0000       1.186157        32.2770 
 274   0.0000       1.190839        32.4044 
 275   0.0000       1.196398        32.5556 
 276   0.0000       1.200976        32.6802 
 277   0.0000       1.203427        32.7469 
 278   0.0000       1.217689        33.1350 
 279   0.0000       1.225558        33.3491 
 280   0.0000       1.232552        33.5394 
 281   0.0000       1.234306        33.5872 
 282   0.0000       1.239076        33.7170 
 283   0.0000       1.245235        33.8846 
 284   0.0000       1.253978        34.1225 
 285   0.0000       1.255898        34.1747 
 286   0.0000       1.260831        34.3089 
 287   0.0000       1.282497        34.8985 
 288   0.0000       1.293875        35.2081 
 289   0.0000       1.294876        35.2354 
 290   0.0000       1.305133        35.5145 
 291   0.0000       1.305974        35.5374 
 292   0.0000       1.314614        35.7725 
 293   0.0000       1.335117        36.3304 
 294   0.0000       1.343359        36.5547 
 295   0.0000       1.353361        36.8268 
 296   0.0000       1.368564        37.2405 
 297   0.0000       1.370195        37.2849 
 298   0.0000       1.380601        37.5681 
 299   0.0000       1.387630        37.7593 
 300   0.0000       1.396262        37.9942 
 301   0.0000       1.401254        38.1301 
 302   0.0000       1.408364        38.3235 
 303   0.0000       1.414647        38.4945 
 304   0.0000       1.427477        38.8436 
 305   0.0000       1.430918        38.9373 
 306   0.0000       1.438500        39.1436 
 307   0.0000       1.442766        39.2597 
 308   0.0000       1.449638        39.4467 
 309   0.0000       1.456232        39.6261 
 310   0.0000       1.462424        39.7946 
 311   0.0000       1.487284        40.4710 
 312   0.0000       1.497871        40.7592 
 313   0.0000       1.500401        40.8280 
 314   0.0000       1.517316        41.2883 
 315   0.0000       1.518803        41.3287 
 316   0.0000       1.523130        41.4465 
 317   0.0000       1.525129        41.5009 
 318   0.0000       1.533204        41.7206 
 319   0.0000       1.539919        41.9033 
 320   0.0000       1.545596        42.0578 
 321   0.0000       1.558222        42.4014 
 322   0.0000       1.559843        42.4455 
 323   0.0000       1.560605        42.4662 
 324   0.0000       1.579447        42.9789 
 325   0.0000       1.588074        43.2137 
 326   0.0000       1.592762        43.3413 
 327   0.0000       1.598833        43.5065 
 328   0.0000       1.600861        43.5616 
 329   0.0000       1.605849        43.6974 
 330   0.0000       1.609731        43.8030 
 331   0.0000       1.613185        43.8970 
 332   0.0000       1.614578        43.9349 
 333   0.0000       1.626585        44.2616 
 334   0.0000       1.629457        44.3398 
 335   0.0000       1.645460        44.7752 
 336   0.0000       1.651196        44.9313 
 337   0.0000       1.653433        44.9922 
 338   0.0000       1.672117        45.5006 
 339   0.0000       1.679634        45.7052 
 340   0.0000       1.683537        45.8114 
 341   0.0000       1.687767        45.9265 
 342   0.0000       1.690306        45.9956 
 343   0.0000       1.694581        46.1119 
 344   0.0000       1.704899        46.3927 
 345   0.0000       1.710319        46.5401 
 346   0.0000       1.722430        46.8697 
 347   0.0000       1.725899        46.9641 
 348   0.0000       1.731344        47.1123 
 349   0.0000       1.741061        47.3767 
 350   0.0000       1.743301        47.4376 
 351   0.0000       1.755698        47.7750 
 352   0.0000       1.759433        47.8766 
 353   0.0000       1.760138        47.8958 
 354   0.0000       1.776146        48.3314 
 355   0.0000       1.779646        48.4266 
 356   0.0000       1.782115        48.4938 
 357   0.0000       1.788504        48.6677 
 358   0.0000       1.798911        48.9509 
 359   0.0000       1.805379        49.1269 
 360   0.0000       1.810774        49.2737 
 361   0.0000       1.812531        49.3215 
 362   0.0000       1.816694        49.4348 
 363   0.0000       1.843066        50.1524 
 364   0.0000       1.854710        50.4692 
 365   0.0000       1.862740        50.6877 
 366   0.0000       1.886363        51.3306 
 367   0.0000       1.896515        51.6068 
 368   0.0000       1.903734        51.8032 
 369   0.0000       1.917194        52.1695 
 370   0.0000       1.921790        52.2946 
 371   0.0000       1.925346        52.3913 
 372   0.0000       1.936245        52.6879 
 373   0.0000       1.942522        52.8587 
 374   0.0000       1.950889        53.0864 
 375   0.0000       1.973604        53.7045 
 376   0.0000       1.990329        54.1596 
 377   0.0000       2.006048        54.5873 
 378   0.0000       2.023914        55.0735 
 379   0.0000       2.041429        55.5501 
 380   0.0000       2.052971        55.8642 
 381   0.0000       2.069424        56.3119 
 382   0.0000       2.072547        56.3969 
 383   0.0000       2.092683        56.9448 
 384   0.0000       2.111317        57.4519 
 385   0.0000       2.114014        57.5252 
 386   0.0000       2.124296        57.8050 
 387   0.0000       2.148903        58.4746 
 388   0.0000       2.153023        58.5867 
 389   0.0000       2.159629        58.7665 
 390   0.0000       2.168273        59.0017 
 391   0.0000       2.181369        59.3581 
 392   0.0000       2.197011        59.7837 
 393   0.0000       2.200212        59.8708 
 394   0.0000       2.213847        60.2419 
 395   0.0000       2.228866        60.6505 
 396   0.0000       2.251006        61.2530 
 397   0.0000       2.251939        61.2784 
 398   0.0000       2.254580        61.3502 
 399   0.0000       2.255761        61.3824 
 400   0.0000       2.266008        61.6612 
 401   0.0000       2.281839        62.0920 
 402   0.0000       2.298959        62.5579 
 403   0.0000       2.301565        62.6288 
 404   0.0000       2.309734        62.8511 
 405   0.0000       2.311748        62.9059 
 406   0.0000       2.315085        62.9967 
 407   0.0000       2.327117        63.3241 
 408   0.0000       2.330901        63.4271 
 409   0.0000       2.341086        63.7042 
 410   0.0000       2.349330        63.9285 
 411   0.0000       2.353929        64.0537 
 412   0.0000       2.379041        64.7370 
 413   0.0000       2.400080        65.3095 
 414   0.0000       2.408727        65.5448 
 415   0.0000       2.416763        65.7635 
 416   0.0000       2.429888        66.1206 
 417   0.0000       2.433253        66.2122 
 418   0.0000       2.436947        66.3127 
 419   0.0000       2.454911        66.8015 
 420   0.0000       2.459030        66.9136 
 421   0.0000       2.470570        67.2276 
 422   0.0000       2.476271        67.3828 
 423   0.0000       2.488183        67.7069 
 424   0.0000       2.493245        67.8446 
 425   0.0000       2.501902        68.0802 
 426   0.0000       2.517187        68.4961 
 427   0.0000       2.521972        68.6263 
 428   0.0000       2.525145        68.7127 
 429   0.0000       2.546821        69.3025 
 430   0.0000       2.553747        69.4910 
 431   0.0000       2.564888        69.7941 
 432   0.0000       2.568513        69.8928 
 433   0.0000       2.572102        69.9904 
 434   0.0000       2.585539        70.3561 
 435   0.0000       2.593216        70.5650 
 436   0.0000       2.614086        71.1329 
 437   0.0000       2.615679        71.1762 
 438   0.0000       2.624984        71.4295 
 439   0.0000       2.639752        71.8313 
 440   0.0000       2.704852        73.6028 
 441   0.0000       2.732974        74.3680 
 442   0.0000       2.770959        75.4016 
 443   0.0000       2.788627        75.8824 
 444   0.0000       2.818633        76.6989 
 445   0.0000       2.867977        78.0416 
 446   0.0000       2.946107        80.1676 
 447   0.0000       2.962837        80.6229 
 448   0.0000       2.967514        80.7502 
 449   0.0000       3.274389        89.1006 
 450   0.0000       4.984030       135.6223 
 451   0.0000       4.985609       135.6653 
 452   0.0000       4.999248       136.0364 
 453   0.0000       5.003235       136.1449 
 454   0.0000       5.010122       136.3324 
 455   0.0000       5.011522       136.3704 
 456   0.0000       5.015326       136.4740 
 457   0.0000       5.020306       136.6095 
 458   0.0000       5.029792       136.8676 
 459   0.0000       5.034958       137.0082 
 460   0.0000       5.039055       137.1196 
 461   0.0000       5.047803       137.3577 
 462   0.0000       5.050239       137.4240 
 463   0.0000       5.141829       139.9163 
 464   0.0000       5.181442       140.9942 
 465   0.0000       5.223302       142.1333 
 466   0.0000       5.232251       142.3768 
 467   0.0000       5.259394       143.1154 
 468   0.0000       5.265140       143.2717 
 469   0.0000       5.275219       143.5460 
 470   0.0000       5.285888       143.8363 
 471   0.0000       5.301176       144.2523 
 472   0.0000       5.304339       144.3384 
 473   0.0000       5.309095       144.4678 
 474   0.0000       5.330876       145.0605 
 475   0.0000       5.339647       145.2992 
 476   0.0000       5.367537       146.0581 
 477   0.0000       5.377868       146.3392 
 478   0.0000       5.394546       146.7931 
 479   0.0000       5.395157       146.8097 
 480   0.0000       5.428686       147.7221 
 481   0.0000       5.444915       148.1637 
 482   0.0000       5.504015       149.7719 
 483   0.0000       5.560120       151.2986 
 484   0.0000       5.593705       152.2125 
 485   0.0000       5.610863       152.6794 
 486   0.0000       5.631408       153.2384 
 487   0.0000       5.654164       153.8576 
 488   0.0000       5.716747       155.5606 
 489   0.0000       5.731505       155.9622 
 490   0.0000       5.765940       156.8992 
 491   0.0000       5.814449       158.2192 
 492   0.0000       5.835891       158.8027 
 493   0.0000       5.865643       159.6123 
 494   0.0000       5.896501       160.4520 
 495   0.0000       6.021024       163.8404 
 496   0.0000       6.246831       169.9849 
 497   0.0000       6.361502       173.1053 
 498   0.0000      29.617279       805.9271 
 499   0.0000      29.714256       808.5660 
 500   0.0000      29.820412       811.4547 
 501   0.0000      29.855700       812.4149 
 502   0.0000      29.856248       812.4298 
 503   0.0000      29.922254       814.2259 
 504   0.0000      29.982502       815.8653 
 505   0.0000      30.031811       817.2071 
 506   0.0000      30.055599       817.8544 
 507   0.0000      30.095475       818.9395 
 508   0.0000      30.099502       819.0491 
 509   0.0000      30.129840       819.8746 
 510   0.0000      30.160372       820.7054 
 511   0.0000      30.199342       821.7659 
 512   0.0000      30.209269       822.0360 
 513   0.0000      30.248309       823.0983 
 514   0.0000      30.274510       823.8113 
 515   0.0000      30.301649       824.5498 
 516   0.0000      30.336401       825.4954 
 517   0.0000      30.454877       828.7193 
 518   0.0000      30.585907       832.2849 
 519   0.0000      36.611664       996.2540 
 520   0.0000      36.613614       996.3071 
 521   0.0000      36.624090       996.5922 
 522   0.0000      36.630107       996.7559 
 523   0.0000      36.635636       996.9063 
 524   0.0000      36.637807       996.9654 
 525   0.0000      36.644140       997.1377 
 526   0.0000      36.650318       997.3059 
 527   0.0000      36.661270       997.6039 
 528   0.0000      36.661783       997.6178 
 529   0.0000      36.672953       997.9218 
 530   0.0000      36.676129       998.0082 
 531   0.0000      36.773147      1000.6482 
 532   0.0000      36.826721      1002.1060 
 533   0.0000      36.844881      1002.6002 
 534   0.0000      36.854036      1002.8493 
 535   0.0000      36.864940      1003.1460 
 536   0.0000      36.871259      1003.3180 
 537   0.0000      36.875825      1003.4422 
 538   0.0000      36.883413      1003.6487 
 539   0.0000      36.885749      1003.7123 
 540   0.0000      36.929038      1004.8902 
 541   0.0000      36.934583      1005.0411 
 542   0.0000      36.944369      1005.3074 
 543   0.0000      36.947273      1005.3864 
 544   0.0000      36.998279      1006.7744 
 545   0.0000      37.025623      1007.5184 

                 SPIN DOWN ORBITALS
  NO   OCC          E(Eh)            E(eV) 
   0   1.0000     -10.223023      -278.1826 
   1   1.0000     -10.223005      -278.1821 
   2   1.0000     -10.211364      -277.8653 
   3   1.0000     -10.211230      -277.8617 
   4   1.0000     -10.206133      -277.7230 
   5   1.0000     -10.205926      -277.7174 
   6   1.0000     -10.199627      -277.5460 
   7   1.0000     -10.199573      -277.5445 
   8   1.0000     -10.197924      -277.4996 
   9   1.0000     -10.197736      -277.4945 
  10   1.0000     -10.188530      -277.2440 
  11   1.0000     -10.188049      -277.2309 
  12   1.0000     -10.186097      -277.1778 
  13   1.0000     -10.183582      -277.1094 
  14   1.0000     -10.183251      -277.1003 
  15   1.0000     -10.182655      -277.0841 
  16   1.0000     -10.182287      -277.0741 
  17   1.0000     -10.179863      -277.0082 
  18   1.0000     -10.173114      -276.8245 
  19   1.0000     -10.172316      -276.8028 
  20   1.0000     -10.171558      -276.7822 
  21   1.0000      -0.874585       -23.7987 
  22   1.0000      -0.817577       -22.2474 
  23   1.0000      -0.797631       -21.7046 
  24   1.0000      -0.794525       -21.6201 
  25   1.0000      -0.781962       -21.2783 
  26   1.0000      -0.760586       -20.6966 
  27   1.0000      -0.753330       -20.4992 
  28   1.0000      -0.727036       -19.7837 
  29   1.0000      -0.721785       -19.6408 
  30   1.0000      -0.702133       -19.1060 
  31   1.0000      -0.672856       -18.3093 
  32   1.0000      -0.642510       -17.4836 
  33   1.0000      -0.636659       -17.3244 
  34   1.0000      -0.608907       -16.5692 
  35   1.0000      -0.588155       -16.0045 
  36   1.0000      -0.577139       -15.7047 
  37   1.0000      -0.563744       -15.3402 
  38   1.0000      -0.547215       -14.8905 
  39   1.0000      -0.543103       -14.7786 
  40   1.0000      -0.525590       -14.3020 
  41   1.0000      -0.499210       -13.5842 
  42   1.0000      -0.485271       -13.2049 
  43   1.0000      -0.475738       -12.9455 
  44   1.0000      -0.470117       -12.7925 
  45   1.0000      -0.466051       -12.6819 
  46   1.0000      -0.452276       -12.3071 
  47   1.0000      -0.431377       -11.7384 
  48   1.0000      -0.426547       -11.6069 
  49   1.0000      -0.426202       -11.5975 
  50   1.0000      -0.420683       -11.4474 
  51   1.0000      -0.415427       -11.3043 
  52   1.0000      -0.405901       -11.0451 
  53   1.0000      -0.401881       -10.9357 
  54   1.0000      -0.386564       -10.5189 
  55   1.0000      -0.381835       -10.3903 
  56   1.0000      -0.379308       -10.3215 
  57   1.0000      -0.368841       -10.0367 
  58   1.0000      -0.362085        -9.8528 
  59   1.0000      -0.355848        -9.6831 
  60   1.0000      -0.354501        -9.6465 
  61   1.0000      -0.348878        -9.4935 
  62   1.0000      -0.334809        -9.1106 
  63   1.0000      -0.334043        -9.0898 
  64   1.0000      -0.327963        -8.9243 
  65   1.0000      -0.326714        -8.8903 
  66   1.0000      -0.325377        -8.8540 
  67   1.0000      -0.323574        -8.8049 
  68   1.0000      -0.320612        -8.7243 
  69   1.0000      -0.319162        -8.6848 
  70   1.0000      -0.310919        -8.4605 
  71   1.0000      -0.280853        -7.6424 
  72   1.0000      -0.277918        -7.5625 
  73   1.0000      -0.276691        -7.5291 
  74   1.0000      -0.246577        -6.7097 
  75   1.0000      -0.220635        -6.0038 
  76   0.0000      -0.053352        -1.4518 
  77   0.0000      -0.037905        -1.0314 
  78   0.0000      -0.005144        -0.1400 
  79   0.0000       0.019101         0.5198 
  80   0.0000       0.021998         0.5986 
  81   0.0000       0.025168         0.6849 
  82   0.0000       0.028032         0.7628 
  83   0.0000       0.033280         0.9056 
  84   0.0000       0.037304         1.0151 
  85   0.0000       0.038338         1.0432 
  86   0.0000       0.042473         1.1558 
  87   0.0000       0.043608         1.1866 
  88   0.0000       0.044922         1.2224 
  89   0.0000       0.045561         1.2398 
  90   0.0000       0.053916         1.4671 
  91   0.0000       0.058586         1.5942 
  92   0.0000       0.073183         1.9914 
  93   0.0000       0.080615         2.1936 
  94   0.0000       0.090955         2.4750 
  95   0.0000       0.096374         2.6225 
  96   0.0000       0.105602         2.8736 
  97   0.0000       0.108839         2.9617 
  98   0.0000       0.113955         3.1009 
  99   0.0000       0.126764         3.4494 
 100   0.0000       0.146486         3.9861 
 101   0.0000       0.151300         4.1171 
 102   0.0000       0.155354         4.2274 
 103   0.0000       0.156173         4.2497 
 104   0.0000       0.159789         4.3481 
 105   0.0000       0.166579         4.5329 
 106   0.0000       0.176798         4.8109 
 107   0.0000       0.179359         4.8806 
 108   0.0000       0.185921         5.0592 
 109   0.0000       0.190516         5.1842 
 110   0.0000       0.193324         5.2606 
 111   0.0000       0.194297         5.2871 
 112   0.0000       0.197342         5.3699 
 113   0.0000       0.199322         5.4238 
 114   0.0000       0.200763         5.4631 
 115   0.0000       0.204658         5.5690 
 116   0.0000       0.214038         5.8243 
 117   0.0000       0.215522         5.8646 
 118   0.0000       0.216164         5.8821 
 119   0.0000       0.219010         5.9596 
 120   0.0000       0.220800         6.0083 
 121   0.0000       0.228706         6.2234 
 122   0.0000       0.229856         6.2547 
 123   0.0000       0.238241         6.4829 
 124   0.0000       0.242161         6.5895 
 125   0.0000       0.246637         6.7113 
 126   0.0000       0.250723         6.8225 
 127   0.0000       0.253574         6.9001 
 128   0.0000       0.258894         7.0449 
 129   0.0000       0.260490         7.0883 
 130   0.0000       0.269636         7.3372 
 131   0.0000       0.275926         7.5083 
 132   0.0000       0.278232         7.5711 
 133   0.0000       0.281163         7.6508 
 134   0.0000       0.282573         7.6892 
 135   0.0000       0.285314         7.7638 
 136   0.0000       0.292120         7.9490 
 137   0.0000       0.294165         8.0046 
 138   0.0000       0.296268         8.0619 
 139   0.0000       0.299066         8.1380 
 140   0.0000       0.303747         8.2654 
 141   0.0000       0.305300         8.3076 
 142   0.0000       0.311763         8.4835 
 143   0.0000       0.313615         8.5339 
 144   0.0000       0.316870         8.6225 
[...]
  Y           0.4308017           -0.5653839            0.7033854
  Z           0.7883339            0.6151379            0.0116202

Notes:  (1) The A matrix conforms to the "SAI" spin Hamiltonian convention.
        (2) Tensor is right-handed.

 -----------------------------------------------------------
 Nucleus  45H : A:ISTP=    1 I=  0.5 P=533.5514 MHz/au**3
                Q:ISTP=    2 I=  1.0 Q=  0.0029 barn     
 -----------------------------------------------------------
 Solving for nuclear perturbation:
Forming RHS of the CP-SCF equations         ... 
Calc. nucleus orbit integrals (SHARK)       ... done

------------------------------------------------------------------------------
                           ORCA CP-SCF CALCULATION
------------------------------------------------------------------------------

Input orbitals are from        ... EPRII.gbw
Input Perturbation             ... EPRII.pin.tmp
Wavefunction output            ... EPRII.pout.tmp
Perturbation mode              ... Imaginary perturbation
Solver                         ... POPLE
Max. number of iterations      ... 64
Convergence tolerance          ... 1.000e-03
Integral handling              ... Direct
DFT GridXC                     ... 1
COSX GridX                     ... 1
COSX IntAccX                   ... 3.067
COSX Algorithm                 ... Auto
Number of perturbations        ... 3
Number of operators            ... 2
Orbital ranges used for CP-SCF:
 Operator 0:  Orbitals   0... 76  to  77...545
 Operator 1:  Orbitals   0... 75  to  76...545
Variables per perturbation     ... 71833
DFT calculation                         ... on
XC functional terms                     ... off
Hybrid DFT                              ... on
   Exchange mixing (SCF)                ...  0.200
   Exchange mixing (CP-SCF)             ...  0.200
   GGA exch. scaling(SCF)               ...  0.720
   GGA exch. scaling (CP-SCF)           ...  0.720
   GGA corr. scaling (SCF)              ...  0.810
   GGA corr. scaling (CP-SCF)           ...  0.810

CP-SCF GRID
-----------

General Integration Accuracy     IntAcc      ... 3.467
Radial Grid Type                 RadialGrid  ... OptM3 with GC (2021)
Angular Grid (max. ang.)         AngularGrid ... 1 (Lebedev-50)
Angular grid pruning method      GridPruning ... 4 (adaptive)
Weight generation scheme         WeightScheme... Becke
Basis function cutoff            BFCut       ... 1.0000e-10
Integration weight cutoff        WCut        ... 1.0000e-14
Angular grids for H and He will be reduced by one unit
Partially contracted basis set               ... off
Rotationally invariant grid construction     ... off

Total number of grid points                  ...    29776
Total number of batches                      ...      486
Average number of points per batch           ...       61
Average number of grid points per atom       ...      620

CP-SCF GRIDX
------------

General Integration Accuracy     IntAcc      ... 3.067
Radial Grid Type                 RadialGrid  ... OptM3 with GC (2021)
Angular Grid (max. ang.)         AngularGrid ... 1 (Lebedev-50)
Angular grid pruning method      GridPruning ... 4 (adaptive)
Weight generation scheme         WeightScheme... Becke
Basis function cutoff            BFCut       ... 1.0000e-10
Integration weight cutoff        WCut        ... 1.0000e-14
Angular grids for H and He will be reduced by one unit
Partially contracted basis set               ... on
Rotationally invariant grid construction     ... off

Total number of grid points                  ...    14110
Total number of batches                      ...      250
Average number of points per batch           ...       56
Average number of grid points per atom       ...      294

Memory available               ... 864.5 MB
Memory needed per perturbation ...  17.4 MB
Perturbations treated per batch... 3
Number of batches              ... 1
     CP-SCF ITERATION   0:   1.0113e-01 (   2.1 sec   0/  3 done)
     CP-SCF ITERATION   1:   1.7247e-03 (   1.8 sec   1/  3 done)
     CP-SCF ITERATION   2:   1.5097e-04 (   1.6 sec   3/  3 done)
                    *** THE CP-SCF HAS CONVERGED ***

Forming final perturbed densities           ... done
Transforming perturbed density to AO basis  ... done

 Raw HFC matrix (all values in MHz): 
 -----------------------------------
                -0.0394              -0.2304               0.0107
                -0.2304               0.1942              -0.0201
                 0.0108              -0.0201              -0.1802

 A(FC)          -0.0085              -0.0085              -0.0085
 A(SD)          -0.1712              -0.1739               0.3451
 A(ORB+DIA)      0.0000               0.0000               0.0001    A(PC) =   0.0000
 A(ORB)         -0.0000              -0.0000               0.0001    A(PC) =   0.0000
 A(DIA)          0.0000               0.0000               0.0000    A(PC) =   0.0000
             ----------           ----------           ----------
 A(Tot)         -0.1797              -0.1824               0.3367    A(iso)=   -0.0085
 Orientation: 
  X          -0.6466303            0.5554695           -0.5228028
  Y          -0.3624822            0.3792856            0.8513220
  Z           0.6711750            0.7399973           -0.0439098

Notes:  (1) The A matrix conforms to the "SAI" spin Hamiltonian convention.
        (2) Tensor is right-handed.

 -----------------------------------------------------------
 Nucleus  46H : A:ISTP=    1 I=  0.5 P=533.5514 MHz/au**3
                Q:ISTP=    2 I=  1.0 Q=  0.0029 barn     
 -----------------------------------------------------------
 Solving for nuclear perturbation:
Forming RHS of the CP-SCF equations         ... 
Calc. nucleus orbit integrals (SHARK)       ... done

------------------------------------------------------------------------------
                           ORCA CP-SCF CALCULATION
------------------------------------------------------------------------------

Input orbitals are from        ... EPRII.gbw
Input Perturbation             ... EPRII.pin.tmp
Wavefunction output            ... EPRII.pout.tmp
Perturbation mode              ... Imaginary perturbation
Solver                         ... POPLE
Max. number of iterations      ... 64
Convergence tolerance          ... 1.000e-03
Integral handling              ... Direct
DFT GridXC                     ... 1
COSX GridX                     ... 1
COSX IntAccX                   ... 3.067
COSX Algorithm                 ... Auto
Number of perturbations        ... 3
Number of operators            ... 2
Orbital ranges used for CP-SCF:
 Operator 0:  Orbitals   0... 76  to  77...545
 Operator 1:  Orbitals   0... 75  to  76...545
Variables per perturbation     ... 71833
DFT calculation                         ... on
XC functional terms                     ... off
Hybrid DFT                              ... on
   Exchange mixing (SCF)                ...  0.200
   Exchange mixing (CP-SCF)             ...  0.200
   GGA exch. scaling(SCF)               ...  0.720
   GGA exch. scaling (CP-SCF)           ...  0.720
   GGA corr. scaling (SCF)              ...  0.810
   GGA corr. scaling (CP-SCF)           ...  0.810

CP-SCF GRID
-----------

General Integration Accuracy     IntAcc      ... 3.467
Radial Grid Type                 RadialGrid  ... OptM3 with GC (2021)
Angular Grid (max. ang.)         AngularGrid ... 1 (Lebedev-50)
Angular grid pruning method      GridPruning ... 4 (adaptive)
Weight generation scheme         WeightScheme... Becke
Basis function cutoff            BFCut       ... 1.0000e-10
Integration weight cutoff        WCut        ... 1.0000e-14
Angular grids for H and He will be reduced by one unit
Partially contracted basis set               ... off
Rotationally invariant grid construction     ... off

Total number of grid points                  ...    29776
Total number of batches                      ...      486
Average number of points per batch           ...       61
Average number of grid points per atom       ...      620

CP-SCF GRIDX
------------

General Integration Accuracy     IntAcc      ... 3.067
Radial Grid Type                 RadialGrid  ... OptM3 with GC (2021)
Angular Grid (max. ang.)         AngularGrid ... 1 (Lebedev-50)
Angular grid pruning method      GridPruning ... 4 (adaptive)
Weight generation scheme         WeightScheme... Becke
Basis function cutoff            BFCut       ... 1.0000e-10
Integration weight cutoff        WCut        ... 1.0000e-14
Angular grids for H and He will be reduced by one unit
Partially contracted basis set               ... on
Rotationally invariant grid construction     ... off

Total number of grid points                  ...    14110
Total number of batches                      ...      250
Average number of points per batch           ...       56
Average number of grid points per atom       ...      294

Memory available               ... 863.9 MB
Memory needed per perturbation ...  17.4 MB
Perturbations treated per batch... 3
Number of batches              ... 1
     CP-SCF ITERATION   0:   3.7085e-02 (   2.1 sec   0/  3 done)
     CP-SCF ITERATION   1:   6.1906e-04 (   1.8 sec   3/  3 done)
                    *** THE CP-SCF HAS CONVERGED ***

Forming final perturbed densities           ... done
Transforming perturbed density to AO basis  ... done

 Raw HFC matrix (all values in MHz): 
 -----------------------------------
                -0.0261               0.0176              -0.0005
                 0.0176               0.0559              -0.0019
                -0.0005              -0.0019              -0.0297

 A(FC)           0.0000               0.0000               0.0000
 A(SD)          -0.0296              -0.0299               0.0595
 A(ORB+DIA)      0.0000               0.0000               0.0000    A(PC) =   0.0000
 A(ORB)          0.0000              -0.0000               0.0000    A(PC) =   0.0000
 A(DIA)          0.0000               0.0000               0.0000    A(PC) =   0.0000
             ----------           ----------           ----------
 A(Tot)         -0.0296              -0.0298               0.0595    A(iso)=    0.0000
 Orientation: 
  X           0.6824078            0.7026940           -0.2013476
  Y          -0.1564888           -0.1286252           -0.9792685
  Z          -0.7140244            0.6997691            0.0221890

Notes:  (1) The A matrix conforms to the "SAI" spin Hamiltonian convention.
        (2) Tensor is right-handed.

 -----------------------------------------------------------
 Nucleus  47H : A:ISTP=    1 I=  0.5 P=533.5514 MHz/au**3
                Q:ISTP=    2 I=  1.0 Q=  0.0029 barn     
 -----------------------------------------------------------
 Solving for nuclear perturbation:
Forming RHS of the CP-SCF equations         ... 
Calc. nucleus orbit integrals (SHARK)       ... done

------------------------------------------------------------------------------
                           ORCA CP-SCF CALCULATION
------------------------------------------------------------------------------

Input orbitals are from        ... EPRII.gbw
Input Perturbation             ... EPRII.pin.tmp
Wavefunction output            ... EPRII.pout.tmp
Perturbation mode              ... Imaginary perturbation
Solver                         ... POPLE
Max. number of iterations      ... 64
Convergence tolerance          ... 1.000e-03
Integral handling              ... Direct
DFT GridXC                     ... 1
COSX GridX                     ... 1
COSX IntAccX                   ... 3.067
COSX Algorithm                 ... Auto
Number of perturbations        ... 3
Number of operators            ... 2
Orbital ranges used for CP-SCF:
 Operator 0:  Orbitals   0... 76  to  77...545
 Operator 1:  Orbitals   0... 75  to  76...545
Variables per perturbation     ... 71833
DFT calculation                         ... on
XC functional terms                     ... off
Hybrid DFT                              ... on
   Exchange mixing (SCF)                ...  0.200
   Exchange mixing (CP-SCF)             ...  0.200
   GGA exch. scaling(SCF)               ...  0.720
   GGA exch. scaling (CP-SCF)           ...  0.720
   GGA corr. scaling (SCF)              ...  0.810
   GGA corr. scaling (CP-SCF)           ...  0.810

CP-SCF GRID
-----------

General Integration Accuracy     IntAcc      ... 3.467
Radial Grid Type                 RadialGrid  ... OptM3 with GC (2021)
Angular Grid (max. ang.)         AngularGrid ... 1 (Lebedev-50)
Angular grid pruning method      GridPruning ... 4 (adaptive)
Weight generation scheme         WeightScheme... Becke
Basis function cutoff            BFCut       ... 1.0000e-10
Integration weight cutoff        WCut        ... 1.0000e-14
Angular grids for H and He will be reduced by one unit
Partially contracted basis set               ... off
Rotationally invariant grid construction     ... off

Total number of grid points                  ...    29776
Total number of batches                      ...      486
Average number of points per batch           ...       61
Average number of grid points per atom       ...      620

CP-SCF GRIDX
------------

General Integration Accuracy     IntAcc      ... 3.067
Radial Grid Type                 RadialGrid  ... OptM3 with GC (2021)
Angular Grid (max. ang.)         AngularGrid ... 1 (Lebedev-50)
Angular grid pruning method      GridPruning ... 4 (adaptive)
Weight generation scheme         WeightScheme... Becke
Basis function cutoff            BFCut       ... 1.0000e-10
Integration weight cutoff        WCut        ... 1.0000e-14
Angular grids for H and He will be reduced by one unit
Partially contracted basis set               ... on
Rotationally invariant grid construction     ... off

Total number of grid points                  ...    14110
Total number of batches                      ...      250
Average number of points per batch           ...       56
Average number of grid points per atom       ...      294

Memory available               ... 863.3 MB
Memory needed per perturbation ...  17.4 MB
Perturbations treated per batch... 3
Number of batches              ... 1
     CP-SCF ITERATION   0:   3.6763e-02 (   2.2 sec   0/  3 done)
     CP-SCF ITERATION   1:   5.2492e-04 (   1.8 sec   3/  3 done)
                    *** THE CP-SCF HAS CONVERGED ***

Forming final perturbed densities           ... done
Transforming perturbed density to AO basis  ... done

 Raw HFC matrix (all values in MHz): 
 -----------------------------------
                -0.9764              -0.2029              -0.1354
                -0.2028               1.0135               0.4035
                -0.1354               0.4034              -0.9999

 A(FC)          -0.3210              -0.3210              -0.3210
 A(SD)          -0.6165               1.4360              -0.8195
 A(ORB+DIA)     -0.0001               0.0006              -0.0002    A(PC) =   0.0001
 A(ORB)          0.0000               0.0004              -0.0002    A(PC) =   0.0001
 A(DIA)         -0.0001               0.0001              -0.0000    A(PC) =  -0.0000
             ----------           ----------           ----------
 A(Tot)         -0.9376               1.1155              -1.1408    A(iso)=   -0.3209
 Orientation: 
  X          -0.8255417            0.1070611            0.5540928
  Y          -0.1953254           -0.9753615           -0.1025567
  Z           0.5294610           -0.1928932            0.8261134

Notes:  (1) The A matrix conforms to the "SAI" spin Hamiltonian convention.
        (2) Tensor is right-handed.


--------------------------------------------------------------------------------
----------------------------------------------------------------------------
                           ORCA EULER ANGLE PROGRAM
----------------------------------------------------------------------------

Only g-tensor available        -->  using g-tensor as reference tensor

Reference tensor               ...  g

g-tensor ordering              ...  |g_min> --> |gx>
                                    |g_mid> --> |gy>
                                    |g_max> --> |gz>

A- and EFG-tensor ordering     ...  the axes |Ax>, |Qx>, |Ay>, etc. are assigned
                                    such that the Euler rotation is minimal. You
                                    can find the respective eigenvalues as Ax,
                                    EFGx, Ay, etc. in the tables below.
                                    The relation of |Ax>, |Ay>,  etc. to Amin, Amid, etc.
                                    (as printed in the ORCA EPR/NMR CALCULATION Output)
                                    is obtained in the detailed printout.

Euler rotation around          ...  z - y - z
   First rotation              -->  by alpha around z
   Second rotation             -->  by beta around y'
   Third rotation              -->  by gamma around z''
   Positive / Negative angle   -->  clockwise / counterclockwise rotation

Plot EFG-tensors                    (-)
Plot HFC-tensors                    (-)
Detailed Printout                   (-)

-------------------------------------------------------------------------
          Euler rotation of hyperfine tensor to g-tensor
-------------------------------------------------------------------------

-------------------------------------------------------------------
 Atom  |   Alpha    Beta    Gamma   |   Ax       Ay       Az 
       |          [degrees]         |           [MHz]         
-------------------------------------------------------------------
  9H      152.0     36.2   -166.9      -0.12     0.27    -0.11
 10H     -161.3     37.6    148.9      -0.75     1.33    -0.72
 12H     -154.6     13.1    144.8      -0.06     0.22    -0.05
 13H       -4.5     34.8    -17.0      -0.06     0.22    -0.06
 15H       14.7     35.0    -19.2      -0.07     0.14    -0.07
 16H       17.0     41.5    -29.6      -0.07     0.14    -0.07
 18H        2.3     27.5    -20.8      -0.05     0.09    -0.05
 19H       -3.1     24.4     -7.7      -0.05     0.09    -0.05
 21H       22.6     31.1    -35.3      -0.04     0.07    -0.04
 22H       18.8     29.8    -24.4      -0.04     0.07    -0.04
 24H       90.7     35.6   -110.0      -0.34     2.77    -0.32
 25H       50.0     31.5    -43.5       0.13     3.11    -0.41
 27H     -113.8      9.9    117.8      -4.44     3.70    -4.63
 28H        3.3     39.7    -31.6      -4.56     4.45    -5.93
 30H     -110.8     25.0     66.7      43.99    44.76    58.00
 31H       88.2     44.7    -56.8     130.29   141.26   128.23
 33H       57.7     17.6    -59.8     -59.78   -96.11   -20.64
 35H      -47.0     25.5     15.7     131.14   142.10   129.09
 36H     -125.5     46.9    143.0      43.08    57.05    43.87
 38H       89.4     38.7   -101.1      -4.47     3.66    -4.65
 39H       45.9     34.9    -14.7      -4.61     4.40    -5.99
 41H      -24.5     15.3     33.8      -0.20     2.79    -0.21
 42H       16.5     24.2    -23.5       0.22     3.07    -0.27
 44H      -58.1     32.6     31.4      -0.11     0.24    -0.11
 45H      -65.0     43.4     91.7      -0.18    -0.18     0.34
 46H       11.7     27.6    -23.6      -0.03     0.06    -0.03
 47H       29.8     38.7    -19.3      -0.94     1.12    -1.14
-------------------------------------------------------------------


Maximum memory used throughout the entire EPRNMR-calculation: 225.0 MB

Timings for individual modules:

Sum of individual times         ...     4631.563 sec (=  77.193 min)
GTO integral calculation        ...        6.200 sec (=   0.103 min)   0.1 %
Spin-Orbit-Coupling Matrices    ...       12.680 sec (=   0.211 min)   0.3 %
SCF iterations                  ...       33.461 sec (=   0.558 min)   0.7 %
EPR/NMR calculation             ...     4579.221 sec (=  76.320 min)  98.9 %
                             ****ORCA TERMINATED NORMALLY****
TOTAL RUN TIME: 0 days 1 hours 17 minutes 16 seconds 583 msec
