
                                 *****************
                                 * O   R   C   A *
                                 *****************

                                            #,                                       
                                            ###                                      
                                            ####                                     
                                            #####                                    
                                            ######                                   
                                           ########,                                 
                                     ,,################,,,,,                         
                               ,,#################################,,                 
                          ,,##########################################,,             
                       ,#########################################, ''#####,          
                    ,#############################################,,   '####,        
                  ,##################################################,,,,####,       
                ,###########''''           ''''###############################       
              ,#####''   ,,,,##########,,,,          '''####'''          '####       
            ,##' ,,,,###########################,,,                        '##       
           ' ,,###''''                  '''############,,,                           
         ,,##''                                '''############,,,,        ,,,,,,###''
      ,#''                                            '''#######################'''  
     '                                                          ''''####''''         
             ,#######,   #######,   ,#######,      ##                                
            ,#'     '#,  ##    ##  ,#'     '#,    #''#        ######   ,####,        
            ##       ##  ##   ,#'  ##            #'  '#       #        #'  '#        
            ##       ##  #######   ##           ,######,      #####,   #    #        
            '#,     ,#'  ##    ##  '#,     ,#' ,#      #,         ##   #,  ,#        
             '#######'   ##     ##  '#######'  #'      '#     #####' # '####'        



                  #######################################################
                  #                        -***-                        #
                  #          Department of theory and spectroscopy      #
                  #    Directorship and core code : Frank Neese         #
                  #        Max Planck Institute fuer Kohlenforschung    #
                  #                Kaiser Wilhelm Platz 1               #
                  #                 D-45470 Muelheim/Ruhr               #
                  #                      Germany                        #
                  #                                                     #
                  #                  All rights reserved                #
                  #                        -***-                        #
                  #######################################################


                         Program Version 5.0.4 -  RELEASE  -


 With contributions from (in alphabetic order):
   Daniel Aravena         : Magnetic Suceptibility
   Michael Atanasov       : Ab Initio Ligand Field Theory (pilot matlab implementation)
   Alexander A. Auer      : GIAO ZORA, VPT2 properties, NMR spectrum
   Ute Becker             : Parallelization
   Giovanni Bistoni       : ED, misc. LED, open-shell LED, HFLD
   Martin Brehm           : Molecular dynamics
   Dmytro Bykov           : SCF Hessian
   Vijay G. Chilkuri      : MRCI spin determinant printing, contributions to CSF-ICE
   Dipayan Datta          : RHF DLPNO-CCSD density
   Achintya Kumar Dutta   : EOM-CC, STEOM-CC
   Dmitry Ganyushin       : Spin-Orbit,Spin-Spin,Magnetic field MRCI
   Miquel Garcia          : C-PCM and meta-GGA Hessian, CC/C-PCM, Gaussian charge scheme
   Yang Guo               : DLPNO-NEVPT2, F12-NEVPT2, CIM, IAO-localization
   Andreas Hansen         : Spin unrestricted coupled pair/coupled cluster methods
   Benjamin Helmich-Paris : MC-RPA, TRAH-SCF, COSX integrals
   Lee Huntington         : MR-EOM, pCC
   Robert Izsak           : Overlap fitted RIJCOSX, COSX-SCS-MP3, EOM
   Marcus Kettner         : VPT2
   Christian Kollmar      : KDIIS, OOCD, Brueckner-CCSD(T), CCSD density, CASPT2, CASPT2-K
   Simone Kossmann        : Meta GGA functionals, TD-DFT gradient, OOMP2, MP2 Hessian
   Martin Krupicka        : Initial AUTO-CI
   Lucas Lang             : DCDCAS
   Marvin Lechner         : AUTO-CI (C++ implementation), FIC-MRCC
   Dagmar Lenk            : GEPOL surface, SMD
   Dimitrios Liakos       : Extrapolation schemes; Compound Job, initial MDCI parallelization
   Dimitrios Manganas     : Further ROCIS development; embedding schemes
   Dimitrios Pantazis     : SARC Basis sets
   Anastasios Papadopoulos: AUTO-CI, single reference methods and gradients
   Taras Petrenko         : DFT Hessian,TD-DFT gradient, ASA, ECA, R-Raman, ABS, FL, XAS/XES, NRVS
   Peter Pinski           : DLPNO-MP2, DLPNO-MP2 Gradient
   Christoph Reimann      : Effective Core Potentials
   Marius Retegan         : Local ZFS, SOC
   Christoph Riplinger    : Optimizer, TS searches, QM/MM, DLPNO-CCSD(T), (RO)-DLPNO pert. Triples
   Tobias Risthaus        : Range-separated hybrids, TD-DFT gradient, RPA, STAB
   Michael Roemelt        : Original ROCIS implementation
   Masaaki Saitow         : Open-shell DLPNO-CCSD energy and density
   Barbara Sandhoefer     : DKH picture change effects
   Avijit Sen             : IP-ROCIS
   Kantharuban Sivalingam : CASSCF convergence, NEVPT2, FIC-MRCI
   Bernardo de Souza      : ESD, SOC TD-DFT
   Georgi Stoychev        : AutoAux, RI-MP2 NMR, DLPNO-MP2 response
   Willem Van den Heuvel  : Paramagnetic NMR
   Boris Wezisla          : Elementary symmetry handling
   Frank Wennmohs         : Technical directorship


 We gratefully acknowledge several colleagues who have allowed us to
 interface, adapt or use parts of their codes:
   Stefan Grimme, W. Hujo, H. Kruse, P. Pracht,  : VdW corrections, initial TS optimization,
                  C. Bannwarth, S. Ehlert          DFT functionals, gCP, sTDA/sTD-DF
   Ed Valeev, F. Pavosevic, A. Kumar             : LibInt (2-el integral package), F12 methods
   Garnet Chan, S. Sharma, J. Yang, R. Olivares  : DMRG
   Ulf Ekstrom                                   : XCFun DFT Library
   Mihaly Kallay                                 : mrcc  (arbitrary order and MRCC methods)
   Jiri Pittner, Ondrej Demel                    : Mk-CCSD
   Frank Weinhold                                : gennbo (NPA and NBO analysis)
   Christopher J. Cramer and Donald G. Truhlar   : smd solvation model
   Lars Goerigk                                  : TD-DFT with DH, B97 family of functionals
   V. Asgeirsson, H. Jonsson                     : NEB implementation
   FAccTs GmbH                                   : IRC, NEB, NEB-TS, DLPNO-Multilevel, CI-OPT
                                                   MM, QMMM, 2- and 3-layer-ONIOM, Crystal-QMMM,
                                                   LR-CPCM, SF, NACMEs, symmetry and pop. for TD-DFT,
                                                   nearIR, NL-DFT gradient (VV10), updates on ESD,
                                                   ML-optimized integration grids
   S Lehtola, MJT Oliveira, MAL Marques          : LibXC Library
   Liviu Ungur et al                             : ANISO software


 Your calculation uses the libint2 library for the computation of 2-el integrals
 For citations please refer to: http://libint.valeyev.net

 Your ORCA version has been built with support for libXC version: 5.1.0
 For citations please refer to: https://tddft.org/programs/libxc/

 This ORCA versions uses:
   CBLAS   interface :  Fast vector & matrix operations
   LAPACKE interface :  Fast linear algebra routines
   SCALAPACK package :  Parallel linear algebra routines
   Shared memory     :  Shared parallel matrices
   BLAS/LAPACK       :  OpenBLAS 0.3.15  USE64BITINT DYNAMIC_ARCH NO_AFFINITY SkylakeX SINGLE_THREADED
        Core in use  :  SkylakeX
   Copyright (c) 2011-2014, The OpenBLAS Project




***************************************
The coordinates will be read from file: opt.xyz
***************************************


================================================================================

----- Orbital basis set information -----
Your calculation utilizes the basis: EPR-II
   V. Barone, in Recent Advances in Density Functional Methods, Part 1 (ed. D. P. Chong), World Scientific, Singapore, 1995, p. 287.

----- AuxJ basis set information -----
Your calculation utilizes the AutoAux generation procedure.
  G. L. Stoychev, A. A. Auer, F. Neese, J. Chem. Theory Comput. 13, 554 (2017)

----- AuxC basis set information -----
Your calculation utilizes the AutoAux generation procedure.
  G. L. Stoychev, A. A. Auer, F. Neese, J. Chem. Theory Comput. 13, 554 (2017)

----- AuxJK basis set information -----
Your calculation utilizes the AutoAux generation procedure.
  G. L. Stoychev, A. A. Auer, F. Neese, J. Chem. Theory Comput. 13, 554 (2017)

================================================================================
                                        WARNINGS
                       Please study these warnings very carefully!
================================================================================


WARNING: your system is open-shell and RHF/RKS was chosen
  ===> : WILL SWITCH to UHF/UKS


INFO   : the flag for use of the SHARK integral package has been found!

================================================================================
                                       INPUT FILE
================================================================================
NAME = EPRII.inp
|  1> ! B3LYP EPR-II AUTOAUX
|  2> %pal nprocs 16 end
|  3> *XYZFile 0 2 opt.xyz
|  4> %EPRNMR
|  5>         GTENSOR   TRUE
|  6>         NUCLEI    = ALL H {SHIFT, AISO, ADIP, AORB}
|  7> END
|  8> 
|  9>                          ****END OF INPUT****
================================================================================

                       ****************************
                       * Single Point Calculation *
                       ****************************

---------------------------------
CARTESIAN COORDINATES (ANGSTROEM)
---------------------------------
  C     -3.990231    0.213841   -0.298689
  C     -2.777202    0.134401   -0.264168
  C      2.881118   -0.106320   -0.120939
  C     -1.347580    0.049789   -0.226693
  C     -0.698663   -1.210432   -0.168978
  C      0.696414   -1.210949   -0.136033
  C      1.451516   -0.021244   -0.158159
  C      0.802554    1.238942   -0.215585
  C     -0.592525    1.239697   -0.248218
  H      1.240484   -2.154117   -0.091566
  H     -1.136490    2.183031   -0.291658
  C     -1.520796   -2.484849   -0.145693
  H     -2.176647   -2.488350   -1.035776
  H     -2.218070   -2.430135    0.710536
  C     -0.747760   -3.804774   -0.083711
  H     -0.066510   -3.882053   -0.951169
  H     -0.105100   -3.822574    0.815836
  C     -1.671277   -5.028796   -0.062159
  H     -2.353766   -4.954482    0.804809
  H     -2.318821   -5.011894   -0.958437
  C     -0.911004   -6.356092   -0.003542
  H     -0.279819   -6.416782    0.899916
  H     -0.247977   -6.477180   -0.877607
  C      1.625960    2.512302   -0.238909
  H      2.288489    2.510214    0.646135
  H      2.316797    2.461154   -1.100696
  C      0.854747    3.833459   -0.287928
  H      0.209453    3.860975   -1.184672
  H      0.180476    3.912331    0.583195
  C      1.786297    5.054577   -0.308234
  H      2.452926    5.030614    0.576943
  H      2.476574    4.960570   -1.179156
  C      1.071033    6.365835   -0.362651
  H      0.095267    6.402624   -0.863681
  C      1.766851    7.657378   -0.078213
  H      2.447636    7.917283   -0.923106
  H      2.441558    7.532993    0.792881
  C      0.820543    8.841876    0.167056
  H      0.163439    8.964772   -0.713802
  H      0.153001    8.598335    1.013255
  C      1.555999   10.154269    0.446799
  H      2.197776   10.071072    1.341050
  H      2.205841   10.437943   -0.399281
  C      4.094180   -0.186871   -0.089942
  H     -5.059895    0.285441   -0.327738
  H      5.163803   -0.259276   -0.061371
  H     -1.600271   -7.215913    0.013460
  H      0.851264   10.984019    0.618926

----------------------------
CARTESIAN COORDINATES (A.U.)
----------------------------
  NO LB      ZA    FRAG     MASS         X           Y           Z
   0 C     6.0000    0    12.011   -7.540443    0.404102   -0.564441
   1 C     6.0000    0    12.011   -5.248151    0.253982   -0.499205
   2 C     6.0000    0    12.011    5.444523   -0.200916   -0.228541
   3 C     6.0000    0    12.011   -2.546557    0.094088   -0.428388
   4 C     6.0000    0    12.011   -1.320281   -2.287384   -0.319322
   5 C     6.0000    0    12.011    1.316032   -2.288362   -0.257066
   6 C     6.0000    0    12.011    2.742967   -0.040146   -0.298877
   7 C     6.0000    0    12.011    1.516606    2.341260   -0.407397
   8 C     6.0000    0    12.011   -1.119709    2.342688   -0.469065
   9 H     1.0000    0     1.008    2.344176   -4.070692   -0.173035
  10 H     1.0000    0     1.008   -2.147654    4.125332   -0.551153
  11 C     6.0000    0    12.011   -2.873887   -4.695684   -0.275319
  12 H     1.0000    0     1.008   -4.113266   -4.702301   -1.957333
  13 H     1.0000    0     1.008   -4.191546   -4.592290    1.342718
  14 C     6.0000    0    12.011   -1.413063   -7.189981   -0.158191
  15 H     1.0000    0     1.008   -0.125686   -7.336017   -1.797449
  16 H     1.0000    0     1.008   -0.198611   -7.223618    1.541707
  17 C     6.0000    0    12.011   -3.158256   -9.503046   -0.117464
  18 H     1.0000    0     1.008   -4.447973   -9.362614    1.520868
  19 H     1.0000    0     1.008   -4.381937   -9.471107   -1.811183
  20 C     6.0000    0    12.011   -1.721549  -12.011274   -0.006693
  21 H     1.0000    0     1.008   -0.528780  -12.125961    1.700595
  22 H     1.0000    0     1.008   -0.468608  -12.240097   -1.658438
  23 C     6.0000    0    12.011    3.072619    4.747563   -0.451472
  24 H     1.0000    0     1.008    4.324617    4.743617    1.221018
  25 H     1.0000    0     1.008    4.378111    4.650907   -2.080014
  26 C     6.0000    0    12.011    1.615237    7.244188   -0.544106
  27 H     1.0000    0     1.008    0.395809    7.296186   -2.238705
  28 H     1.0000    0     1.008    0.341050    7.393234    1.102078
  29 C     6.0000    0    12.011    3.375613    9.551766   -0.582477
  30 H     1.0000    0     1.008    4.635359    9.506484    1.090264
  31 H     1.0000    0     1.008    4.680046    9.374118   -2.228283
  32 C     6.0000    0    12.011    2.023959   12.029684   -0.685312
  33 H     1.0000    0     1.008    0.180029   12.099206   -1.632121
  34 C     6.0000    0    12.011    3.338865   14.470348   -0.147801
  35 H     1.0000    0     1.008    4.625361   14.961497   -1.744418
  36 H     1.0000    0     1.008    4.613877   14.235294    1.498328
  37 C     6.0000    0    12.011    1.550602   16.708724    0.315689
  38 H     1.0000    0     1.008    0.308854   16.940964   -1.348890
  39 H     1.0000    0     1.008    0.289130   16.248499    1.914775
  40 C     6.0000    0    12.011    2.940412   19.188787    0.844327
  41 H     1.0000    0     1.008    4.153195   19.031567    2.534216
  42 H     1.0000    0     1.008    4.168435   19.724854   -0.754532
  43 C     6.0000    0    12.011    7.736880   -0.353135   -0.169966
  44 H     1.0000    0     1.008   -9.561816    0.539405   -0.619335
  45 H     1.0000    0     1.008    9.758173   -0.489961   -0.115974
  46 H     1.0000    0     1.008   -3.024075  -13.636100    0.025435
  47 H     1.0000    0     1.008    1.608656   20.756787    1.169600

--------------------------------
INTERNAL COORDINATES (ANGSTROEM)
--------------------------------
 C      0   0   0     0.000000000000     0.00000000     0.00000000
 C      1   0   0     1.216117300565     0.00000000     0.00000000
 C      2   1   0     5.665248771760   178.67761451     0.00000000
 C      2   1   3     1.432613825907   179.61834457   348.16914013
 C      4   2   1     1.418654589576   120.66329900   197.73351178
 C      5   4   2     1.395465866938   117.29550747   179.95887674
 C      6   5   4     1.409278387283   122.34215469     0.00000000
 C      7   6   5     1.418632466811   120.36015666     0.00000000
 C      8   7   6     1.395459934866   117.30702135     0.00000000
 H      6   5   4     1.089750567201   120.02688666   180.00645413
 H      9   8   7     1.089800388089   120.02687508   179.94491344
 C      5   4   2     1.516767495352   119.93882327   359.96700702
 H     12   5   4     1.105622523053   108.16965870    56.29388234
 H     12   5   4     1.105582648123   108.18937256   303.69597780
 C     12   5   4     1.530891106325   116.83043287   179.97136075
 H     15  12   5     1.105693044963   109.85347588   301.66257700
 H     15  12   5     1.105673591743   109.89641577    58.16164100
 C     15  12   5     1.533484839186   112.62303170   179.90666597
 H     18  15  12     1.105869607301   109.21106582   302.19410671
 H     18  15  12     1.105853537794   109.21139386    57.50674665
 C     18  15  12     1.530740866611   113.17484615   179.86427273
 H     21  18  15     1.103773146214   111.28686982    59.72408227
 H     21  18  15     1.103747463839   111.29395931   299.99763367
 C      8   7   6     1.516571393193   119.87466156   179.99993926
 H     24   8   7     1.105554226519   108.14795404   304.21875343
 H     24   8   7     1.105689496596   108.20245639    56.80707413
 C     24   8   7     1.530565281228   116.85111328   180.55827679
 H     27  24   8     1.105128420309   109.98027970   301.48969527
 H     27  24   8     1.104408138057   110.12146284    58.39438627
 C     27  24   8     1.536010107097   112.39937940   180.00427198
 H     30  27  24     1.108379926733   109.69518902   303.12781338
 H     30  27  24     1.115269099821   108.58306519    56.70669984
 C     30  27  24     1.494644224834   114.06061672   179.72608076
 H     33  30  27     1.097498554175   118.13176450   330.19856581
 C     33  30  27     1.494374056272   121.90232074   165.79994611
 H     35  33  30     1.115733918676   109.95621207    72.46416976
 H     35  33  30     1.108831076602   109.62757730   318.15960031
 C     35  33  30     1.535803009478   114.20920583   194.69308218
 H     38  35  33     1.105802712550   108.94418458   302.64834308
 H     38  35  33     1.104979023347   108.93839463    57.84670394
 C     38  35  33     1.530204502947   113.23636774   180.38109264
 H     41  38  35     1.103849725868   111.27809064   300.15772310
 H     41  38  35     1.103909711919   111.29745378    59.83305319
 C      3   2   1     1.216129260056   178.63742761   187.23701788
 H      1   2   4     1.072451254423   179.88881240   298.38081564
 H     44   3   7     1.072451049778   179.90112472   313.93426540
 H     21  18  15     1.102120481651   111.49610538   179.85071443
 H     41  38  35     1.102162990591   111.52523936   180.02743401

---------------------------
INTERNAL COORDINATES (A.U.)
---------------------------
 C      0   0   0     0.000000000000     0.00000000     0.00000000
 C      1   0   0     2.298128644791     0.00000000     0.00000000
 C      2   1   0    10.705768659161   178.67761451     0.00000000
 C      2   1   3     2.707247786634   179.61834457   348.16914013
 C      4   2   1     2.680868652928   120.66329900   197.73351178
 C      5   4   2     2.637048317748   117.29550747   179.95887674
 C      6   5   4     2.663150198420   122.34215469     0.00000000
 C      7   6   5     2.680826846961   120.36015666     0.00000000
 C      8   7   6     2.637037107756   117.30702135     0.00000000
 H      6   5   4     2.059330126296   120.02688666   180.00645413
 H      9   8   7     2.059424274130   120.02687508   179.94491344
 C      5   4   2     2.866275175049   119.93882327   359.96700702
 H     12   5   4     2.089323776066   108.16965870    56.29388234
 H     12   5   4     2.089248423368   108.18937256   303.69597780
 C     12   5   4     2.892964931810   116.83043287   179.97136075
 H     15  12   5     2.089457043161   109.85347588   301.66257700
 H     15  12   5     2.089420281904   109.89641577    58.16164100
 C     15  12   5     2.897866376581   112.62303170   179.90666597
 H     18  15  12     2.089790697626   109.21106582   302.19410671
 H     18  15  12     2.089760330659   109.21139386    57.50674665
 C     18  15  12     2.892681019896   113.17484615   179.86427273
 H     21  18  15     2.085828960322   111.28686982    59.72408227
 H     21  18  15     2.085780427665   111.29395931   299.99763367
 C      8   7   6     2.865904595674   119.87466156   179.99993926
 H     24   8   7     2.089194714320   108.14795404   304.21875343
 H     24   8   7     2.089450337720   108.20245639    56.80707413
 C     24   8   7     2.892349211610   116.85111328   180.55827679
 H     27  24   8     2.088390057196   109.98027970   301.48969527
 H     27  24   8     2.087028921001   110.12146284    58.39438627
 C     27  24   8     2.902638441348   112.39937940   180.00427198
 H     30  27  24     2.094534513861   109.69518902   303.12781338
 H     30  27  24     2.107553164287   108.58306519    56.70669984
 C     30  27  24     2.824468252583   114.06061672   179.72608076
 H     33  30  27     2.073971699765   118.13176450   330.19856581
 C     33  30  27     2.823957707992   121.90232074   165.79994611
 H     35  33  30     2.108431544624   109.95621207    72.46416976
 H     35  33  30     2.095387063558   109.62757730   318.15960031
 C     35  33  30     2.902247083566   114.20920583   194.69308218
 H     38  35  33     2.089664284866   108.94418458   302.64834308
 H     38  35  33     2.088107737853   108.93839463    57.84670394
 C     38  35  33     2.891667439463   113.23636774   180.38109264
 H     41  38  35     2.085973674895   111.27809064   300.15772310
 H     41  38  35     2.086087032104   111.29745378    59.83305319
 C      3   2   1     2.298151244954   178.63742761   187.23701788
 H      1   2   4     2.026639162840   179.88881240   298.38081564
 H     44   3   7     2.026638776116   179.90112472   313.93426540
 H     21  18  15     2.082705876905   111.49610538   179.85071443
 H     41  38  35     2.082786207160   111.52523936   180.02743401

---------------------
BASIS SET INFORMATION
---------------------
There are 2 groups of distinct atoms

 Group   1 Type C   : 10s5p1d contracted to 6s2p1d pattern {511111/41/1}
 Group   2 Type H   : 6s1p contracted to 4s1p pattern {3111/1}

Atom   0C    basis set group =>   1
Atom   1C    basis set group =>   1
Atom   2C    basis set group =>   1
Atom   3C    basis set group =>   1
Atom   4C    basis set group =>   1
Atom   5C    basis set group =>   1
Atom   6C    basis set group =>   1
Atom   7C    basis set group =>   1
Atom   8C    basis set group =>   1
Atom   9H    basis set group =>   2
Atom  10H    basis set group =>   2
Atom  11C    basis set group =>   1
Atom  12H    basis set group =>   2
Atom  13H    basis set group =>   2
Atom  14C    basis set group =>   1
Atom  15H    basis set group =>   2
Atom  16H    basis set group =>   2
Atom  17C    basis set group =>   1
Atom  18H    basis set group =>   2
Atom  19H    basis set group =>   2
Atom  20C    basis set group =>   1
Atom  21H    basis set group =>   2
Atom  22H    basis set group =>   2
Atom  23C    basis set group =>   1
Atom  24H    basis set group =>   2
Atom  25H    basis set group =>   2
Atom  26C    basis set group =>   1
Atom  27H    basis set group =>   2
Atom  28H    basis set group =>   2
Atom  29C    basis set group =>   1
Atom  30H    basis set group =>   2
Atom  31H    basis set group =>   2
Atom  32C    basis set group =>   1
Atom  33H    basis set group =>   2
Atom  34C    basis set group =>   1
Atom  35H    basis set group =>   2
Atom  36H    basis set group =>   2
Atom  37C    basis set group =>   1
Atom  38H    basis set group =>   2
Atom  39H    basis set group =>   2
Atom  40C    basis set group =>   1
Atom  41H    basis set group =>   2
Atom  42H    basis set group =>   2
Atom  43C    basis set group =>   1
Atom  44H    basis set group =>   2
Atom  45H    basis set group =>   2
Atom  46H    basis set group =>   2
Atom  47H    basis set group =>   2
---------------------------------
AUXILIARY/J BASIS SET INFORMATION
---------------------------------
There are 2 groups of distinct atoms

 Group   1 Type C   : 17s13p12d2f contracted to 17s13p12d2f pattern {11111111111111111/1111111111111/111111111111/11}
 Group   2 Type H   : 15s6p1d contracted to 15s6p1d pattern {111111111111111/111111/1}

Atom   0C    basis set group =>   1
Atom   1C    basis set group =>   1
Atom   2C    basis set group =>   1
Atom   3C    basis set group =>   1
Atom   4C    basis set group =>   1
Atom   5C    basis set group =>   1
Atom   6C    basis set group =>   1
Atom   7C    basis set group =>   1
Atom   8C    basis set group =>   1
Atom   9H    basis set group =>   2
Atom  10H    basis set group =>   2
Atom  11C    basis set group =>   1
Atom  12H    basis set group =>   2
Atom  13H    basis set group =>   2
Atom  14C    basis set group =>   1
Atom  15H    basis set group =>   2
Atom  16H    basis set group =>   2
Atom  17C    basis set group =>   1
Atom  18H    basis set group =>   2
Atom  19H    basis set group =>   2
Atom  20C    basis set group =>   1
Atom  21H    basis set group =>   2
Atom  22H    basis set group =>   2
Atom  23C    basis set group =>   1
Atom  24H    basis set group =>   2
Atom  25H    basis set group =>   2
Atom  26C    basis set group =>   1
Atom  27H    basis set group =>   2
Atom  28H    basis set group =>   2
Atom  29C    basis set group =>   1
Atom  30H    basis set group =>   2
Atom  31H    basis set group =>   2
Atom  32C    basis set group =>   1
Atom  33H    basis set group =>   2
Atom  34C    basis set group =>   1
Atom  35H    basis set group =>   2
Atom  36H    basis set group =>   2
Atom  37C    basis set group =>   1
Atom  38H    basis set group =>   2
Atom  39H    basis set group =>   2
Atom  40C    basis set group =>   1
Atom  41H    basis set group =>   2
Atom  42H    basis set group =>   2
Atom  43C    basis set group =>   1
Atom  44H    basis set group =>   2
Atom  45H    basis set group =>   2
Atom  46H    basis set group =>   2
Atom  47H    basis set group =>   2
---------------------------------
AUXILIARY/C BASIS SET INFORMATION
---------------------------------
There are 2 groups of distinct atoms

 Group   1 Type C   : 17s13p12d2f contracted to 17s13p12d2f pattern {11111111111111111/1111111111111/111111111111/11}
 Group   2 Type H   : 15s6p1d contracted to 15s6p1d pattern {111111111111111/111111/1}

Atom   0C    basis set group =>   1
Atom   1C    basis set group =>   1
Atom   2C    basis set group =>   1
Atom   3C    basis set group =>   1
Atom   4C    basis set group =>   1
Atom   5C    basis set group =>   1
Atom   6C    basis set group =>   1
Atom   7C    basis set group =>   1
Atom   8C    basis set group =>   1
Atom   9H    basis set group =>   2
Atom  10H    basis set group =>   2
Atom  11C    basis set group =>   1
Atom  12H    basis set group =>   2
Atom  13H    basis set group =>   2
Atom  14C    basis set group =>   1
Atom  15H    basis set group =>   2
Atom  16H    basis set group =>   2
Atom  17C    basis set group =>   1
Atom  18H    basis set group =>   2
Atom  19H    basis set group =>   2
Atom  20C    basis set group =>   1
Atom  21H    basis set group =>   2
Atom  22H    basis set group =>   2
Atom  23C    basis set group =>   1
Atom  24H    basis set group =>   2
Atom  25H    basis set group =>   2
Atom  26C    basis set group =>   1
Atom  27H    basis set group =>   2
Atom  28H    basis set group =>   2
Atom  29C    basis set group =>   1
Atom  30H    basis set group =>   2
Atom  31H    basis set group =>   2
Atom  32C    basis set group =>   1
Atom  33H    basis set group =>   2
Atom  34C    basis set group =>   1
Atom  35H    basis set group =>   2
Atom  36H    basis set group =>   2
Atom  37C    basis set group =>   1
Atom  38H    basis set group =>   2
Atom  39H    basis set group =>   2
Atom  40C    basis set group =>   1
Atom  41H    basis set group =>   2
Atom  42H    basis set group =>   2
Atom  43C    basis set group =>   1
Atom  44H    basis set group =>   2
Atom  45H    basis set group =>   2
Atom  46H    basis set group =>   2
Atom  47H    basis set group =>   2
----------------------------------
AUXILIARY/JK BASIS SET INFORMATION
----------------------------------
There are 2 groups of distinct atoms

 Group   1 Type C   : 17s13p12d2f contracted to 17s13p12d2f pattern {11111111111111111/1111111111111/111111111111/11}
 Group   2 Type H   : 15s6p1d contracted to 15s6p1d pattern {111111111111111/111111/1}

Atom   0C    basis set group =>   1
Atom   1C    basis set group =>   1
Atom   2C    basis set group =>   1
Atom   3C    basis set group =>   1
Atom   4C    basis set group =>   1
Atom   5C    basis set group =>   1
Atom   6C    basis set group =>   1
Atom   7C    basis set group =>   1
Atom   8C    basis set group =>   1
Atom   9H    basis set group =>   2
Atom  10H    basis set group =>   2
Atom  11C    basis set group =>   1
Atom  12H    basis set group =>   2
Atom  13H    basis set group =>   2
Atom  14C    basis set group =>   1
Atom  15H    basis set group =>   2
Atom  16H    basis set group =>   2
Atom  17C    basis set group =>   1
Atom  18H    basis set group =>   2
Atom  19H    basis set group =>   2
Atom  20C    basis set group =>   1
Atom  21H    basis set group =>   2
Atom  22H    basis set group =>   2
Atom  23C    basis set group =>   1
Atom  24H    basis set group =>   2
Atom  25H    basis set group =>   2
Atom  26C    basis set group =>   1
Atom  27H    basis set group =>   2
Atom  28H    basis set group =>   2
Atom  29C    basis set group =>   1
Atom  30H    basis set group =>   2
Atom  31H    basis set group =>   2
Atom  32C    basis set group =>   1
Atom  33H    basis set group =>   2
Atom  34C    basis set group =>   1
Atom  35H    basis set group =>   2
Atom  36H    basis set group =>   2
Atom  37C    basis set group =>   1
Atom  38H    basis set group =>   2
Atom  39H    basis set group =>   2
Atom  40C    basis set group =>   1
Atom  41H    basis set group =>   2
Atom  42H    basis set group =>   2
Atom  43C    basis set group =>   1
Atom  44H    basis set group =>   2
Atom  45H    basis set group =>   2
Atom  46H    basis set group =>   2
Atom  47H    basis set group =>   2


           ************************************************************
           *        Program running with 16 parallel MPI-processes    *
           *              working on a common directory               *
           ************************************************************
------------------------------------------------------------------------------
                           ORCA GTO INTEGRAL CALCULATION
                           -- RI-GTO INTEGRALS CHOSEN --
------------------------------------------------------------------------------
------------------------------------------------------------------------------
                   ___                                                        
                  /   \      - P O W E R E D   B Y -                         
                 /     \                                                     
                 |  |  |   _    _      __       _____    __    __             
                 |  |  |  | |  | |    /  \     |  _  \  |  |  /  |          
                  \  \/   | |  | |   /    \    | | | |  |  | /  /          
                 / \  \   | |__| |  /  /\  \   | |_| |  |  |/  /          
                |  |  |   |  __  | /  /__\  \  |    /   |      \           
                |  |  |   | |  | | |   __   |  |    \   |  |\   \          
                \     /   | |  | | |  |  |  |  | |\  \  |  | \   \       
                 \___/    |_|  |_| |__|  |__|  |_| \__\ |__|  \__/        
                                                                              
                      - O R C A' S   B I G   F R I E N D -                    
                                      &                                       
                       - I N T E G R A L  F E E D E R -                       
                                                                              
 v1 FN, 2020, v2 2021                                                         
------------------------------------------------------------------------------


Reading SHARK input file EPRII.SHARKINP.tmp ... ok
----------------------
SHARK INTEGRAL PACKAGE
----------------------

Number of atoms                             ...     48
Number of basis functions                   ...    546
Number of shells                            ...    324
Maximum angular momentum                    ...      2
Integral batch strategy                     ... SHARK/LIBINT Hybrid
RI-J (if used) integral strategy            ... SPLIT-RIJ (Revised 2003 algorithm where possible)
Printlevel                                  ...      1
Contraction scheme used                     ... SEGMENTED contraction
Coulomb Range Separation                    ... NOT USED
Exchange Range Separation                   ... NOT USED
Finite Nucleus Model                        ... NOT USED
Auxiliary Coulomb fitting basis             ... AVAILABLE
   # of basis functions in Aux-J            ...   3756
   # of shells in Aux-J                     ...   1518
   Maximum angular momentum in Aux-J        ...      3
Auxiliary J/K fitting basis                 ... AVAILABLE
   # of basis functions in Aux-JK           ...   3756
   # of shells in Aux-JK                    ...   1518
   Maximum angular momentum in Aux-JK       ...      3
Auxiliary Correlation fitting basis         ... AVAILABLE
   # of basis functions in Aux-C            ...   3756
   # of shells in Aux-C                     ...   1518
   Maximum angular momentum in Aux-C        ...      3
Auxiliary 'external' fitting basis          ... NOT available
Integral threshold                          ...     1.000000e-10
Primitive cut-off                           ...     1.000000e-11
Primitive pair pre-selection threshold      ...     1.000000e-11

Calculating pre-screening integrals         ... done (  0.0 sec) Dimension = 324
Organizing shell pair data                  ... done (  0.2 sec)
Shell pair information
Total number of shell pairs                 ...     52650
Shell pairs after pre-screening             ...     26078
Total number of primitive shell pairs       ...    138492
Primitive shell pairs kept                  ...     48893
          la=0 lb=0:  12163 shell pairs
          la=1 lb=0:   8984 shell pairs
          la=1 lb=1:   1557 shell pairs
          la=2 lb=0:   2365 shell pairs
          la=2 lb=1:    874 shell pairs
          la=2 lb=2:    135 shell pairs

Calculating one electron integrals          ... done (  0.0 sec)
Calculating RI/J V-Matrix + Cholesky decomp.... done (  0.9 sec)
Calculating RI/JK V-Matrix + Cholesky decomp... done (  0.8 sec)
Calculating RI/C V-Matrix + Cholesky decomp.... done (  0.8 sec)
Calculating Nuclear repulsion               ... done (  0.0 sec) ENN=   1438.090867443210 Eh

SHARK setup successfully completed in   3.3 seconds

Maximum memory used throughout the entire GTOINT-calculation: 52.4 MB


           ************************************************************
           *        Program running with 16 parallel MPI-processes    *
           *              working on a common directory               *
           ************************************************************
-------------------------------------------------------------------------------
                                 ORCA SCF
-------------------------------------------------------------------------------

------------
SCF SETTINGS
------------
Hamiltonian:
 Density Functional     Method          .... DFT(GTOs)
 Exchange Functional    Exchange        .... B88
   X-Alpha parameter    XAlpha          ....  0.666667
   Becke's b parameter  XBeta           ....  0.004200
 Correlation Functional Correlation     .... LYP
 LDA part of GGA corr.  LDAOpt          .... VWN-5
 Gradients option       PostSCFGGA      .... off
 Hybrid DFT is turned on
   Fraction HF Exchange ScalHFX         ....  0.200000
   Scaling of DF-GGA-X  ScalDFX         ....  0.720000
   Scaling of DF-GGA-C  ScalDFC         ....  0.810000
   Scaling of DF-LDA-C  ScalLDAC        ....  1.000000
   Perturbative correction              ....  0.000000
   Density functional embedding theory  .... OFF
   NL short-range parameter             ....  4.800000
 RI-approximation to the Coulomb term is turned on
   Number of AuxJ basis functions       .... 3756
   RIJ-COSX (HFX calculated with COS-X)).... on


General Settings:
 Integral files         IntName         .... EPRII
 Hartree-Fock type      HFTyp           .... UHF
 Total Charge           Charge          ....    0
 Multiplicity           Mult            ....    2
 Number of Electrons    NEL             ....  153
 Basis Dimension        Dim             ....  546
 Nuclear Repulsion      ENuc            ....   1438.0908674432 Eh

Convergence Acceleration:
 DIIS                   CNVDIIS         .... on
   Start iteration      DIISMaxIt       ....    12
   Startup error        DIISStart       ....  0.200000
   # of expansion vecs  DIISMaxEq       ....     5
   Bias factor          DIISBfac        ....   1.050
   Max. coefficient     DIISMaxC        ....  10.000
 Trust-Rad. Augm. Hess. CNVTRAH         .... auto
   Auto Start mean grad. ratio tolernc. ....  1.125000
   Auto Start start iteration           ....    20
   Auto Start num. interpolation iter.  ....    10
   Max. Number of Micro iterations      ....    16
   Max. Number of Macro iterations      .... Maxiter - #DIIS iter
   Number of Davidson start vectors     ....     2
   Converg. threshold I  (grad. norm)   ....   5.000e-05
   Converg. threshold II (energy diff.) ....   1.000e-06
   Grad. Scal. Fac. for Micro threshold ....   0.100
   Minimum threshold for Micro iter.    ....   0.010
   NR start threshold (gradient norm)   ....   0.001
   Initial trust radius                 ....   0.400
   Minimum AH scaling param. (alpha)    ....   1.000
   Maximum AH scaling param. (alpha)    .... 1000.000
   Orbital update algorithm             .... Taylor
   White noise on init. David. guess    .... on
   Maximum white noise                  ....   0.010
   Quad. conv. algorithm                .... NR
 SOSCF                  CNVSOSCF        .... off
 Level Shifting         CNVShift        .... on
   Level shift para.    LevelShift      ....    0.2500
   Turn off err/grad.   ShiftErr        ....    0.0010
 Zerner damping         CNVZerner       .... off
 Static damping         CNVDamp         .... on
   Fraction old density DampFac         ....    0.7000
   Max. Damping (<1)    DampMax         ....    0.9800
   Min. Damping (>=0)   DampMin         ....    0.0000
   Turn off err/grad.   DampErr         ....    0.1000
 Fernandez-Rico         CNVRico         .... off

SCF Procedure:
 Maximum # iterations   MaxIter         ....   125
 SCF integral mode      SCFMode         .... Direct
   Integral package                     .... SHARK and LIBINT hybrid scheme
 Reset frequency        DirectResetFreq ....    20
 Integral Threshold     Thresh          ....  1.000e-10 Eh
 Primitive CutOff       TCut            ....  1.000e-11 Eh

Convergence Tolerance:
 Convergence Check Mode ConvCheckMode   .... Total+1el-Energy
 Convergence forced     ConvForced      .... 0
 Energy Change          TolE            ....  1.000e-06 Eh
 1-El. energy change                    ....  1.000e-03 Eh
 DIIS Error             TolErr          ....  1.000e-06


Diagonalization of the overlap matrix:
Smallest eigenvalue                        ... 1.352e-04
Time for diagonalization                   ...    0.056 sec
Threshold for overlap eigenvalues          ... 1.000e-08
Number of eigenvalues below threshold      ... 0
Time for construction of square roots      ...    0.058 sec
Total time needed                          ...    0.116 sec

Time for model grid setup =    0.281 sec

------------------------------
INITIAL GUESS: MODEL POTENTIAL
------------------------------
Loading Hartree-Fock densities                     ... done
Calculating cut-offs                               ... done
Initializing the effective Hamiltonian             ... done
Setting up the integral package (SHARK)            ... done
Starting the Coulomb interaction                   ... done (   0.3 sec)
Reading the grid                                   ... done
Mapping shells                                     ... done
Starting the XC term evaluation                    ... done (   0.2 sec)
  promolecular density results
     # of electrons  =    152.992176209
     EX              =   -115.840313921
     EC              =     -4.989820734
     EX+EC           =   -120.830134655
Transforming the Hamiltonian                       ... done (   0.0 sec)
Diagonalizing the Hamiltonian                      ... done (   0.0 sec)
Back transforming the eigenvectors                 ... done (   0.0 sec)
Now organizing SCF variables                       ... done
                      ------------------
                      INITIAL GUESS DONE (   1.1 sec)
                      ------------------
-------------------
DFT GRID GENERATION
-------------------

General Integration Accuracy     IntAcc      ... 4.388
Radial Grid Type                 RadialGrid  ... OptM3 with GC (2021)
Angular Grid (max. ang.)         AngularGrid ... 4 (Lebedev-302)
Angular grid pruning method      GridPruning ... 4 (adaptive)
Weight generation scheme         WeightScheme... Becke
Basis function cutoff            BFCut       ... 1.0000e-10
Integration weight cutoff        WCut        ... 1.0000e-14
Angular grids for H and He will be reduced by one unit
Partially contracted basis set               ... off
Rotationally invariant grid construction     ... off

Total number of grid points                  ...   211627
Total number of batches                      ...     3329
Average number of points per batch           ...       63
Average number of grid points per atom       ...     4409
Time for grid setup =    1.173 sec

--------------------
COSX GRID GENERATION
--------------------

GRIDX 1
-------
General Integration Accuracy     IntAcc      ... 3.816
Radial Grid Type                 RadialGrid  ... OptM3 with GC (2021)
Angular Grid (max. ang.)         AngularGrid ... 1 (Lebedev-50)
Angular grid pruning method      GridPruning ... 4 (adaptive)
Weight generation scheme         WeightScheme... Becke
Basis function cutoff            BFCut       ... 1.0000e-10
Integration weight cutoff        WCut        ... 1.0000e-14
Angular grids for H and He will be reduced by one unit
Partially contracted basis set               ... on
Rotationally invariant grid construction     ... off

Total number of grid points                  ...    27004
Total number of batches                      ...      449
Average number of points per batch           ...       60
Average number of grid points per atom       ...      563
UseSFitting                                  ... on

GRIDX 2
-------
General Integration Accuracy     IntAcc      ... 4.020
Radial Grid Type                 RadialGrid  ... OptM3 with GC (2021)
Angular Grid (max. ang.)         AngularGrid ... 2 (Lebedev-110)
Angular grid pruning method      GridPruning ... 4 (adaptive)
Weight generation scheme         WeightScheme... Becke
Basis function cutoff            BFCut       ... 1.0000e-10
Integration weight cutoff        WCut        ... 1.0000e-14
Angular grids for H and He will be reduced by one unit
Partially contracted basis set               ... on
Rotationally invariant grid construction     ... off

Total number of grid points                  ...    56988
Total number of batches                      ...      916
Average number of points per batch           ...       62
Average number of grid points per atom       ...     1187
UseSFitting                                  ... on

GRIDX 3
-------
General Integration Accuracy     IntAcc      ... 4.338
Radial Grid Type                 RadialGrid  ... OptM3 with GC (2021)
Angular Grid (max. ang.)         AngularGrid ... 3 (Lebedev-194)
Angular grid pruning method      GridPruning ... 4 (adaptive)
Weight generation scheme         WeightScheme... Becke
Basis function cutoff            BFCut       ... 1.0000e-10
Integration weight cutoff        WCut        ... 1.0000e-14
Angular grids for H and He will be reduced by one unit
Partially contracted basis set               ... on
Rotationally invariant grid construction     ... off

Total number of grid points                  ...   124376
Total number of batches                      ...     1970
Average number of points per batch           ...       63
Average number of grid points per atom       ...     2591
UseSFitting                                  ... on

Time for X-Grid setup             =    2.105 sec

--------------
SCF ITERATIONS
--------------
ITER       Energy         Delta-E        Max-DP      RMS-DP      [F,P]     Damp
               ***  Starting incremental Fock matrix formation  ***
  0   -815.3492105145   0.000000000000 0.05581987  0.00083366  0.0796513 0.7000
  1   -815.5862082334  -0.236997718974 0.04072648  0.00063204  0.0426470 0.7000
                               ***Turning on DIIS***
  2   -815.6918204667  -0.105612233210 0.12471616  0.00136721  0.0165499 0.0000
  3   -815.8373392909  -0.145518824195 0.02740504  0.00035452  0.0233930 0.0000
  4   -815.8789200360  -0.041580745106 0.02923365  0.00020138  0.0048953 0.0000
  5   -815.8806729981  -0.001752962150 0.01755219  0.00010512  0.0013684 0.0000
  6   -815.8808243266  -0.000151328450 0.01061448  0.00006541  0.0006463 0.0000
               *** Restarting incremental Fock matrix formation ***
                                   *** Resetting DIIS ***
  7   -815.8810904485  -0.000266121899 0.00302681  0.00002052  0.0010600 0.0000
  8   -815.8810868006   0.000003647873 0.00065509  0.00000550  0.0012815 0.0000
  9   -815.8811005019  -0.000013701349 0.00056359  0.00000359  0.0004430 0.0000
 10   -815.8811022293  -0.000001727412 0.00012443  0.00000106  0.0000610 0.0000
 11   -815.8811025817  -0.000000352325 0.00011901  0.00000070  0.0000277 0.0000
                 **** Energy Check signals convergence ****

               *****************************************************
               *                     SUCCESS                       *
               *           SCF CONVERGED AFTER  12 CYCLES          *
               *****************************************************

Old exchange energy                            =    -23.642557856 Eh
New exchange energy                            =    -23.642527690 Eh
Exchange energy change after final integration =      0.000030166 Eh
Total energy after final integration           =   -815.881072181 Eh
Final COS-X integration done in                =     8.494 sec

----------------
TOTAL SCF ENERGY
----------------

Total Energy       :         -815.88107218 Eh          -22201.25266 eV

Components:
Nuclear Repulsion  :         1438.09086744 Eh           39132.44196 eV
Electronic Energy  :        -2253.97193962 Eh          -61333.69462 eV
One Electron Energy:        -3954.86218422 Eh         -107617.27119 eV
Two Electron Energy:         1700.89024459 Eh           46283.57657 eV
Max COSX asymmetry :            0.00000315 Eh               0.00009 eV

Virial components:
Potential Energy   :        -1625.21626855 Eh          -44224.38299 eV
Kinetic Energy     :          809.33519636 Eh           22023.13033 eV
Virial Ratio       :            2.00808797


DFT components:
N(Alpha)           :       77.000101199531 electrons
N(Beta)            :       76.000079197589 electrons
N(Total)           :      153.000180397121 electrons
E(X)               :      -93.743024053880 Eh       
E(C)               :       -5.899466064671 Eh       
E(XC)              :      -99.642490118551 Eh       
DFET-embed. en.    :        0.000000000000 Eh       

---------------
SCF CONVERGENCE
---------------

  Last Energy change         ...    2.3474e-07  Tolerance :   1.0000e-06
  Last MAX-Density change    ...    0.0000e+00  Tolerance :   1.0000e-05
  Last RMS-Density change    ...    0.0000e+00  Tolerance :   1.0000e-06
  Last DIIS Error            ...    7.2601e-06  Tolerance :   1.0000e-06

             **** THE GBW FILE WAS UPDATED (EPRII.gbw) ****
             **** DENSITY EPRII.scfp WAS UPDATED ****
             **** ENERGY FILE WAS UPDATED (EPRII.en.tmp) ****
----------------------
UHF SPIN CONTAMINATION
----------------------

Warning: in a DFT calculation there is little theoretical justification to 
         calculate <S**2> as in Hartree-Fock theory. We will do it anyways
         but you should keep in mind that the values have only limited relevance

Expectation value of <S**2>     :     0.754011
Ideal value S*(S+1) for S=0.5   :     0.750000
Deviation                       :     0.004011

             **** THE GBW FILE WAS UPDATED (EPRII.gbw) ****
             **** DENSITY EPRII.scfp WAS UPDATED ****
----------------
ORBITAL ENERGIES
----------------
                 SPIN UP ORBITALS
  NO   OCC          E(Eh)            E(eV) 
   0   1.0000     -10.223028      -278.1827 
   1   1.0000     -10.223016      -278.1824 
   2   1.0000     -10.211308      -277.8638 
   3   1.0000     -10.211227      -277.8616 
   4   1.0000     -10.206147      -277.7234 
   5   1.0000     -10.205937      -277.7177 
   6   1.0000     -10.199592      -277.5450 
   7   1.0000     -10.199551      -277.5439 
   8   1.0000     -10.197942      -277.5001 
   9   1.0000     -10.197770      -277.4954 
  10   1.0000     -10.188529      -277.2440 
  11   1.0000     -10.188054      -277.2310 
  12   1.0000     -10.186030      -277.1760 
  13   1.0000     -10.185197      -277.1533 
  14   1.0000     -10.183802      -277.1153 
  15   1.0000     -10.182655      -277.0841 
  16   1.0000     -10.182368      -277.0763 
  17   1.0000     -10.182292      -277.0742 
  18   1.0000     -10.180099      -277.0146 
  19   1.0000     -10.173113      -276.8245 
  20   1.0000     -10.171560      -276.7822 
  21   1.0000      -0.874587       -23.7987 
  22   1.0000      -0.818353       -22.2685 
  23   1.0000      -0.804103       -21.8807 
  24   1.0000      -0.794671       -21.6241 
  25   1.0000      -0.783618       -21.3233 
  26   1.0000      -0.761667       -20.7260 
  27   1.0000      -0.753648       -20.5078 
  28   1.0000      -0.731277       -19.8991 
  29   1.0000      -0.721884       -19.6435 
  30   1.0000      -0.705524       -19.1983 
  31   1.0000      -0.673635       -18.3306 
  32   1.0000      -0.642920       -17.4947 
  33   1.0000      -0.637504       -17.3474 
  34   1.0000      -0.610990       -16.6259 
  35   1.0000      -0.589524       -16.0418 
  36   1.0000      -0.578196       -15.7335 
  37   1.0000      -0.564178       -15.3521 
  38   1.0000      -0.561887       -15.2897 
  39   1.0000      -0.543410       -14.7869 
  40   1.0000      -0.526233       -14.3195 
  41   1.0000      -0.499562       -13.5938 
  42   1.0000      -0.485299       -13.2056 
  43   1.0000      -0.475903       -12.9500 
  44   1.0000      -0.471052       -12.8180 
  45   1.0000      -0.469752       -12.7826 
  46   1.0000      -0.454652       -12.3717 
  47   1.0000      -0.432563       -11.7706 
  48   1.0000      -0.428731       -11.6664 
  49   1.0000      -0.427501       -11.6329 
  50   1.0000      -0.421018       -11.4565 
  51   1.0000      -0.415724       -11.3124 
  52   1.0000      -0.408817       -11.1245 
  53   1.0000      -0.406605       -11.0643 
  54   1.0000      -0.388072       -10.5600 
  55   1.0000      -0.383833       -10.4446 
  56   1.0000      -0.382182       -10.3997 
  57   1.0000      -0.370131       -10.0718 
  58   1.0000      -0.363469        -9.8905 
  59   1.0000      -0.356732        -9.7072 
  60   1.0000      -0.356248        -9.6940 
  61   1.0000      -0.349895        -9.5211 
  62   1.0000      -0.336147        -9.1470 
  63   1.0000      -0.335363        -9.1257 
  64   1.0000      -0.329305        -8.9608 
  65   1.0000      -0.328013        -8.9257 
  66   1.0000      -0.326325        -8.8798 
  67   1.0000      -0.323823        -8.8117 
  68   1.0000      -0.321807        -8.7568 
  69   1.0000      -0.319884        -8.7045 
  70   1.0000      -0.313693        -8.5360 
  71   1.0000      -0.280867        -7.6428 
  72   1.0000      -0.277928        -7.5628 
  73   1.0000      -0.276710        -7.5297 
  74   1.0000      -0.246626        -6.7110 
  75   1.0000      -0.220674        -6.0048 
  76   1.0000      -0.180480        -4.9111 
  77   0.0000      -0.053338        -1.4514 
  78   0.0000      -0.005269        -0.1434 
  79   0.0000       0.018969         0.5162 
  80   0.0000       0.021782         0.5927 
  81   0.0000       0.024671         0.6713 
  82   0.0000       0.027859         0.7581 
  83   0.0000       0.032372         0.8809 
  84   0.0000       0.037172         1.0115 
  85   0.0000       0.038167         1.0386 
  86   0.0000       0.042366         1.1528 
  87   0.0000       0.043597         1.1863 
  88   0.0000       0.044659         1.2152 
  89   0.0000       0.045489         1.2378 
  90   0.0000       0.053640         1.4596 
  91   0.0000       0.058147         1.5823 
  92   0.0000       0.073116         1.9896 
  93   0.0000       0.080369         2.1870 
  94   0.0000       0.090443         2.4611 
  95   0.0000       0.095733         2.6050 
  96   0.0000       0.105580         2.8730 
  97   0.0000       0.107891         2.9359 
  98   0.0000       0.113724         3.0946 
  99   0.0000       0.126231         3.4349 
 100   0.0000       0.146232         3.9792 
 101   0.0000       0.150769         4.1026 
 102   0.0000       0.155076         4.2198 
 103   0.0000       0.155987         4.2446 
 104   0.0000       0.159379         4.3369 
 105   0.0000       0.165441         4.5019 
 106   0.0000       0.175435         4.7738 
 107   0.0000       0.178781         4.8649 
 108   0.0000       0.184081         5.0091 
 109   0.0000       0.189793         5.1645 
 110   0.0000       0.190169         5.1747 
 111   0.0000       0.193194         5.2571 
 112   0.0000       0.196843         5.3564 
 113   0.0000       0.199210         5.4208 
 114   0.0000       0.199540         5.4298 
 115   0.0000       0.203898         5.5483 
 116   0.0000       0.212340         5.7781 
 117   0.0000       0.215472         5.8633 
 118   0.0000       0.215539         5.8651 
 119   0.0000       0.216904         5.9023 
 120   0.0000       0.220758         6.0071 
 121   0.0000       0.228549         6.2191 
 122   0.0000       0.229514         6.2454 
 123   0.0000       0.237268         6.4564 
 124   0.0000       0.241794         6.5795 
 125   0.0000       0.246047         6.6953 
 126   0.0000       0.249988         6.8025 
 127   0.0000       0.253335         6.8936 
 128   0.0000       0.257690         7.0121 
 129   0.0000       0.258653         7.0383 
 130   0.0000       0.264098         7.1865 
 131   0.0000       0.272512         7.4154 
 132   0.0000       0.278095         7.5674 
 133   0.0000       0.278623         7.5817 
 134   0.0000       0.280066         7.6210 
 135   0.0000       0.284309         7.7364 
 136   0.0000       0.291125         7.9219 
 137   0.0000       0.292991         7.9727 
 138   0.0000       0.294887         8.0243 
 139   0.0000       0.298426         8.1206 
 140   0.0000       0.301340         8.1999 
 141   0.0000       0.303675         8.2634 
 142   0.0000       0.311344         8.4721 
 143   0.0000       0.313002         8.5172 
 144   0.0000       0.315905         8.5962 
 145   0.0000       0.317540         8.6407 
 146   0.0000       0.319433         8.6922 
 147   0.0000       0.322860         8.7855 
 148   0.0000       0.327898         8.9226 
 149   0.0000       0.328661         8.9433 
 150   0.0000       0.336233         9.1494 
 151   0.0000       0.339023         9.2253 
 152   0.0000       0.345472         9.4008 
 153   0.0000       0.348816         9.4918 
 154   0.0000       0.349883         9.5208 
 155   0.0000       0.351294         9.5592 
 156   0.0000       0.364306         9.9133 
 157   0.0000       0.368522        10.0280 
 158   0.0000       0.371528        10.1098 
 159   0.0000       0.372360        10.1324 
 160   0.0000       0.375701        10.2233 
 161   0.0000       0.382013        10.3951 
 162   0.0000       0.390617        10.6292 
 163   0.0000       0.396368        10.7857 
 164   0.0000       0.400064        10.8863 
 165   0.0000       0.405835        11.0433 
 166   0.0000       0.408841        11.1251 
 167   0.0000       0.413929        11.2636 
 168   0.0000       0.418346        11.3838 
 169   0.0000       0.419916        11.4265 
 170   0.0000       0.426260        11.5991 
 171   0.0000       0.429892        11.6980 
 172   0.0000       0.442443        12.0395 
 173   0.0000       0.444313        12.0904 
 174   0.0000       0.447088        12.1659 
 175   0.0000       0.458323        12.4716 
 176   0.0000       0.458518        12.4769 
 177   0.0000       0.460193        12.5225 
 178   0.0000       0.466221        12.6865 
 179   0.0000       0.468829        12.7575 
 180   0.0000       0.476432        12.9644 
 181   0.0000       0.480865        13.0850 
 182   0.0000       0.500954        13.6316 
 183   0.0000       0.503054        13.6888 
 184   0.0000       0.508416        13.8347 
 185   0.0000       0.513883        13.9835 
 186   0.0000       0.517482        14.0814 
 187   0.0000       0.533616        14.5204 
 188   0.0000       0.537573        14.6281 
 189   0.0000       0.540294        14.7021 
 190   0.0000       0.544379        14.8133 
 191   0.0000       0.547779        14.9058 
 192   0.0000       0.556231        15.1358 
 193   0.0000       0.564052        15.3486 
 194   0.0000       0.572371        15.5750 
 195   0.0000       0.578566        15.7436 
 196   0.0000       0.584154        15.8956 
 197   0.0000       0.587117        15.9763 
 198   0.0000       0.589651        16.0452 
 199   0.0000       0.599555        16.3147 
 200   0.0000       0.606943        16.5158 
 201   0.0000       0.613997        16.7077 
 202   0.0000       0.628081        17.0910 
 203   0.0000       0.638019        17.3614 
 204   0.0000       0.655591        17.8395 
 205   0.0000       0.663535        18.0557 
 206   0.0000       0.676470        18.4077 
 207   0.0000       0.686560        18.6822 
 208   0.0000       0.714269        19.4362 
 209   0.0000       0.734176        19.9779 
 210   0.0000       0.764309        20.7979 
 211   0.0000       0.772333        21.0162 
 212   0.0000       0.778795        21.1921 
 213   0.0000       0.794985        21.6326 
 214   0.0000       0.795920        21.6581 
 215   0.0000       0.820289        22.3212 
 216   0.0000       0.829411        22.5694 
 217   0.0000       0.836360        22.7585 
 218   0.0000       0.838879        22.8271 
 219   0.0000       0.847560        23.0633 
 220   0.0000       0.848670        23.0935 
 221   0.0000       0.852756        23.2047 
 222   0.0000       0.859052        23.3760 
 223   0.0000       0.863365        23.4934 
 224   0.0000       0.871202        23.7066 
 225   0.0000       0.877002        23.8644 
 226   0.0000       0.882629        24.0175 
 227   0.0000       0.884706        24.0741 
 228   0.0000       0.895156        24.3584 
 229   0.0000       0.900727        24.5100 
 230   0.0000       0.908356        24.7176 
 231   0.0000       0.914585        24.8871 
 232   0.0000       0.918106        24.9829 
 233   0.0000       0.920158        25.0388 
 234   0.0000       0.923056        25.1176 
 235   0.0000       0.924624        25.1603 
 236   0.0000       0.935952        25.4685 
 237   0.0000       0.944548        25.7025 
 238   0.0000       0.945851        25.7379 
 239   0.0000       0.956307        26.0224 
 240   0.0000       0.958000        26.0685 
 241   0.0000       0.966700        26.3052 
 242   0.0000       0.973541        26.4914 
 243   0.0000       0.982570        26.7371 
 244   0.0000       0.987329        26.8666 
 245   0.0000       0.990381        26.9496 
 246   0.0000       0.990969        26.9656 
 247   0.0000       0.995772        27.0963 
 248   0.0000       1.006913        27.3995 
 249   0.0000       1.008824        27.4515 
 250   0.0000       1.014641        27.6098 
 251   0.0000       1.030141        28.0316 
 252   0.0000       1.032275        28.0896 
 253   0.0000       1.034387        28.1471 
 254   0.0000       1.036649        28.2086 
 255   0.0000       1.039706        28.2918 
 256   0.0000       1.049859        28.5681 
 257   0.0000       1.054690        28.6996 
 258   0.0000       1.059358        28.8266 
 259   0.0000       1.082534        29.4573 
 260   0.0000       1.085911        29.5491 
 261   0.0000       1.092928        29.7401 
 262   0.0000       1.105953        30.0945 
 263   0.0000       1.106586        30.1117 
 264   0.0000       1.115199        30.3461 
 265   0.0000       1.118592        30.4384 
 266   0.0000       1.131565        30.7914 
 267   0.0000       1.141301        31.0564 
 268   0.0000       1.142805        31.0973 
 269   0.0000       1.152221        31.3535 
 270   0.0000       1.153102        31.3775 
 271   0.0000       1.169041        31.8112 
 272   0.0000       1.176623        32.0175 
 273   0.0000       1.186160        32.2771 
 274   0.0000       1.190844        32.4045 
 275   0.0000       1.196399        32.5557 
 276   0.0000       1.200979        32.6803 
 277   0.0000       1.203426        32.7469 
 278   0.0000       1.217692        33.1351 
 279   0.0000       1.225565        33.3493 
 280   0.0000       1.232559        33.5396 
 281   0.0000       1.234312        33.5873 
 282   0.0000       1.239080        33.7171 
 283   0.0000       1.245236        33.8846 
 284   0.0000       1.253958        34.1219 
 285   0.0000       1.255894        34.1746 
 286   0.0000       1.260822        34.3087 
 287   0.0000       1.282489        34.8983 
 288   0.0000       1.293876        35.2081 
 289   0.0000       1.294874        35.2353 
 290   0.0000       1.305137        35.5146 
 291   0.0000       1.305971        35.5373 
 292   0.0000       1.314609        35.7723 
 293   0.0000       1.335119        36.3304 
 294   0.0000       1.343361        36.5547 
 295   0.0000       1.353361        36.8268 
 296   0.0000       1.368565        37.2406 
 297   0.0000       1.370195        37.2849 
 298   0.0000       1.380599        37.5680 
 299   0.0000       1.387630        37.7593 
 300   0.0000       1.396256        37.9940 
 301   0.0000       1.401258        38.1302 
 302   0.0000       1.408361        38.3234 
 303   0.0000       1.414647        38.4945 
 304   0.0000       1.427476        38.8436 
 305   0.0000       1.430919        38.9373 
 306   0.0000       1.438501        39.1436 
 307   0.0000       1.442765        39.2596 
 308   0.0000       1.449635        39.4466 
 309   0.0000       1.456231        39.6261 
 310   0.0000       1.462424        39.7946 
 311   0.0000       1.487285        40.4711 
 312   0.0000       1.497870        40.7591 
 313   0.0000       1.500401        40.8280 
 314   0.0000       1.517320        41.2884 
 315   0.0000       1.518803        41.3287 
 316   0.0000       1.523132        41.4465 
 317   0.0000       1.525128        41.5008 
 318   0.0000       1.533207        41.7207 
 319   0.0000       1.539920        41.9033 
 320   0.0000       1.545597        42.0578 
 321   0.0000       1.558223        42.4014 
 322   0.0000       1.559843        42.4455 
 323   0.0000       1.560605        42.4662 
 324   0.0000       1.579449        42.9790 
 325   0.0000       1.588074        43.2137 
 326   0.0000       1.592764        43.3413 
 327   0.0000       1.598834        43.5065 
 328   0.0000       1.600859        43.5616 
 329   0.0000       1.605849        43.6974 
 330   0.0000       1.609731        43.8030 
 331   0.0000       1.613179        43.8968 
 332   0.0000       1.614580        43.9349 
 333   0.0000       1.626585        44.2616 
 334   0.0000       1.629455        44.3397 
 335   0.0000       1.645461        44.7753 
 336   0.0000       1.651199        44.9314 
 337   0.0000       1.653437        44.9923 
 338   0.0000       1.672117        45.5006 
 339   0.0000       1.679636        45.7052 
 340   0.0000       1.683536        45.8114 
 341   0.0000       1.687772        45.9266 
 342   0.0000       1.690306        45.9956 
 343   0.0000       1.694581        46.1119 
 344   0.0000       1.704899        46.3927 
 345   0.0000       1.710319        46.5401 
 346   0.0000       1.722431        46.8697 
 347   0.0000       1.725900        46.9641 
 348   0.0000       1.731344        47.1123 
 349   0.0000       1.741062        47.3767 
 350   0.0000       1.743304        47.4377 
 351   0.0000       1.755699        47.7750 
 352   0.0000       1.759435        47.8767 
 353   0.0000       1.760139        47.8958 
 354   0.0000       1.776148        48.3314 
 355   0.0000       1.779648        48.4267 
 356   0.0000       1.782117        48.4939 
 357   0.0000       1.788503        48.6677 
 358   0.0000       1.798912        48.9509 
 359   0.0000       1.805380        49.1269 
 360   0.0000       1.810776        49.2737 
 361   0.0000       1.812535        49.3216 
 362   0.0000       1.816697        49.4348 
 363   0.0000       1.843069        50.1525 
 364   0.0000       1.854712        50.4693 
 365   0.0000       1.862744        50.6878 
 366   0.0000       1.886365        51.3306 
 367   0.0000       1.896520        51.6069 
 368   0.0000       1.903736        51.8033 
 369   0.0000       1.917196        52.1695 
 370   0.0000       1.921792        52.2946 
 371   0.0000       1.925348        52.3914 
 372   0.0000       1.936247        52.6879 
 373   0.0000       1.942524        52.8588 
 374   0.0000       1.950889        53.0864 
 375   0.0000       1.973606        53.7045 
 376   0.0000       1.990331        54.1597 
 377   0.0000       2.006050        54.5874 
 378   0.0000       2.023916        55.0736 
 379   0.0000       2.041429        55.5501 
 380   0.0000       2.052972        55.8642 
 381   0.0000       2.069427        56.3120 
 382   0.0000       2.072549        56.3969 
 383   0.0000       2.092684        56.9448 
 384   0.0000       2.111314        57.4518 
 385   0.0000       2.114015        57.5253 
 386   0.0000       2.124296        57.8050 
 387   0.0000       2.148903        58.4746 
 388   0.0000       2.153021        58.5867 
 389   0.0000       2.159628        58.7665 
 390   0.0000       2.168273        59.0017 
 391   0.0000       2.181372        59.3582 
 392   0.0000       2.197012        59.7837 
 393   0.0000       2.200213        59.8708 
 394   0.0000       2.213850        60.2419 
 395   0.0000       2.228872        60.6507 
 396   0.0000       2.251005        61.2530 
 397   0.0000       2.251947        61.2786 
 398   0.0000       2.254581        61.3503 
 399   0.0000       2.255761        61.3824 
 400   0.0000       2.266008        61.6612 
 401   0.0000       2.281842        62.0921 
 402   0.0000       2.298960        62.5579 
 403   0.0000       2.301567        62.6288 
 404   0.0000       2.309734        62.8510 
 405   0.0000       2.311748        62.9059 
 406   0.0000       2.315087        62.9967 
 407   0.0000       2.327119        63.3241 
 408   0.0000       2.330901        63.4270 
 409   0.0000       2.341088        63.7043 
 410   0.0000       2.349330        63.9285 
 411   0.0000       2.353927        64.0536 
 412   0.0000       2.379043        64.7370 
 413   0.0000       2.400081        65.3095 
 414   0.0000       2.408726        65.5448 
 415   0.0000       2.416765        65.7635 
 416   0.0000       2.429890        66.1207 
 417   0.0000       2.433249        66.2121 
 418   0.0000       2.436948        66.3127 
 419   0.0000       2.454914        66.8016 
 420   0.0000       2.459029        66.9136 
 421   0.0000       2.470571        67.2277 
 422   0.0000       2.476272        67.3828 
 423   0.0000       2.488183        67.7069 
 424   0.0000       2.493246        67.8447 
 425   0.0000       2.501901        68.0802 
 426   0.0000       2.517188        68.4962 
 427   0.0000       2.521973        68.6264 
 428   0.0000       2.525147        68.7128 
 429   0.0000       2.546824        69.3026 
 430   0.0000       2.553750        69.4911 
 431   0.0000       2.564889        69.7942 
 432   0.0000       2.568515        69.8928 
 433   0.0000       2.572104        69.9905 
 434   0.0000       2.585542        70.3562 
 435   0.0000       2.593217        70.5650 
 436   0.0000       2.614087        71.1329 
 437   0.0000       2.615677        71.1762 
 438   0.0000       2.624984        71.4294 
 439   0.0000       2.639753        71.8313 
 440   0.0000       2.704857        73.6029 
 441   0.0000       2.732976        74.3681 
 442   0.0000       2.770955        75.4015 
 443   0.0000       2.788631        75.8825 
 444   0.0000       2.818635        76.6990 
 445   0.0000       2.867975        78.0416 
 446   0.0000       2.946108        80.1677 
 447   0.0000       2.962828        80.6227 
 448   0.0000       2.967503        80.7499 
 449   0.0000       3.274398        89.1009 
 450   0.0000       4.984031       135.6224 
 451   0.0000       4.985607       135.6653 
 452   0.0000       4.999250       136.0365 
 453   0.0000       5.003237       136.1450 
 454   0.0000       5.010123       136.3324 
 455   0.0000       5.011520       136.3704 
 456   0.0000       5.015327       136.4740 
 457   0.0000       5.020307       136.6095 
 458   0.0000       5.029793       136.8676 
 459   0.0000       5.034956       137.0081 
 460   0.0000       5.039057       137.1197 
 461   0.0000       5.047801       137.3576 
 462   0.0000       5.050241       137.4240 
 463   0.0000       5.141829       139.9163 
 464   0.0000       5.181439       140.9941 
 465   0.0000       5.223302       142.1333 
 466   0.0000       5.232251       142.3768 
 467   0.0000       5.259395       143.1154 
 468   0.0000       5.265141       143.2718 
 469   0.0000       5.275219       143.5460 
 470   0.0000       5.285889       143.8364 
 471   0.0000       5.301178       144.2524 
 472   0.0000       5.304339       144.3384 
 473   0.0000       5.309095       144.4678 
 474   0.0000       5.330878       145.0606 
 475   0.0000       5.339649       145.2992 
 476   0.0000       5.367537       146.0581 
 477   0.0000       5.377870       146.3393 
 478   0.0000       5.394547       146.7931 
 479   0.0000       5.395155       146.8096 
 480   0.0000       5.428690       147.7222 
 481   0.0000       5.444913       148.1636 
 482   0.0000       5.504018       149.7720 
 483   0.0000       5.560121       151.2986 
 484   0.0000       5.593712       152.2126 
 485   0.0000       5.610865       152.6794 
 486   0.0000       5.631411       153.2385 
 487   0.0000       5.654176       153.8580 
 488   0.0000       5.716749       155.5607 
 489   0.0000       5.731506       155.9622 
 490   0.0000       5.765943       156.8993 
 491   0.0000       5.814444       158.2191 
 492   0.0000       5.835891       158.8027 
 493   0.0000       5.865642       159.6122 
 494   0.0000       5.896503       160.4520 
 495   0.0000       6.021024       163.8404 
 496   0.0000       6.246821       169.9846 
 497   0.0000       6.361500       173.1052 
 498   0.0000      29.617281       805.9272 
 499   0.0000      29.714258       808.5661 
 500   0.0000      29.820416       811.4548 
 501   0.0000      29.855700       812.4149 
 502   0.0000      29.856248       812.4298 
 503   0.0000      29.922260       814.2261 
 504   0.0000      29.982501       815.8653 
 505   0.0000      30.031812       817.2072 
 506   0.0000      30.055610       817.8547 
 507   0.0000      30.095498       818.9401 
 508   0.0000      30.099511       819.0493 
 509   0.0000      30.129841       819.8747 
 510   0.0000      30.160378       820.7056 
 511   0.0000      30.199347       821.7660 
 512   0.0000      30.209259       822.0357 
 513   0.0000      30.248312       823.0984 
 514   0.0000      30.274510       823.8113 
 515   0.0000      30.301649       824.5498 
 516   0.0000      30.336392       825.4952 
 517   0.0000      30.454861       828.7189 
 518   0.0000      30.585907       832.2849 
 519   0.0000      36.611665       996.2540 
 520   0.0000      36.613612       996.3070 
 521   0.0000      36.624092       996.5922 
 522   0.0000      36.630104       996.7558 
 523   0.0000      36.635637       996.9064 
 524   0.0000      36.637808       996.9654 
 525   0.0000      36.644142       997.1378 
 526   0.0000      36.650319       997.3059 
 527   0.0000      36.661271       997.6039 
 528   0.0000      36.661782       997.6178 
 529   0.0000      36.672950       997.9217 
 530   0.0000      36.676132       998.0083 
 531   0.0000      36.773139      1000.6480 
 532   0.0000      36.826721      1002.1060 
 533   0.0000      36.844879      1002.6001 
 534   0.0000      36.854037      1002.8493 
 535   0.0000      36.864942      1003.1461 
 536   0.0000      36.871259      1003.3180 
 537   0.0000      36.875826      1003.4422 
 538   0.0000      36.883413      1003.6487 
 539   0.0000      36.885750      1003.7123 
 540   0.0000      36.929040      1004.8903 
 541   0.0000      36.934583      1005.0411 
 542   0.0000      36.944370      1005.3074 
 543   0.0000      36.947274      1005.3864 
 544   0.0000      36.998278      1006.7743 
 545   0.0000      37.025622      1007.5184 

                 SPIN DOWN ORBITALS
  NO   OCC          E(Eh)            E(eV) 
   0   1.0000     -10.223023      -278.1826 
   1   1.0000     -10.223017      -278.1824 
   2   1.0000     -10.211316      -277.8640 
   3   1.0000     -10.211222      -277.8615 
   4   1.0000     -10.206148      -277.7234 
   5   1.0000     -10.205936      -277.7176 
   6   1.0000     -10.199586      -277.5448 
   7   1.0000     -10.199554      -277.5440 
   8   1.0000     -10.197941      -277.5001 
   9   1.0000     -10.197771      -277.4954 
  10   1.0000     -10.188518      -277.2437 
  11   1.0000     -10.188054      -277.2310 
  12   1.0000     -10.186099      -277.1778 
  13   1.0000     -10.183574      -277.1091 
  14   1.0000     -10.183250      -277.1003 
  15   1.0000     -10.182655      -277.0841 
  16   1.0000     -10.182292      -277.0742 
  17   1.0000     -10.179862      -277.0081 
  18   1.0000     -10.173113      -276.8245 
  19   1.0000     -10.172319      -276.8029 
  20   1.0000     -10.171554      -276.7820 
  21   1.0000      -0.874575       -23.7984 
  22   1.0000      -0.817574       -22.2473 
  23   1.0000      -0.797630       -21.7046 
  24   1.0000      -0.794526       -21.6202 
  25   1.0000      -0.781959       -21.2782 
  26   1.0000      -0.760581       -20.6965 
  27   1.0000      -0.753338       -20.4994 
  28   1.0000      -0.727034       -19.7836 
  29   1.0000      -0.721791       -19.6409 
  30   1.0000      -0.702130       -19.1059 
  31   1.0000      -0.672852       -18.3092 
  32   1.0000      -0.642508       -17.4835 
  33   1.0000      -0.636657       -17.3243 
  34   1.0000      -0.608904       -16.5691 
  35   1.0000      -0.588153       -16.0045 
  36   1.0000      -0.577138       -15.7047 
  37   1.0000      -0.563740       -15.3401 
  38   1.0000      -0.547216       -14.8905 
  39   1.0000      -0.543106       -14.7787 
  40   1.0000      -0.525591       -14.3021 
  41   1.0000      -0.499209       -13.5842 
  42   1.0000      -0.485274       -13.2050 
  43   1.0000      -0.475732       -12.9453 
  44   1.0000      -0.470118       -12.7926 
  45   1.0000      -0.466047       -12.6818 
  46   1.0000      -0.452274       -12.3070 
  47   1.0000      -0.431370       -11.7382 
  48   1.0000      -0.426544       -11.6069 
  49   1.0000      -0.426197       -11.5974 
  50   1.0000      -0.420684       -11.4474 
  51   1.0000      -0.415426       -11.3043 
  52   1.0000      -0.405899       -11.0451 
  53   1.0000      -0.401877       -10.9356 
  54   1.0000      -0.386559       -10.5188 
  55   1.0000      -0.381831       -10.3902 
  56   1.0000      -0.379305       -10.3214 
  57   1.0000      -0.368839       -10.0366 
  58   1.0000      -0.362084        -9.8528 
  59   1.0000      -0.355844        -9.6830 
  60   1.0000      -0.354497        -9.6464 
  61   1.0000      -0.348878        -9.4935 
  62   1.0000      -0.334806        -9.1105 
  63   1.0000      -0.334043        -9.0898 
  64   1.0000      -0.327964        -8.9244 
  65   1.0000      -0.326714        -8.8903 
  66   1.0000      -0.325377        -8.8539 
  67   1.0000      -0.323574        -8.8049 
  68   1.0000      -0.320613        -8.7243 
  69   1.0000      -0.319162        -8.6848 
  70   1.0000      -0.310917        -8.4605 
  71   1.0000      -0.280858        -7.6425 
  72   1.0000      -0.277927        -7.5628 
  73   1.0000      -0.276699        -7.5294 
  74   1.0000      -0.246564        -6.7093 
  75   1.0000      -0.220637        -6.0038 
  76   0.0000      -0.053351        -1.4518 
  77   0.0000      -0.037908        -1.0315 
  78   0.0000      -0.005132        -0.1397 
  79   0.0000       0.019099         0.5197 
  80   0.0000       0.021997         0.5986 
  81   0.0000       0.025167         0.6848 
  82   0.0000       0.028032         0.7628 
  83   0.0000       0.033282         0.9057 
  84   0.0000       0.037300         1.0150 
  85   0.0000       0.038333         1.0431 
  86   0.0000       0.042468         1.1556 
  87   0.0000       0.043606         1.1866 
  88   0.0000       0.044922         1.2224 
  89   0.0000       0.045556         1.2396 
  90   0.0000       0.053913         1.4670 
  91   0.0000       0.058586         1.5942 
  92   0.0000       0.073184         1.9914 
  93   0.0000       0.080608         2.1935 
  94   0.0000       0.090940         2.4746 
  95   0.0000       0.096362         2.6221 
  96   0.0000       0.105599         2.8735 
  97   0.0000       0.108799         2.9606 
  98   0.0000       0.113960         3.1010 
  99   0.0000       0.126770         3.4496 
 100   0.0000       0.146466         3.9856 
 101   0.0000       0.151304         4.1172 
 102   0.0000       0.155345         4.2271 
 103   0.0000       0.156169         4.2496 
 104   0.0000       0.159775         4.3477 
 105   0.0000       0.166567         4.5325 
 106   0.0000       0.176798         4.8109 
 107   0.0000       0.179359         4.8806 
 108   0.0000       0.185921         5.0592 
 109   0.0000       0.190516         5.1842 
 110   0.0000       0.193314         5.2603 
 111   0.0000       0.194296         5.2871 
 112   0.0000       0.197342         5.3700 
 113   0.0000       0.199323         5.4238 
 114   0.0000       0.200762         5.4630 
 115   0.0000       0.204651         5.5688 
 116   0.0000       0.214034         5.8242 
 117   0.0000       0.215519         5.8646 
 118   0.0000       0.216156         5.8819 
 119   0.0000       0.219013         5.9596 
 120   0.0000       0.220797         6.0082 
 121   0.0000       0.228704         6.2233 
[...]
  Y           0.4362719           -0.5612943            0.7032890
  Z           0.7823880            0.6226829            0.0116232

Notes:  (1) The A matrix conforms to the "SAI" spin Hamiltonian convention.
        (2) Tensor is right-handed.

 -----------------------------------------------------------
 Nucleus  45H : A:ISTP=    1 I=  0.5 P=533.5514 MHz/au**3
                Q:ISTP=    2 I=  1.0 Q=  0.0029 barn     
 -----------------------------------------------------------
 Solving for nuclear perturbation:
Forming RHS of the CP-SCF equations         ... 
Calc. nucleus orbit integrals (SHARK)       ... done

------------------------------------------------------------------------------
                           ORCA CP-SCF CALCULATION
------------------------------------------------------------------------------

Input orbitals are from        ... EPRII.gbw
Input Perturbation             ... EPRII.pin.tmp
Wavefunction output            ... EPRII.pout.tmp
Perturbation mode              ... Imaginary perturbation
Solver                         ... POPLE
Max. number of iterations      ... 64
Convergence tolerance          ... 1.000e-03
Integral handling              ... Direct
DFT GridXC                     ... 1
COSX GridX                     ... 1
COSX IntAccX                   ... 3.067
COSX Algorithm                 ... Auto
Number of perturbations        ... 3
Number of operators            ... 2
Orbital ranges used for CP-SCF:
 Operator 0:  Orbitals   0... 76  to  77...545
 Operator 1:  Orbitals   0... 75  to  76...545
Variables per perturbation     ... 71833
DFT calculation                         ... on
XC functional terms                     ... off
Hybrid DFT                              ... on
   Exchange mixing (SCF)                ...  0.200
   Exchange mixing (CP-SCF)             ...  0.200
   GGA exch. scaling(SCF)               ...  0.720
   GGA exch. scaling (CP-SCF)           ...  0.720
   GGA corr. scaling (SCF)              ...  0.810
   GGA corr. scaling (CP-SCF)           ...  0.810

CP-SCF GRID
-----------

General Integration Accuracy     IntAcc      ... 3.467
Radial Grid Type                 RadialGrid  ... OptM3 with GC (2021)
Angular Grid (max. ang.)         AngularGrid ... 1 (Lebedev-50)
Angular grid pruning method      GridPruning ... 4 (adaptive)
Weight generation scheme         WeightScheme... Becke
Basis function cutoff            BFCut       ... 1.0000e-10
Integration weight cutoff        WCut        ... 1.0000e-14
Angular grids for H and He will be reduced by one unit
Partially contracted basis set               ... off
Rotationally invariant grid construction     ... off

Total number of grid points                  ...    29776
Total number of batches                      ...      486
Average number of points per batch           ...       61
Average number of grid points per atom       ...      620

CP-SCF GRIDX
------------

General Integration Accuracy     IntAcc      ... 3.067
Radial Grid Type                 RadialGrid  ... OptM3 with GC (2021)
Angular Grid (max. ang.)         AngularGrid ... 1 (Lebedev-50)
Angular grid pruning method      GridPruning ... 4 (adaptive)
Weight generation scheme         WeightScheme... Becke
Basis function cutoff            BFCut       ... 1.0000e-10
Integration weight cutoff        WCut        ... 1.0000e-14
Angular grids for H and He will be reduced by one unit
Partially contracted basis set               ... on
Rotationally invariant grid construction     ... off

Total number of grid points                  ...    14110
Total number of batches                      ...      250
Average number of points per batch           ...       56
Average number of grid points per atom       ...      294

Memory available               ... 864.3 MB
Memory needed per perturbation ...  17.4 MB
Perturbations treated per batch... 3
Number of batches              ... 1
     CP-SCF ITERATION   0:   1.0113e-01 (   2.1 sec   0/  3 done)
     CP-SCF ITERATION   1:   1.7247e-03 (   1.9 sec   1/  3 done)
     CP-SCF ITERATION   2:   1.5097e-04 (   1.6 sec   3/  3 done)
                    *** THE CP-SCF HAS CONVERGED ***

Forming final perturbed densities           ... done
Transforming perturbed density to AO basis  ... done

 Raw HFC matrix (all values in MHz): 
 -----------------------------------
                -0.0392              -0.2304               0.0107
                -0.2304               0.1944              -0.0201
                 0.0108              -0.0201              -0.1800

 A(FC)          -0.0083              -0.0083              -0.0083
 A(SD)          -0.1713              -0.1739               0.3452
 A(ORB+DIA)      0.0000               0.0000               0.0001    A(PC) =   0.0000
 A(ORB)         -0.0000              -0.0000               0.0001    A(PC) =   0.0000
 A(DIA)          0.0000               0.0000               0.0000    A(PC) =   0.0000
             ----------           ----------           ----------
 A(Tot)         -0.1795              -0.1822               0.3369    A(iso)=   -0.0083
 Orientation: 
  X          -0.6433707            0.5592995           -0.5227411
  Y          -0.3601926            0.3813759            0.8513599
  Z           0.6755260            0.7360275           -0.0439105

Notes:  (1) The A matrix conforms to the "SAI" spin Hamiltonian convention.
        (2) Tensor is right-handed.

 -----------------------------------------------------------
 Nucleus  46H : A:ISTP=    1 I=  0.5 P=533.5514 MHz/au**3
                Q:ISTP=    2 I=  1.0 Q=  0.0029 barn     
 -----------------------------------------------------------
 Solving for nuclear perturbation:
Forming RHS of the CP-SCF equations         ... 
Calc. nucleus orbit integrals (SHARK)       ... done

------------------------------------------------------------------------------
                           ORCA CP-SCF CALCULATION
------------------------------------------------------------------------------

Input orbitals are from        ... EPRII.gbw
Input Perturbation             ... EPRII.pin.tmp
Wavefunction output            ... EPRII.pout.tmp
Perturbation mode              ... Imaginary perturbation
Solver                         ... POPLE
Max. number of iterations      ... 64
Convergence tolerance          ... 1.000e-03
Integral handling              ... Direct
DFT GridXC                     ... 1
COSX GridX                     ... 1
COSX IntAccX                   ... 3.067
COSX Algorithm                 ... Auto
Number of perturbations        ... 3
Number of operators            ... 2
Orbital ranges used for CP-SCF:
 Operator 0:  Orbitals   0... 76  to  77...545
 Operator 1:  Orbitals   0... 75  to  76...545
Variables per perturbation     ... 71833
DFT calculation                         ... on
XC functional terms                     ... off
Hybrid DFT                              ... on
   Exchange mixing (SCF)                ...  0.200
   Exchange mixing (CP-SCF)             ...  0.200
   GGA exch. scaling(SCF)               ...  0.720
   GGA exch. scaling (CP-SCF)           ...  0.720
   GGA corr. scaling (SCF)              ...  0.810
   GGA corr. scaling (CP-SCF)           ...  0.810

CP-SCF GRID
-----------

General Integration Accuracy     IntAcc      ... 3.467
Radial Grid Type                 RadialGrid  ... OptM3 with GC (2021)
Angular Grid (max. ang.)         AngularGrid ... 1 (Lebedev-50)
Angular grid pruning method      GridPruning ... 4 (adaptive)
Weight generation scheme         WeightScheme... Becke
Basis function cutoff            BFCut       ... 1.0000e-10
Integration weight cutoff        WCut        ... 1.0000e-14
Angular grids for H and He will be reduced by one unit
Partially contracted basis set               ... off
Rotationally invariant grid construction     ... off

Total number of grid points                  ...    29776
Total number of batches                      ...      486
Average number of points per batch           ...       61
Average number of grid points per atom       ...      620

CP-SCF GRIDX
------------

General Integration Accuracy     IntAcc      ... 3.067
Radial Grid Type                 RadialGrid  ... OptM3 with GC (2021)
Angular Grid (max. ang.)         AngularGrid ... 1 (Lebedev-50)
Angular grid pruning method      GridPruning ... 4 (adaptive)
Weight generation scheme         WeightScheme... Becke
Basis function cutoff            BFCut       ... 1.0000e-10
Integration weight cutoff        WCut        ... 1.0000e-14
Angular grids for H and He will be reduced by one unit
Partially contracted basis set               ... on
Rotationally invariant grid construction     ... off

Total number of grid points                  ...    14110
Total number of batches                      ...      250
Average number of points per batch           ...       56
Average number of grid points per atom       ...      294

Memory available               ... 863.7 MB
Memory needed per perturbation ...  17.4 MB
Perturbations treated per batch... 3
Number of batches              ... 1
     CP-SCF ITERATION   0:   3.7085e-02 (   2.0 sec   0/  3 done)
     CP-SCF ITERATION   1:   6.1905e-04 (   1.8 sec   3/  3 done)
                    *** THE CP-SCF HAS CONVERGED ***

Forming final perturbed densities           ... done
Transforming perturbed density to AO basis  ... done

 Raw HFC matrix (all values in MHz): 
 -----------------------------------
                -0.0261               0.0176              -0.0005
                 0.0176               0.0559              -0.0019
                -0.0005              -0.0019              -0.0297

 A(FC)           0.0000               0.0000               0.0000
 A(SD)          -0.0296              -0.0299               0.0595
 A(ORB+DIA)      0.0000               0.0000               0.0000    A(PC) =   0.0000
 A(ORB)          0.0000              -0.0000               0.0000    A(PC) =   0.0000
 A(DIA)          0.0000               0.0000               0.0000    A(PC) =   0.0000
             ----------           ----------           ----------
 A(Tot)         -0.0296              -0.0298               0.0595    A(iso)=    0.0000
 Orientation: 
  X           0.6824050            0.7026966           -0.2013477
  Y          -0.1564887           -0.1286255           -0.9792685
  Z          -0.7140271            0.6997664            0.0221894

Notes:  (1) The A matrix conforms to the "SAI" spin Hamiltonian convention.
        (2) Tensor is right-handed.

 -----------------------------------------------------------
 Nucleus  47H : A:ISTP=    1 I=  0.5 P=533.5514 MHz/au**3
                Q:ISTP=    2 I=  1.0 Q=  0.0029 barn     
 -----------------------------------------------------------
 Solving for nuclear perturbation:
Forming RHS of the CP-SCF equations         ... 
Calc. nucleus orbit integrals (SHARK)       ... done

------------------------------------------------------------------------------
                           ORCA CP-SCF CALCULATION
------------------------------------------------------------------------------

Input orbitals are from        ... EPRII.gbw
Input Perturbation             ... EPRII.pin.tmp
Wavefunction output            ... EPRII.pout.tmp
Perturbation mode              ... Imaginary perturbation
Solver                         ... POPLE
Max. number of iterations      ... 64
Convergence tolerance          ... 1.000e-03
Integral handling              ... Direct
DFT GridXC                     ... 1
COSX GridX                     ... 1
COSX IntAccX                   ... 3.067
COSX Algorithm                 ... Auto
Number of perturbations        ... 3
Number of operators            ... 2
Orbital ranges used for CP-SCF:
 Operator 0:  Orbitals   0... 76  to  77...545
 Operator 1:  Orbitals   0... 75  to  76...545
Variables per perturbation     ... 71833
DFT calculation                         ... on
XC functional terms                     ... off
Hybrid DFT                              ... on
   Exchange mixing (SCF)                ...  0.200
   Exchange mixing (CP-SCF)             ...  0.200
   GGA exch. scaling(SCF)               ...  0.720
   GGA exch. scaling (CP-SCF)           ...  0.720
   GGA corr. scaling (SCF)              ...  0.810
   GGA corr. scaling (CP-SCF)           ...  0.810

CP-SCF GRID
-----------

General Integration Accuracy     IntAcc      ... 3.467
Radial Grid Type                 RadialGrid  ... OptM3 with GC (2021)
Angular Grid (max. ang.)         AngularGrid ... 1 (Lebedev-50)
Angular grid pruning method      GridPruning ... 4 (adaptive)
Weight generation scheme         WeightScheme... Becke
Basis function cutoff            BFCut       ... 1.0000e-10
Integration weight cutoff        WCut        ... 1.0000e-14
Angular grids for H and He will be reduced by one unit
Partially contracted basis set               ... off
Rotationally invariant grid construction     ... off

Total number of grid points                  ...    29776
Total number of batches                      ...      486
Average number of points per batch           ...       61
Average number of grid points per atom       ...      620

CP-SCF GRIDX
------------

General Integration Accuracy     IntAcc      ... 3.067
Radial Grid Type                 RadialGrid  ... OptM3 with GC (2021)
Angular Grid (max. ang.)         AngularGrid ... 1 (Lebedev-50)
Angular grid pruning method      GridPruning ... 4 (adaptive)
Weight generation scheme         WeightScheme... Becke
Basis function cutoff            BFCut       ... 1.0000e-10
Integration weight cutoff        WCut        ... 1.0000e-14
Angular grids for H and He will be reduced by one unit
Partially contracted basis set               ... on
Rotationally invariant grid construction     ... off

Total number of grid points                  ...    14110
Total number of batches                      ...      250
Average number of points per batch           ...       56
Average number of grid points per atom       ...      294

Memory available               ... 863.1 MB
Memory needed per perturbation ...  17.4 MB
Perturbations treated per batch... 3
Number of batches              ... 1
     CP-SCF ITERATION   0:   3.6763e-02 (   1.9 sec   0/  3 done)
     CP-SCF ITERATION   1:   5.2492e-04 (   1.8 sec   3/  3 done)
                    *** THE CP-SCF HAS CONVERGED ***

Forming final perturbed densities           ... done
Transforming perturbed density to AO basis  ... done

 Raw HFC matrix (all values in MHz): 
 -----------------------------------
                -0.9769              -0.2030              -0.1355
                -0.2029               1.0130               0.4035
                -0.1354               0.4034              -1.0004

 A(FC)          -0.3215              -0.3215              -0.3215
 A(SD)          -0.6165               1.4360              -0.8196
 A(ORB+DIA)     -0.0001               0.0006              -0.0002    A(PC) =   0.0001
 A(ORB)          0.0000               0.0004              -0.0002    A(PC) =   0.0001
 A(DIA)         -0.0001               0.0001              -0.0000    A(PC) =  -0.0000
             ----------           ----------           ----------
 A(Tot)         -0.9381               1.1151              -1.1413    A(iso)=   -0.3214
 Orientation: 
  X          -0.8255831            0.1070890            0.5540257
  Y          -0.1953409           -0.9753582           -0.1025584
  Z           0.5293906           -0.1928943            0.8261582

Notes:  (1) The A matrix conforms to the "SAI" spin Hamiltonian convention.
        (2) Tensor is right-handed.


--------------------------------------------------------------------------------
----------------------------------------------------------------------------
                           ORCA EULER ANGLE PROGRAM
----------------------------------------------------------------------------

Only g-tensor available        -->  using g-tensor as reference tensor

Reference tensor               ...  g

g-tensor ordering              ...  |g_min> --> |gx>
                                    |g_mid> --> |gy>
                                    |g_max> --> |gz>

A- and EFG-tensor ordering     ...  the axes |Ax>, |Qx>, |Ay>, etc. are assigned
                                    such that the Euler rotation is minimal. You
                                    can find the respective eigenvalues as Ax,
                                    EFGx, Ay, etc. in the tables below.
                                    The relation of |Ax>, |Ay>,  etc. to Amin, Amid, etc.
                                    (as printed in the ORCA EPR/NMR CALCULATION Output)
                                    is obtained in the detailed printout.

Euler rotation around          ...  z - y - z
   First rotation              -->  by alpha around z
   Second rotation             -->  by beta around y'
   Third rotation              -->  by gamma around z''
   Positive / Negative angle   -->  clockwise / counterclockwise rotation

Plot EFG-tensors                    (-)
Plot HFC-tensors                    (-)
Detailed Printout                   (-)

-------------------------------------------------------------------------
          Euler rotation of hyperfine tensor to g-tensor
-------------------------------------------------------------------------

-------------------------------------------------------------------
 Atom  |   Alpha    Beta    Gamma   |   Ax       Ay       Az 
       |          [degrees]         |           [MHz]         
-------------------------------------------------------------------
  9H      151.9     35.2   -163.9      -0.12     0.27    -0.11
 10H     -160.3     36.9    151.0      -0.75     1.33    -0.72
 12H     -151.1     12.4    144.4      -0.06     0.22    -0.05
 13H       -5.2     35.7    -13.5      -0.06     0.22    -0.06
 15H       13.9     35.8    -15.6      -0.07     0.14    -0.07
 16H       16.0     42.3    -26.0      -0.07     0.14    -0.07
 18H        1.2     28.4    -17.0      -0.05     0.09    -0.05
 19H       -3.8     25.4     -4.1      -0.05     0.09    -0.05
 21H       21.3     31.8    -31.2      -0.04     0.07    -0.04
 22H       17.7     30.6    -20.5      -0.04     0.07    -0.04
 24H       89.0     35.1   -105.6      -0.34     2.77    -0.32
 25H       48.5     32.1    -39.2       0.13     3.11    -0.41
 27H     -107.6      9.6    114.6      -4.43     3.70    -4.63
 28H        2.3     40.5    -27.8      -4.56     4.46    -5.93
 30H     -108.8     25.5     67.9      43.98    44.74    57.99
 31H       86.9     45.1    -52.9     130.28   141.25   128.22
 33H       54.7     18.0    -54.0     -59.74   -96.07   -20.61
 35H      -46.7     26.5     18.4     131.13   142.09   129.08
 36H     -124.5     46.2    145.2      43.07    57.04    43.86
 38H       87.8     38.4    -96.8      -4.46     3.67    -4.64
 39H       45.2     35.8    -11.2      -4.60     4.40    -5.98
 41H      -23.3     16.0     35.6      -0.20     2.79    -0.21
 42H       15.2     25.1    -19.3       0.22     3.07    -0.27
 44H      -56.7     33.9     33.0      -0.11     0.24    -0.11
 45H      -63.9     43.6     93.6      -0.18    -0.18     0.34
 46H       10.5     28.4    -19.7      -0.03     0.06    -0.03
 47H       29.0     39.5    -15.8      -0.94     1.12    -1.14
-------------------------------------------------------------------


Maximum memory used throughout the entire EPRNMR-calculation: 246.3 MB

Timings for individual modules:

Sum of individual times         ...     4690.806 sec (=  78.180 min)
GTO integral calculation        ...        5.624 sec (=   0.094 min)   0.1 %
Spin-Orbit-Coupling Matrices    ...       12.492 sec (=   0.208 min)   0.3 %
SCF iterations                  ...       95.432 sec (=   1.591 min)   2.0 %
EPR/NMR calculation             ...     4577.258 sec (=  76.288 min)  97.6 %
                             ****ORCA TERMINATED NORMALLY****
TOTAL RUN TIME: 0 days 1 hours 18 minutes 14 seconds 989 msec
