
                                 *****************
                                 * O   R   C   A *
                                 *****************

                                            #,                                       
                                            ###                                      
                                            ####                                     
                                            #####                                    
                                            ######                                   
                                           ########,                                 
                                     ,,################,,,,,                         
                               ,,#################################,,                 
                          ,,##########################################,,             
                       ,#########################################, ''#####,          
                    ,#############################################,,   '####,        
                  ,##################################################,,,,####,       
                ,###########''''           ''''###############################       
              ,#####''   ,,,,##########,,,,          '''####'''          '####       
            ,##' ,,,,###########################,,,                        '##       
           ' ,,###''''                  '''############,,,                           
         ,,##''                                '''############,,,,        ,,,,,,###''
      ,#''                                            '''#######################'''  
     '                                                          ''''####''''         
             ,#######,   #######,   ,#######,      ##                                
            ,#'     '#,  ##    ##  ,#'     '#,    #''#        ######   ,####,        
            ##       ##  ##   ,#'  ##            #'  '#       #        #'  '#        
            ##       ##  #######   ##           ,######,      #####,   #    #        
            '#,     ,#'  ##    ##  '#,     ,#' ,#      #,         ##   #,  ,#        
             '#######'   ##     ##  '#######'  #'      '#     #####' # '####'        



                  #######################################################
                  #                        -***-                        #
                  #          Department of theory and spectroscopy      #
                  #    Directorship and core code : Frank Neese         #
                  #        Max Planck Institute fuer Kohlenforschung    #
                  #                Kaiser Wilhelm Platz 1               #
                  #                 D-45470 Muelheim/Ruhr               #
                  #                      Germany                        #
                  #                                                     #
                  #                  All rights reserved                #
                  #                        -***-                        #
                  #######################################################


                         Program Version 5.0.4 -  RELEASE  -


 With contributions from (in alphabetic order):
   Daniel Aravena         : Magnetic Suceptibility
   Michael Atanasov       : Ab Initio Ligand Field Theory (pilot matlab implementation)
   Alexander A. Auer      : GIAO ZORA, VPT2 properties, NMR spectrum
   Ute Becker             : Parallelization
   Giovanni Bistoni       : ED, misc. LED, open-shell LED, HFLD
   Martin Brehm           : Molecular dynamics
   Dmytro Bykov           : SCF Hessian
   Vijay G. Chilkuri      : MRCI spin determinant printing, contributions to CSF-ICE
   Dipayan Datta          : RHF DLPNO-CCSD density
   Achintya Kumar Dutta   : EOM-CC, STEOM-CC
   Dmitry Ganyushin       : Spin-Orbit,Spin-Spin,Magnetic field MRCI
   Miquel Garcia          : C-PCM and meta-GGA Hessian, CC/C-PCM, Gaussian charge scheme
   Yang Guo               : DLPNO-NEVPT2, F12-NEVPT2, CIM, IAO-localization
   Andreas Hansen         : Spin unrestricted coupled pair/coupled cluster methods
   Benjamin Helmich-Paris : MC-RPA, TRAH-SCF, COSX integrals
   Lee Huntington         : MR-EOM, pCC
   Robert Izsak           : Overlap fitted RIJCOSX, COSX-SCS-MP3, EOM
   Marcus Kettner         : VPT2
   Christian Kollmar      : KDIIS, OOCD, Brueckner-CCSD(T), CCSD density, CASPT2, CASPT2-K
   Simone Kossmann        : Meta GGA functionals, TD-DFT gradient, OOMP2, MP2 Hessian
   Martin Krupicka        : Initial AUTO-CI
   Lucas Lang             : DCDCAS
   Marvin Lechner         : AUTO-CI (C++ implementation), FIC-MRCC
   Dagmar Lenk            : GEPOL surface, SMD
   Dimitrios Liakos       : Extrapolation schemes; Compound Job, initial MDCI parallelization
   Dimitrios Manganas     : Further ROCIS development; embedding schemes
   Dimitrios Pantazis     : SARC Basis sets
   Anastasios Papadopoulos: AUTO-CI, single reference methods and gradients
   Taras Petrenko         : DFT Hessian,TD-DFT gradient, ASA, ECA, R-Raman, ABS, FL, XAS/XES, NRVS
   Peter Pinski           : DLPNO-MP2, DLPNO-MP2 Gradient
   Christoph Reimann      : Effective Core Potentials
   Marius Retegan         : Local ZFS, SOC
   Christoph Riplinger    : Optimizer, TS searches, QM/MM, DLPNO-CCSD(T), (RO)-DLPNO pert. Triples
   Tobias Risthaus        : Range-separated hybrids, TD-DFT gradient, RPA, STAB
   Michael Roemelt        : Original ROCIS implementation
   Masaaki Saitow         : Open-shell DLPNO-CCSD energy and density
   Barbara Sandhoefer     : DKH picture change effects
   Avijit Sen             : IP-ROCIS
   Kantharuban Sivalingam : CASSCF convergence, NEVPT2, FIC-MRCI
   Bernardo de Souza      : ESD, SOC TD-DFT
   Georgi Stoychev        : AutoAux, RI-MP2 NMR, DLPNO-MP2 response
   Willem Van den Heuvel  : Paramagnetic NMR
   Boris Wezisla          : Elementary symmetry handling
   Frank Wennmohs         : Technical directorship


 We gratefully acknowledge several colleagues who have allowed us to
 interface, adapt or use parts of their codes:
   Stefan Grimme, W. Hujo, H. Kruse, P. Pracht,  : VdW corrections, initial TS optimization,
                  C. Bannwarth, S. Ehlert          DFT functionals, gCP, sTDA/sTD-DF
   Ed Valeev, F. Pavosevic, A. Kumar             : LibInt (2-el integral package), F12 methods
   Garnet Chan, S. Sharma, J. Yang, R. Olivares  : DMRG
   Ulf Ekstrom                                   : XCFun DFT Library
   Mihaly Kallay                                 : mrcc  (arbitrary order and MRCC methods)
   Jiri Pittner, Ondrej Demel                    : Mk-CCSD
   Frank Weinhold                                : gennbo (NPA and NBO analysis)
   Christopher J. Cramer and Donald G. Truhlar   : smd solvation model
   Lars Goerigk                                  : TD-DFT with DH, B97 family of functionals
   V. Asgeirsson, H. Jonsson                     : NEB implementation
   FAccTs GmbH                                   : IRC, NEB, NEB-TS, DLPNO-Multilevel, CI-OPT
                                                   MM, QMMM, 2- and 3-layer-ONIOM, Crystal-QMMM,
                                                   LR-CPCM, SF, NACMEs, symmetry and pop. for TD-DFT,
                                                   nearIR, NL-DFT gradient (VV10), updates on ESD,
                                                   ML-optimized integration grids
   S Lehtola, MJT Oliveira, MAL Marques          : LibXC Library
   Liviu Ungur et al                             : ANISO software


 Your calculation uses the libint2 library for the computation of 2-el integrals
 For citations please refer to: http://libint.valeyev.net

 Your ORCA version has been built with support for libXC version: 5.1.0
 For citations please refer to: https://tddft.org/programs/libxc/

 This ORCA versions uses:
   CBLAS   interface :  Fast vector & matrix operations
   LAPACKE interface :  Fast linear algebra routines
   SCALAPACK package :  Parallel linear algebra routines
   Shared memory     :  Shared parallel matrices
   BLAS/LAPACK       :  OpenBLAS 0.3.15  USE64BITINT DYNAMIC_ARCH NO_AFFINITY SkylakeX SINGLE_THREADED
        Core in use  :  SkylakeX
   Copyright (c) 2011-2014, The OpenBLAS Project




***************************************
The coordinates will be read from file: model.xyz
***************************************


================================================================================

----- Orbital basis set information -----
Your calculation utilizes the basis: cc-pVDZ 
       H, B-Ne : Obtained from the ccRepo (grant-hill.group.shef.ac.uk/ccrepo) Feb. 2017
                 T. H. Dunning, Jr., J. Chem. Phys. 90, 1007 (1989)
            He : Obtained from the ccRepo (grant-hill.group.shef.ac.uk/ccrepo) Feb. 2017
                 D. E. Woon, T. H. Dunning, Jr., J. Chem. Phys. 100, 2975 (1994)
  Li-Be, Na-Mg : Obtained from the ccRepo (grant-hill.group.shef.ac.uk/ccrepo) Feb. 2017
                 B. P. Prascher, D. E. Woon, K. A. Peterson, T. H. Dunning, Jr., A. K. Wilson, Theor. Chem. Acc. 128, 69 (2011)
         Al-Ar : Obtained from the ccRepo (grant-hill.group.shef.ac.uk/ccrepo) Feb. 2017
                 D. E. Woon, T. H. Dunning, Jr., J. Chem. Phys. 98, 1358 (1993)
            Ca : Obtained from the Peterson Research Group Website (tyr0.chem.wsu.edu/~kipeters) Feb. 2017
                 J. Koput, K. A. Peterson, J. Phys. Chem. 106, 9595 (2002)
         Sc-Zn : Obtained from the ccRepo (grant-hill.group.shef.ac.uk/ccrepo) Feb. 2017
                 N. B. Balabanov, K. A. Peterson, J. Chem. Phys. 123, 064107 (2005)
                 N. B. Balabanov, K. A. Peterson, J. Chem. Phys. 125, 074110 (2006)
         Ga-Kr : Obtained from the ccRepo (grant-hill.group.shef.ac.uk/ccrepo) Feb. 2017
                 A. K. Wilson, D. E. Woon, K. A. Peterson, T. H. Dunning, Jr., J. Chem. Phys. 110, 7667 (1999)

----- AuxJ basis set information -----
Your calculation utilizes the auxiliary basis: def2/J
   F. Weigend, Phys. Chem. Chem. Phys. 8, 1057 (2006).

================================================================================
                                        WARNINGS
                       Please study these warnings very carefully!
================================================================================


WARNING: your system is open-shell and RHF/RKS was chosen
  ===> : WILL SWITCH to UHF/UKS


WARNING: Geometry Optimization
  ===> : Switching off AutoStart
         For restart on a previous wavefunction, please use MOREAD

INFO   : the flag for use of the SHARK integral package has been found!

================================================================================
                                       INPUT FILE
================================================================================
NAME = opt.inp
|  1> ! B3LYP cc-pVDZ OPT
|  2> %pal nprocs 16 end
|  3> *XYZFile 0 2 model.xyz
|  4> 
|  5>                          ****END OF INPUT****
================================================================================

                       *****************************
                       * Geometry Optimization Run *
                       *****************************

Geometry optimization settings:
Update method            Update   .... BFGS
Choice of coordinates    CoordSys .... Z-matrix Internals
Initial Hessian          InHess   .... Almoef's Model

Convergence Tolerances:
Energy Change            TolE     ....  5.0000e-06 Eh
Max. Gradient            TolMAXG  ....  3.0000e-04 Eh/bohr
RMS Gradient             TolRMSG  ....  1.0000e-04 Eh/bohr
Max. Displacement        TolMAXD  ....  4.0000e-03 bohr
RMS Displacement         TolRMSD  ....  2.0000e-03 bohr
Strict Convergence                ....  False
------------------------------------------------------------------------------
                        ORCA OPTIMIZATION COORDINATE SETUP
------------------------------------------------------------------------------

The optimization will be done in new redundant internal coordinates
Making redundant internal coordinates   ...  (new redundants) done
Evaluating the initial hessian          ...  (Almloef) done
Evaluating the coordinates              ...  done
Calculating the B-matrix                .... done
Calculating the G-matrix                .... done
Diagonalizing the G-matrix              .... done
Small eigenvalue found = 8.119e-04
Small eigenvalue found = 3.530e-03
Small eigenvalue found = 3.901e-03
Small eigenvalue found = 8.950e-03
Small eigenvalue found = 1.215e-02
Small eigenvalue found = 1.509e-02
Small eigenvalue found = 1.994e-02
Small eigenvalue found = 2.582e-02
Small eigenvalue found = 2.903e-02
The first mode is                       ....  110
The number of degrees of freedom        ....  138

    -----------------------------------------------------------------
                    Redundant Internal Coordinates


    -----------------------------------------------------------------
         Definition                    Initial Value    Approx d2E/dq
    -----------------------------------------------------------------
      1. B(C   1,C   0)                  1.2161         1.183386   
      2. B(C   3,C   1)                  1.4327         0.534086   
      3. B(C   4,C   3)                  1.4186         0.562434   
      4. B(C   5,C   4)                  1.3955         0.612309   
      5. B(C   6,C   5)                  1.4092         0.582143   
      6. B(C   6,C   2)                  1.4327         0.534111   
      7. B(C   7,C   6)                  1.4187         0.562353   
      8. B(C   8,C   7)                  1.3955         0.612339   
      9. B(C   8,C   3)                  1.4093         0.581936   
     10. B(H   9,C   5)                  1.0898         0.360325   
     11. B(H  10,C   8)                  1.0898         0.360349   
     12. B(C  11,C   4)                  1.5167         0.392304   
     13. B(H  12,C  11)                  1.1053         0.340443   
     14. B(H  13,C  11)                  1.1059         0.339644   
     15. B(C  14,C  11)                  1.5310         0.372270   
     16. B(H  15,C  14)                  1.1057         0.339927   
     17. B(H  16,C  14)                  1.1057         0.339946   
     18. B(C  17,C  14)                  1.5337         0.368529   
     19. B(H  18,C  17)                  1.1058         0.339755   
     20. B(H  19,C  17)                  1.1058         0.339731   
     21. B(C  20,C  17)                  1.5307         0.372667   
     22. B(H  21,C  20)                  1.1037         0.342388   
     23. B(H  22,C  20)                  1.1037         0.342423   
     24. B(C  23,C   7)                  1.5167         0.392278   
     25. B(H  24,C  23)                  1.1059         0.339664   
     26. B(H  25,C  23)                  1.1051         0.340639   
     27. B(C  26,C  23)                  1.5312         0.371949   
     28. B(H  27,C  26)                  1.1055         0.340149   
     29. B(H  28,C  26)                  1.1055         0.340217   
     30. B(C  29,C  26)                  1.5333         0.369022   
     31. B(H  30,C  29)                  1.1065         0.338938   
     32. B(H  31,C  29)                  1.1066         0.338835   
     33. B(C  32,C  29)                  1.5327         0.369829   
     34. B(H  33,C  32)                  1.1068         0.338576   
     35. B(C  34,C  32)                  1.5325         0.370139   
     36. B(H  35,C  34)                  1.1071         0.338193   
     37. B(H  36,C  34)                  1.1070         0.338318   
     38. B(C  37,C  34)                  1.5330         0.369485   
     39. B(H  38,C  37)                  1.1061         0.339403   
     40. B(H  39,C  37)                  1.1061         0.339367   
     41. B(C  40,C  37)                  1.5309         0.372385   
     42. B(H  41,C  40)                  1.1039         0.342230   
     43. B(H  42,C  40)                  1.1039         0.342211   
     44. B(C  43,C   2)                  1.2161         1.183410   
     45. B(H  44,C   0)                  1.0724         0.384090   
     46. B(H  45,C  43)                  1.0724         0.384084   
     47. B(H  46,C  20)                  1.1021         0.344433   
     48. B(H  47,C  40)                  1.1024         0.344093   
     49. L(C   1,C   0,H  44, 2)       179.9023         0.398981   
     50. L(C   1,C   0,H  44, 1)       179.9794         0.398981   
     51. L(C   0,C   1,C   3,C   8, 2) 180.4408         0.475172   
     52. L(C   0,C   1,C   3,C   8, 1) 179.5752         0.475172   
     53. L(C   6,C   2,C  43,C   5, 2) 179.7652         0.475178   
     54. L(C   6,C   2,C  43,C   5, 1) 179.4917         0.475178   
     55. A(C   1,C   3,C   8)          118.9597         0.417861   
     56. A(C   1,C   3,C   4)          120.6783         0.415333   
     57. A(C   4,C   3,C   8)          120.3619         0.421733   
     58. A(C   5,C   4,C  11)          122.7952         0.399232   
     59. A(C   3,C   4,C   5)          117.3129         0.425586   
     60. A(C   3,C   4,C  11)          119.8919         0.393323   
     61. A(C   4,C   5,C   6)          122.3289         0.428221   
     62. A(C   4,C   5,H   9)          120.0334         0.352202   
     63. A(C   6,C   5,H   9)          117.6376         0.349209   
     64. A(C   5,C   6,C   7)          120.3564         0.421749   
     65. A(C   2,C   6,C   7)          120.6583         0.415326   
     66. A(C   2,C   6,C   5)          118.9852         0.417891   
     67. A(C   8,C   7,C  23)          122.7844         0.399231   
     68. A(C   6,C   7,C  23)          119.8966         0.393308   
     69. A(C   6,C   7,C   8)          117.3190         0.425579   
     70. A(C   3,C   8,H  10)          117.6422         0.349192   
     71. A(C   3,C   8,C   7)          122.3201         0.428197   
     72. A(C   7,C   8,H  10)          120.0377         0.352209   
     73. A(H  12,C  11,H  13)          104.4709         0.285671   
     74. A(H  13,C  11,C  14)          109.2174         0.321041   
     75. A(H  12,C  11,C  14)          109.1968         0.321164   
     76. A(C   4,C  11,H  13)          108.2548         0.323810   
     77. A(C   4,C  11,C  14)          116.8747         0.366186   
     78. A(C   4,C  11,H  12)          108.1108         0.323935   
     79. A(H  16,C  14,C  17)          108.9909         0.320557   
     80. A(H  15,C  14,C  17)          109.1325         0.320554   
     81. A(C  11,C  14,C  17)          112.5616         0.362292   
     82. A(H  15,C  14,H  16)          106.2034         0.285643   
     83. A(C  11,C  14,H  16)          109.9781         0.321087   
     84. A(C  11,C  14,H  15)          109.7687         0.321084   
     85. A(C  14,C  17,H  18)          109.1868         0.320528   
     86. A(H  19,C  17,C  20)          109.5495         0.321110   
     87. A(H  18,C  17,C  20)          109.6058         0.321114   
     88. A(C  14,C  17,C  20)          113.2126         0.362358   
     89. A(H  18,C  17,H  19)          105.8547         0.285592   
     90. A(C  14,C  17,H  19)          109.1663         0.320524   
     91. A(H  21,C  20,H  46)          107.5917         0.286549   
     92. A(H  22,C  20,H  46)          107.6110         0.286554   
     93. A(C  17,C  20,H  46)          111.4935         0.321833   
     94. A(H  21,C  20,H  22)          107.3686         0.286288   
     95. A(C  17,C  20,H  22)          111.2439         0.321525   
     96. A(C  17,C  20,H  21)          111.3263         0.321520   
     97. A(H  25,C  23,C  26)          109.1766         0.321149   
     98. A(H  24,C  23,C  26)          109.3301         0.320998   
     99. A(C   7,C  23,C  26)          116.8499         0.366128   
    100. A(H  24,C  23,H  25)          104.4607         0.285699   
    101. A(C   7,C  23,H  25)          108.0647         0.323962   
    102. A(C   7,C  23,H  24)          108.2429         0.323810   
    103. A(H  28,C  26,C  29)          109.1681         0.320669   
    104. A(H  27,C  26,C  29)          109.0637         0.320659   
    105. A(C  23,C  26,C  29)          112.5086         0.362321   
    106. A(H  27,C  26,H  28)          106.2167         0.285707   
    107. A(C  23,C  26,H  28)          109.9825         0.321084   
    108. A(C  23,C  26,H  27)          109.7001         0.321073   
    109. A(H  31,C  29,C  32)          109.2479         0.320570   
    110. A(H  30,C  29,C  32)          109.4094         0.320586   
    111. A(C  26,C  29,C  32)          113.6088         0.361968   
    112. A(H  30,C  29,H  31)          105.8122         0.285367   
    113. A(C  26,C  29,H  31)          109.1088         0.320456   
    114. A(C  26,C  29,H  30)          109.3593         0.320472   
    115. A(H  33,C  32,C  34)          109.2036         0.320574   
    116. A(C  29,C  32,C  34)          113.6456         0.362155   
    117. A(C  29,C  32,H  33)          109.1932         0.320530   
    118. A(C  32,C  34,H  35)          109.1884         0.320515   
    119. A(H  36,C  34,C  37)          109.2472         0.320442   
    120. A(H  35,C  34,C  37)          109.1677         0.320422   
    121. A(C  32,C  34,C  37)          113.7785         0.362097   
    122. A(H  35,C  34,H  36)          105.8000         0.285202   
    123. A(C  32,C  34,H  36)          109.3523         0.320534   
    124. A(H  39,C  37,C  40)          109.5142         0.321014   
    125. A(H  38,C  37,C  40)          109.5197         0.321019   
    126. A(C  34,C  37,C  40)          113.3073         0.362471   
    127. A(H  38,C  37,H  39)          105.8351         0.285498   
    128. A(C  34,C  37,H  39)          109.2486         0.320604   
    129. A(C  34,C  37,H  38)          109.1436         0.320609   
    130. A(H  42,C  40,H  47)          107.5834         0.286482   
    131. A(H  41,C  40,H  47)          107.6055         0.286485   
    132. A(C  37,C  40,H  47)          111.5830         0.321741   
    133. A(H  41,C  40,H  42)          107.3284         0.286240   
    134. A(C  37,C  40,H  42)          111.2557         0.321453   
    135. A(C  37,C  40,H  41)          111.2750         0.321455   
    136. L(C   2,C  43,H  45, 2)       180.0721         0.398981   
    137. L(C   2,C  43,H  45, 1)       179.8594         0.398981   
    138. D(C  11,C   4,C   3,C   1)      0.1236         0.021676   
    139. D(C   5,C   4,C   3,C   1)   -179.8743         0.021676   
    140. D(C  11,C   4,C   3,C   8)   -179.7671         0.021676   
    141. D(C   5,C   4,C   3,C   8)      0.2350         0.021676   
    142. D(H   9,C   5,C   4,C  11)      0.0184         0.025905   
    143. D(C   6,C   5,C   4,C  11)    179.9245         0.025905   
    144. D(H   9,C   5,C   4,C   3)   -179.9838         0.025905   
    145. D(C   6,C   5,C   4,C   3)     -0.0776         0.025905   
    146. D(C   2,C   6,C   5,C   4)    179.8723         0.023291   
    147. D(C   2,C   6,C   5,H   9)     -0.2194         0.023291   
    148. D(C   7,C   6,C   5,C   4)     -0.1862         0.023291   
    149. D(C   7,C   6,C   5,H   9)    179.7220         0.023291   
    150. D(C   8,C   7,C   6,C   5)      0.2840         0.021669   
    151. D(C   8,C   7,C   6,C   2)   -179.7755         0.021669   
    152. D(C  23,C   7,C   6,C   2)      0.3303         0.021669   
    153. D(C  23,C   7,C   6,C   5)   -179.6102         0.021669   
    154. D(H  10,C   8,C   7,C   6)    179.9443         0.025908   
    155. D(H  10,C   8,C   7,C  23)     -0.1648         0.025908   
    156. D(C   3,C   8,C   7,C  23)    179.7632         0.025908   
    157. D(C   3,C   8,C   7,C   6)     -0.1277         0.025908   
    158. D(C   7,C   8,C   3,C   4)     -0.1347         0.023274   
    159. D(C   7,C   8,C   3,C   1)    179.9727         0.023274   
    160. D(H  10,C   8,C   3,C   4)    179.7949         0.023274   
    161. D(H  10,C   8,C   3,C   1)     -0.0976         0.023274   
    162. D(C  14,C  11,C   4,C   5)     -3.0207         0.011443   
    163. D(C  14,C  11,C   4,C   3)    176.9815         0.011443   
    164. D(H  13,C  11,C   4,C   5)    120.7394         0.011443   
    165. D(H  13,C  11,C   4,C   3)    -59.2584         0.011443   
    166. D(H  12,C  11,C   4,C   5)   -126.6340         0.011443   
    167. D(H  12,C  11,C   4,C   3)     53.3682         0.011443   
    168. D(H  15,C  14,C  11,C   4)    -57.2514         0.011070   
    169. D(C  17,C  14,C  11,H  12)    -55.9625         0.011070   
    170. D(C  17,C  14,C  11,C   4)   -179.0184         0.011070   
    171. D(H  16,C  14,C  11,H  13)    -64.0204         0.011070   
    172. D(H  16,C  14,C  11,H  12)   -177.6974         0.011070   
    173. D(H  16,C  14,C  11,C   4)     59.2466         0.011070   
    174. D(H  15,C  14,C  11,H  13)    179.4815         0.011070   
    175. D(C  17,C  14,C  11,H  13)     57.7145         0.011070   
    176. D(H  15,C  14,C  11,H  12)     65.8045         0.011070   
    177. D(C  20,C  17,C  14,H  16)    -57.8856         0.010862   
    178. D(C  20,C  17,C  14,C  11)    179.8208         0.010862   
    179. D(H  19,C  17,C  14,H  16)    179.8028         0.010862   
    180. D(H  19,C  17,C  14,H  15)    -64.6182         0.010862   
    181. D(H  19,C  17,C  14,C  11)     57.5091         0.010862   
    182. D(H  18,C  17,C  14,H  16)     64.5133         0.010862   
    183. D(C  20,C  17,C  14,H  15)     57.6935         0.010862   
    184. D(H  18,C  17,C  14,H  15)   -179.9076         0.010862   
    185. D(H  18,C  17,C  14,C  11)    -57.7803         0.010862   
    186. D(H  46,C  20,C  17,H  19)    -57.7770         0.011093   
    187. D(H  46,C  20,C  17,H  18)     57.9598         0.011093   
    188. D(H  22,C  20,C  17,H  19)     62.3525         0.011093   
    189. D(H  22,C  20,C  17,H  18)    178.0893         0.011093   
    190. D(H  22,C  20,C  17,C  14)    -59.7454         0.011093   
    191. D(H  46,C  20,C  17,C  14)   -179.8749         0.011093   
    192. D(H  21,C  20,C  17,H  18)    -62.2014         0.011093   
    193. D(H  21,C  20,C  17,C  14)     59.9640         0.011093   
    194. D(H  21,C  20,C  17,H  19)   -177.9382         0.011093   
    195. D(C  26,C  23,C   7,C   6)    176.2008         0.011442   
    196. D(H  25,C  23,C   7,C   8)   -127.2178         0.011442   
    197. D(H  25,C  23,C   7,C   6)     52.6704         0.011442   
    198. D(H  24,C  23,C   7,C   8)    120.1959         0.011442   
    199. D(C  26,C  23,C   7,C   8)     -3.6874         0.011442   
    200. D(H  24,C  23,C   7,C   6)    -59.9159         0.011442   
    201. D(C  29,C  26,C  23,H  25)    -54.9781         0.011052   
    202. D(C  29,C  26,C  23,C   7)   -177.9369         0.011052   
    203. D(H  28,C  26,C  23,H  25)   -176.9070         0.011052   
    204. D(H  28,C  26,C  23,H  24)    -63.1926         0.011052   
    205. D(H  28,C  26,C  23,C   7)     60.1342         0.011052   
    206. D(H  27,C  26,C  23,H  25)     66.6164         0.011052   
    207. D(C  29,C  26,C  23,H  24)     58.7363         0.011052   
    208. D(H  27,C  26,C  23,H  24)   -179.6692         0.011052   
    209. D(H  27,C  26,C  23,C   7)    -56.3424         0.011052   
    210. D(C  32,C  29,C  26,H  28)    -58.5386         0.010890   
    211. D(C  32,C  29,C  26,H  27)     57.1159         0.010890   
    212. D(C  32,C  29,C  26,C  23)    179.0719         0.010890   
    213. D(H  31,C  29,C  26,H  28)    179.3090         0.010890   
    214. D(H  31,C  29,C  26,H  27)    -65.0365         0.010890   
    215. D(H  31,C  29,C  26,C  23)     56.9195         0.010890   
    216. D(H  30,C  29,C  26,H  28)     64.0072         0.010890   
    217. D(H  30,C  29,C  26,H  27)    179.6617         0.010890   
    218. D(H  30,C  29,C  26,C  23)    -58.3823         0.010890   
    219. D(C  34,C  32,C  29,H  31)    -56.8129         0.010243   
    220. D(C  34,C  32,C  29,H  30)     58.5936         0.010243   
    221. D(C  34,C  32,C  29,C  26)   -178.8882         0.010243   
    222. D(H  33,C  32,C  29,H  31)     65.3697         0.010243   
    223. D(H  33,C  32,C  29,H  30)   -179.2238         0.010243   
    224. D(H  33,C  32,C  29,C  26)    -56.7056         0.010243   
    225. D(C  37,C  34,C  32,H  33)     57.1055         0.010259   
    226. D(C  37,C  34,C  32,C  29)    179.2823         0.010259   
    227. D(H  36,C  34,C  32,H  33)    179.5541         0.010259   
    228. D(H  36,C  34,C  32,C  29)    -58.2690         0.010259   
    229. D(H  35,C  34,C  32,H  33)    -65.1186         0.010259   
    230. D(H  35,C  34,C  32,C  29)     57.0583         0.010259   
    231. D(C  40,C  37,C  34,H  36)     58.1277         0.010915   
    232. D(C  40,C  37,C  34,H  35)    -57.1303         0.010915   
    233. D(C  40,C  37,C  34,C  32)   -179.3658         0.010915   
    234. D(H  39,C  37,C  34,H  36)    -64.2634         0.010915   
    235. D(H  39,C  37,C  34,H  35)   -179.5214         0.010915   
    236. D(H  39,C  37,C  34,C  32)     58.2431         0.010915   
    237. D(H  38,C  37,C  34,H  36)   -179.5508         0.010915   
    238. D(H  38,C  37,C  34,H  35)     65.1911         0.010915   
    239. D(H  38,C  37,C  34,C  32)    -57.0443         0.010915   
    240. D(H  47,C  40,C  37,H  38)     57.9110         0.011077   
    241. D(H  47,C  40,C  37,C  34)   -179.9769         0.011077   
    242. D(H  42,C  40,C  37,H  39)   -177.8968         0.011077   
    243. D(H  42,C  40,C  37,H  38)    -62.2523         0.011077   
    244. D(H  42,C  40,C  37,C  34)     59.8598         0.011077   
    245. D(H  41,C  40,C  37,H  39)     62.4711         0.011077   
    246. D(H  41,C  40,C  37,H  38)    178.1156         0.011077   
    247. D(H  47,C  40,C  37,H  39)    -57.7336         0.011077   
    248. D(H  41,C  40,C  37,C  34)    -59.7723         0.011077   
    -----------------------------------------------------------------

Number of atoms                         .... 48
Number of degrees of freedom            .... 248

         *************************************************************
         *                GEOMETRY OPTIMIZATION CYCLE   1            *
         *************************************************************
---------------------------------
CARTESIAN COORDINATES (ANGSTROEM)
---------------------------------
  C     -4.047444    0.098623    0.003081
  C     -2.832346    0.048376    0.004043
  C      2.832348   -0.048076    0.001585
  C     -1.400467    0.000000    0.000000
  C     -0.718383   -1.242662   -0.055174
  C      0.676681   -1.208025   -0.052821
  C      1.400467   -0.000000   -0.000000
  C      0.718336    1.242921    0.049494
  C     -0.676717    1.208302    0.049456
  H      1.245445   -2.136743   -0.094290
  H     -1.245463    2.137160    0.087417
  C     -1.507912   -2.536332   -0.113430
  H     -2.221498   -2.465765   -0.954536
  H     -2.147120   -2.592923    0.787274
  C     -0.703761   -3.832630   -0.242918
  H     -0.067876   -3.789577   -1.146441
  H     -0.014130   -3.936675    0.615049
  C     -1.599139   -5.075622   -0.317144
  H     -2.236724   -5.118664    0.585349
  H     -2.292643   -4.972966   -1.172375
  C     -0.810121   -6.380376   -0.451283
  H     -0.133698   -6.530554    0.407856
  H     -0.188937   -6.380096   -1.363581
  C      1.507733    2.537123    0.097178
  H      2.139813    2.523874    1.004550
  H      2.227963    2.530305   -0.740987
  C      0.703512    3.839538    0.058684
  H      0.064690    3.856539   -0.843414
  H      0.017076    3.885378    0.923986
  C      1.600165    5.083376    0.060907
  H      2.237608    5.074402    0.965285
  H      2.295268    5.030390   -0.798464
  C      0.820991    6.401890    0.000000
  H      0.174279    6.401204   -0.898175
  C      1.717133    7.644832   -0.025040
  H      2.408410    7.577708   -0.887170
  H      2.359481    7.652160    0.876487
  C      0.941333    8.964701   -0.103513
  H      0.294087    8.952242   -1.000398
  H      0.256387    9.037102    0.762025
  C      1.847080   10.198227   -0.143452
  H      2.483228   10.257343    0.756724
  H      2.518366   10.173608   -1.019408
  C      4.047388   -0.099544   -0.000070
  H     -5.118987    0.142550    0.004062
  H      5.118984   -0.142303   -0.000181
  H     -1.480137   -7.253819   -0.504361
  H      1.260844   11.130135   -0.199233

----------------------------
CARTESIAN COORDINATES (A.U.)
----------------------------
  NO LB      ZA    FRAG     MASS         X           Y           Z
   0 C     6.0000    0    12.011   -7.648560    0.186371    0.005823
   1 C     6.0000    0    12.011   -5.352358    0.091416    0.007640
   2 C     6.0000    0    12.011    5.352362   -0.090851    0.002996
   3 C     6.0000    0    12.011   -2.646499    0.000000    0.000000
   4 C     6.0000    0    12.011   -1.357547   -2.348292   -0.104265
   5 C     6.0000    0    12.011    1.278742   -2.282836   -0.099817
   6 C     6.0000    0    12.011    2.646499   -0.000000   -0.000000
   7 C     6.0000    0    12.011    1.357457    2.348779    0.093529
   8 C     6.0000    0    12.011   -1.278810    2.283359    0.093458
   9 H     1.0000    0     1.008    2.353549   -4.037859   -0.178182
  10 H     1.0000    0     1.008   -2.353584    4.038646    0.165194
  11 C     6.0000    0    12.011   -2.849540   -4.792973   -0.214352
  12 H     1.0000    0     1.008   -4.198024   -4.659620   -1.803811
  13 H     1.0000    0     1.008   -4.057469   -4.899914    1.487733
  14 C     6.0000    0    12.011   -1.329915   -7.242621   -0.459048
  15 H     1.0000    0     1.008   -0.128267   -7.161262   -2.166460
  16 H     1.0000    0     1.008   -0.026702   -7.439238    1.162275
  17 C     6.0000    0    12.011   -3.021935   -9.591536   -0.599316
  18 H     1.0000    0     1.008   -4.226796   -9.672874    1.106149
  19 H     1.0000    0     1.008   -4.332467   -9.397544   -2.215467
  20 C     6.0000    0    12.011   -1.530906  -12.057164   -0.852800
  21 H     1.0000    0     1.008   -0.252653  -12.340959    0.770736
  22 H     1.0000    0     1.008   -0.357039  -12.056634   -2.576795
  23 C     6.0000    0    12.011    2.849202    4.794469    0.183639
  24 H     1.0000    0     1.008    4.043660    4.769431    1.898324
  25 H     1.0000    0     1.008    4.210240    4.781584   -1.400262
  26 C     6.0000    0    12.011    1.329445    7.255674    0.110897
  27 H     1.0000    0     1.008    0.122246    7.287802   -1.593822
  28 H     1.0000    0     1.008    0.032270    7.342300    1.746081
  29 C     6.0000    0    12.011    3.023874    9.606188    0.115098
  30 H     1.0000    0     1.008    4.228466    9.589230    1.824124
  31 H     1.0000    0     1.008    4.337428    9.506060   -1.508878
  32 C     6.0000    0    12.011    1.551449   12.097819    0.000000
  33 H     1.0000    0     1.008    0.329339   12.096522   -1.697305
  34 C     6.0000    0    12.011    3.244912   14.446639   -0.047318
  35 H     1.0000    0     1.008    4.551235   14.319793   -1.676508
  36 H     1.0000    0     1.008    4.458773   14.460486    1.656321
  37 C     6.0000    0    12.011    1.778862   16.940829   -0.195610
  38 H     1.0000    0     1.008    0.555743   16.917285   -1.890478
  39 H     1.0000    0     1.008    0.484500   17.077647    1.440019
  40 C     6.0000    0    12.011    3.490475   19.271856   -0.271086
  41 H     1.0000    0     1.008    4.692621   19.383569    1.430001
  42 H     1.0000    0     1.008    4.759022   19.225333   -1.926401
  43 C     6.0000    0    12.011    7.648456   -0.188111   -0.000132
  44 H     1.0000    0     1.008   -9.673484    0.269380    0.007676
  45 H     1.0000    0     1.008    9.673477   -0.268913   -0.000342
  46 H     1.0000    0     1.008   -2.797054  -13.707732   -0.953104
  47 H     1.0000    0     1.008    2.382650   21.032907   -0.376497

--------------------------------
INTERNAL COORDINATES (ANGSTROEM)
--------------------------------
 C      0   0   0     0.000000000000     0.00000000     0.00000000
 C      1   0   0     1.216136694841     0.00000000     0.00000000
 C      2   1   0     5.665515596679   178.60570530     0.00000000
 C      2   1   3     1.432701645410   179.52006089   337.33696003
 C      4   2   1     1.418623724343   120.67834447   208.04199840
 C      5   4   2     1.395495735701   117.31294432   180.12567155
 C      6   5   4     1.409247948154   122.32889349   359.92235726
 C      7   6   5     1.418662915745   120.35644214   359.81378809
 C      8   7   6     1.395482143219   117.31896012     0.28398322
 H      6   5   4     1.089830035682   120.03343454   180.01623466
 H      9   8   7     1.089811767694   120.03770621   179.94431540
 C      5   4   2     1.516683996236   119.89187019     0.12357613
 H     12   5   4     1.105280227007   108.11080101    53.36819767
 H     12   5   4     1.105920059334   108.25475979   300.74161098
 C     12   5   4     1.530952269070   116.87466386   176.98150827
 H     15  12   5     1.105693007125   109.76867842   302.74860003
 H     15  12   5     1.105677666487   109.97813505    59.24662438
 C     15  12   5     1.533701872820   112.56155194   180.98156942
 H     18  15  12     1.105830588149   109.18675308   302.21969665
 H     18  15  12     1.105849930568   109.16625158    57.50913734
 C     18  15  12     1.530662196555   113.21261734   179.82079488
 H     21  18  15     1.103729859748   111.32625990    59.96397440
 H     21  18  15     1.103701879583   111.24392301   300.25461626
 C      8   7   6     1.516701448467   119.89657347   180.38977474
 H     24   8   7     1.105904236709   108.24294545   300.08411073
 H     24   8   7     1.105123543592   108.06471822    52.67040617
 C     24   8   7     1.531187526047   116.84991436   176.20078888
 H     27  24   8     1.105515765665   109.70012583   303.65762200
 H     27  24   8     1.105460658076   109.98248747    60.13422138
 C     27  24   8     1.533337669119   112.50858331   182.06306214
 H     30  27  24     1.106486500233   109.35932197   301.61773976
 H     30  27  24     1.106568970653   109.10877368    56.91952856
 C     30  27  24     1.532743352922   113.60875982   179.07192034
 H     33  30  27     1.106777156652   109.19323741   303.29440023
 C     33  30  27     1.532515010647   113.64555751   181.11181380
 H     35  33  30     1.107084938241   109.18838303    57.05826754
 H     35  33  30     1.106984680439   109.35227419   301.73095945
 C     35  33  30     1.532996099612   113.77849601   179.28230389
 H     38  35  33     1.106113459051   109.14357102   302.95565217
 H     38  35  33     1.106141668823   109.24856527    58.24310748
 C     38  35  33     1.530868560094   113.30734895   180.63418284
 H     41  38  35     1.103855413509   111.27503950   300.22770883
 H     41  38  35     1.103870156014   111.25565201    59.85981744
 C      3   2   1     1.216131158278   178.54894982   184.98206051
 H      1   2   4     1.072443703406   179.90019367   232.56317154
 H     44   3   7     1.072448069015   179.84205323   191.41779374
 H     21  18  15     1.102108211776   111.49347393   180.12510321
 H     41  38  35     1.102377638402   111.58300710   180.02307942

---------------------------
INTERNAL COORDINATES (A.U.)
---------------------------
 C      0   0   0     0.000000000000     0.00000000     0.00000000
 C      1   0   0     2.298165294662     0.00000000     0.00000000
 C      2   1   0    10.706272885183   178.60570530     0.00000000
 C      2   1   3     2.707413741443   179.52006089   337.33696003
 C      4   2   1     2.680810326091   120.67834447   208.04199840
 C      5   4   2     2.637104761531   117.31294432   180.12567155
 C      6   5   4     2.663092676801   122.32889349   359.92235726
 C      7   6   5     2.680884387109   120.35644214   359.81378809
 C      8   7   6     2.637079075462   117.31896012     0.28398322
 H      6   5   4     2.059480299960   120.03343454   180.01623466
 H      9   8   7     2.059445778465   120.03770621   179.94431540
 C      5   4   2     2.866117384587   119.89187019     0.12357613
 H     12   5   4     2.088676930282   108.11080101    53.36819767
 H     12   5   4     2.089886038151   108.25475979   300.74161098
 C     12   5   4     2.893080512648   116.87466386   176.98150827
 H     15  12   5     2.089456971658   109.76867842   302.74860003
 H     15  12   5     2.089427982053   109.97813505    59.24662438
 C     15  12   5     2.898276510711   112.56155194   180.98156942
 H     18  15  12     2.089716962114   109.18675308   302.21969665
 H     18  15  12     2.089753513990   109.16625158    57.50913734
 C     18  15  12     2.892532355035   113.21261734   179.82079488
 H     21  18  15     2.085747160755   111.32625990    59.96397440
 H     21  18  15     2.085694285906   111.24392301   300.25461626
 C      8   7   6     2.866150364524   119.89657347   180.38977474
 H     24   8   7     2.089856137723   108.24294545   300.08411073
 H     24   8   7     2.088380841538   108.06471822    52.67040617
 C     24   8   7     2.893525083906   116.84991436   176.20078888
 H     27  24   8     2.089122033839   109.70012583   303.65762200
 H     27  24   8     2.089017895589   109.98248747    60.13422138
 C     27  24   8     2.897588265460   112.50858331   182.06306214
 H     30  27  24     2.090956456321   109.35932197   301.61773976
 H     30  27  24     2.091112302830   109.10877368    56.91952856
 C     30  27  24     2.896465170610   113.60875982   179.07192034
 H     33  30  27     2.091505717353   109.19323741   303.29440023
 C     33  30  27     2.896033666247   113.64555751   181.11181380
 H     35  33  30     2.092087340264   109.18838303    57.05826754
 H     35  33  30     2.091897880476   109.35227419   301.73095945
 C     35  33  30     2.896942792636   113.77849601   179.28230389
 H     38  35  33     2.090251510650   109.14357102   302.95565217
 H     38  35  33     2.090304819395   109.24856527    58.24310748
 C     38  35  33     2.892922325609   113.30734895   180.63418284
 H     41  38  35     2.085984422978   111.27503950   300.22770883
 H     41  38  35     2.086012282275   111.25565201    59.85981744
 C      3   2   1     2.298154832073   178.54894982   184.98206051
 H      1   2   4     2.026624893485   179.90019367   232.56317154
 H     44   3   7     2.026633143292   179.84205323   191.41779374
 H     21  18  15     2.082682690202   111.49347393   180.12510321
 H     41  38  35     2.083191832739   111.58300710   180.02307942

---------------------
BASIS SET INFORMATION
---------------------
There are 2 groups of distinct atoms

 Group   1 Type C   : 17s4p1d contracted to 3s2p1d pattern {881/31/1}
 Group   2 Type H   : 4s1p contracted to 2s1p pattern {31/1}

Atom   0C    basis set group =>   1
Atom   1C    basis set group =>   1
Atom   2C    basis set group =>   1
Atom   3C    basis set group =>   1
Atom   4C    basis set group =>   1
Atom   5C    basis set group =>   1
Atom   6C    basis set group =>   1
Atom   7C    basis set group =>   1
Atom   8C    basis set group =>   1
Atom   9H    basis set group =>   2
Atom  10H    basis set group =>   2
Atom  11C    basis set group =>   1
Atom  12H    basis set group =>   2
Atom  13H    basis set group =>   2
Atom  14C    basis set group =>   1
Atom  15H    basis set group =>   2
Atom  16H    basis set group =>   2
Atom  17C    basis set group =>   1
Atom  18H    basis set group =>   2
Atom  19H    basis set group =>   2
Atom  20C    basis set group =>   1
Atom  21H    basis set group =>   2
Atom  22H    basis set group =>   2
Atom  23C    basis set group =>   1
Atom  24H    basis set group =>   2
Atom  25H    basis set group =>   2
Atom  26C    basis set group =>   1
Atom  27H    basis set group =>   2
Atom  28H    basis set group =>   2
Atom  29C    basis set group =>   1
Atom  30H    basis set group =>   2
Atom  31H    basis set group =>   2
Atom  32C    basis set group =>   1
Atom  33H    basis set group =>   2
Atom  34C    basis set group =>   1
Atom  35H    basis set group =>   2
Atom  36H    basis set group =>   2
Atom  37C    basis set group =>   1
Atom  38H    basis set group =>   2
Atom  39H    basis set group =>   2
Atom  40C    basis set group =>   1
Atom  41H    basis set group =>   2
Atom  42H    basis set group =>   2
Atom  43C    basis set group =>   1
Atom  44H    basis set group =>   2
Atom  45H    basis set group =>   2
Atom  46H    basis set group =>   2
Atom  47H    basis set group =>   2
---------------------------------
AUXILIARY/J BASIS SET INFORMATION
---------------------------------
There are 2 groups of distinct atoms

 Group   1 Type C   : 12s5p4d2f1g contracted to 6s4p3d1f1g pattern {711111/2111/211/2/1}
 Group   2 Type H   : 5s2p1d contracted to 3s1p1d pattern {311/2/1}

Atom   0C    basis set group =>   1
Atom   1C    basis set group =>   1
Atom   2C    basis set group =>   1
Atom   3C    basis set group =>   1
Atom   4C    basis set group =>   1
Atom   5C    basis set group =>   1
Atom   6C    basis set group =>   1
Atom   7C    basis set group =>   1
Atom   8C    basis set group =>   1
Atom   9H    basis set group =>   2
Atom  10H    basis set group =>   2
Atom  11C    basis set group =>   1
Atom  12H    basis set group =>   2
Atom  13H    basis set group =>   2
Atom  14C    basis set group =>   1
Atom  15H    basis set group =>   2
Atom  16H    basis set group =>   2
Atom  17C    basis set group =>   1
Atom  18H    basis set group =>   2
Atom  19H    basis set group =>   2
Atom  20C    basis set group =>   1
Atom  21H    basis set group =>   2
Atom  22H    basis set group =>   2
Atom  23C    basis set group =>   1
Atom  24H    basis set group =>   2
Atom  25H    basis set group =>   2
Atom  26C    basis set group =>   1
Atom  27H    basis set group =>   2
Atom  28H    basis set group =>   2
Atom  29C    basis set group =>   1
Atom  30H    basis set group =>   2
Atom  31H    basis set group =>   2
Atom  32C    basis set group =>   1
Atom  33H    basis set group =>   2
Atom  34C    basis set group =>   1
Atom  35H    basis set group =>   2
Atom  36H    basis set group =>   2
Atom  37C    basis set group =>   1
Atom  38H    basis set group =>   2
Atom  39H    basis set group =>   2
Atom  40C    basis set group =>   1
Atom  41H    basis set group =>   2
Atom  42H    basis set group =>   2
Atom  43C    basis set group =>   1
Atom  44H    basis set group =>   2
Atom  45H    basis set group =>   2
Atom  46H    basis set group =>   2
Atom  47H    basis set group =>   2


           ************************************************************
           *        Program running with 16 parallel MPI-processes    *
           *              working on a common directory               *
           ************************************************************
------------------------------------------------------------------------------
                           ORCA GTO INTEGRAL CALCULATION
                           -- RI-GTO INTEGRALS CHOSEN --
------------------------------------------------------------------------------
------------------------------------------------------------------------------
                   ___                                                        
                  /   \      - P O W E R E D   B Y -                         
                 /     \                                                     
                 |  |  |   _    _      __       _____    __    __             
                 |  |  |  | |  | |    /  \     |  _  \  |  |  /  |          
                  \  \/   | |  | |   /    \    | | | |  |  | /  /          
                 / \  \   | |__| |  /  /\  \   | |_| |  |  |/  /          
                |  |  |   |  __  | /  /__\  \  |    /   |      \           
                |  |  |   | |  | | |   __   |  |    \   |  |\   \          
                \     /   | |  | | |  |  |  |  | |\  \  |  | \   \       
                 \___/    |_|  |_| |__|  |__|  |_| \__\ |__|  \__/        
                                                                              
                      - O R C A' S   B I G   F R I E N D -                    
                                      &                                       
                       - I N T E G R A L  F E E D E R -                       
                                                                              
 v1 FN, 2020, v2 2021                                                         
------------------------------------------------------------------------------


Reading SHARK input file opt.SHARKINP.tmp ... ok
----------------------
SHARK INTEGRAL PACKAGE
----------------------

Number of atoms                             ...     48
Number of basis functions                   ...    555
Number of shells                            ...    333
Maximum angular momentum                    ...      2
Integral batch strategy                     ... SHARK/LIBINT Hybrid
RI-J (if used) integral strategy            ... SPLIT-RIJ (Revised 2003 algorithm where possible)
Printlevel                                  ...      1
Contraction scheme used                     ... PARTIAL GENERAL contraction
Coulomb Range Separation                    ... NOT USED
Exchange Range Separation                   ... NOT USED
Finite Nucleus Model                        ... NOT USED
Auxiliary Coulomb fitting basis             ... AVAILABLE
   # of basis functions in Aux-J            ...   1326
   # of shells in Aux-J                     ...    450
   Maximum angular momentum in Aux-J        ...      4
Auxiliary J/K fitting basis                 ... NOT available
Auxiliary Correlation fitting basis         ... NOT available
Auxiliary 'external' fitting basis          ... NOT available
Integral threshold                          ...     2.500000e-11
Primitive cut-off                           ...     2.500000e-12
Primitive pair pre-selection threshold      ...     2.500000e-12

Calculating pre-screening integrals         ... done (  0.0 sec) Dimension = 333
Calculating pre-screening integrals (ORCA)  ... done (  0.1 sec) Dimension = 207
Organizing shell pair data                  ... done (  0.2 sec)
Shell pair information
Total number of shell pairs                 ...     55611
Shell pairs after pre-screening             ...     23273
Total number of primitive shell pairs       ...     92379
Primitive shell pairs kept                  ...     32414
          la=0 lb=0:  10324 shell pairs
          la=1 lb=0:   8159 shell pairs
          la=1 lb=1:   1451 shell pairs
          la=2 lb=0:   2357 shell pairs
          la=2 lb=1:    845 shell pairs
          la=2 lb=2:    137 shell pairs

Calculating one electron integrals          ... done (  0.0 sec)
Calculating RI/J V-Matrix + Cholesky decomp.... done (  0.2 sec)
Calculating Nuclear repulsion               ... done (  0.0 sec) ENN=   1436.483790815698 Eh

SHARK setup successfully completed in   0.9 seconds

Maximum memory used throughout the entire GTOINT-calculation: 33.9 MB


           ************************************************************
           *        Program running with 16 parallel MPI-processes    *
           *              working on a common directory               *
           ************************************************************
-------------------------------------------------------------------------------
                                 ORCA SCF
-------------------------------------------------------------------------------

------------
SCF SETTINGS
------------
Hamiltonian:
 Density Functional     Method          .... DFT(GTOs)
 Exchange Functional    Exchange        .... B88
   X-Alpha parameter    XAlpha          ....  0.666667
   Becke's b parameter  XBeta           ....  0.004200
 Correlation Functional Correlation     .... LYP
 LDA part of GGA corr.  LDAOpt          .... VWN-5
 Gradients option       PostSCFGGA      .... off
 Hybrid DFT is turned on
   Fraction HF Exchange ScalHFX         ....  0.200000
   Scaling of DF-GGA-X  ScalDFX         ....  0.720000
   Scaling of DF-GGA-C  ScalDFC         ....  0.810000
   Scaling of DF-LDA-C  ScalLDAC        ....  1.000000
   Perturbative correction              ....  0.000000
   Density functional embedding theory  .... OFF
   NL short-range parameter             ....  4.800000
 RI-approximation to the Coulomb term is turned on
   Number of AuxJ basis functions       .... 1326
   RIJ-COSX (HFX calculated with COS-X)).... on


General Settings:
 Integral files         IntName         .... opt
 Hartree-Fock type      HFTyp           .... UHF
 Total Charge           Charge          ....    0
 Multiplicity           Mult            ....    2
 Number of Electrons    NEL             ....  153
 Basis Dimension        Dim             ....  429
 Nuclear Repulsion      ENuc            ....   1436.4837908157 Eh

Convergence Acceleration:
 DIIS                   CNVDIIS         .... on
   Start iteration      DIISMaxIt       ....    12
   Startup error        DIISStart       ....  0.200000
   # of expansion vecs  DIISMaxEq       ....     5
   Bias factor          DIISBfac        ....   1.050
   Max. coefficient     DIISMaxC        ....  10.000
 Trust-Rad. Augm. Hess. CNVTRAH         .... auto
   Auto Start mean grad. ratio tolernc. ....  1.125000
   Auto Start start iteration           ....    20
   Auto Start num. interpolation iter.  ....    10
   Max. Number of Micro iterations      ....    16
   Max. Number of Macro iterations      .... Maxiter - #DIIS iter
   Number of Davidson start vectors     ....     2
   Converg. threshold I  (grad. norm)   ....   1.000e-05
   Converg. threshold II (energy diff.) ....   1.000e-08
   Grad. Scal. Fac. for Micro threshold ....   0.100
   Minimum threshold for Micro iter.    ....   0.010
   NR start threshold (gradient norm)   ....   0.001
   Initial trust radius                 ....   0.400
   Minimum AH scaling param. (alpha)    ....   1.000
   Maximum AH scaling param. (alpha)    .... 1000.000
   Orbital update algorithm             .... Taylor
   White noise on init. David. guess    .... on
   Maximum white noise                  ....   0.010
   Quad. conv. algorithm                .... NR
 SOSCF                  CNVSOSCF        .... off
 Level Shifting         CNVShift        .... on
   Level shift para.    LevelShift      ....    0.2500
   Turn off err/grad.   ShiftErr        ....    0.0010
 Zerner damping         CNVZerner       .... off
 Static damping         CNVDamp         .... on
   Fraction old density DampFac         ....    0.7000
   Max. Damping (<1)    DampMax         ....    0.9800
   Min. Damping (>=0)   DampMin         ....    0.0000
   Turn off err/grad.   DampErr         ....    0.1000
 Fernandez-Rico         CNVRico         .... off

SCF Procedure:
 Maximum # iterations   MaxIter         ....   125
 SCF integral mode      SCFMode         .... Direct
   Integral package                     .... SHARK and LIBINT hybrid scheme
 Reset frequency        DirectResetFreq ....    20
 Integral Threshold     Thresh          ....  2.500e-11 Eh
 Primitive CutOff       TCut            ....  2.500e-12 Eh

Convergence Tolerance:
 Convergence Check Mode ConvCheckMode   .... Total+1el-Energy
 Convergence forced     ConvForced      .... 0
 Energy Change          TolE            ....  1.000e-08 Eh
 1-El. energy change                    ....  1.000e-05 Eh
 DIIS Error             TolErr          ....  5.000e-07


Diagonalization of the overlap matrix:
Smallest eigenvalue                        ... 1.271e-04
Time for diagonalization                   ...    0.033 sec
Threshold for overlap eigenvalues          ... 1.000e-08
Number of eigenvalues below threshold      ... 0
Time for construction of square roots      ...    0.038 sec
Total time needed                          ...    0.072 sec

Time for model grid setup =    0.284 sec

------------------------------
INITIAL GUESS: MODEL POTENTIAL
------------------------------
Loading Hartree-Fock densities                     ... done
Calculating cut-offs                               ... done
Initializing the effective Hamiltonian             ... done
Setting up the integral package (SHARK)            ... done
Starting the Coulomb interaction                   ... done (   0.3 sec)
Reading the grid                                   ... done
Mapping shells                                     ... done
Starting the XC term evaluation                    ... done (   0.1 sec)
  promolecular density results
     # of electrons  =    152.998893770
     EX              =   -115.827914437
     EC              =     -4.989111722
     EX+EC           =   -120.817026160
Transforming the Hamiltonian                       ... done (   0.0 sec)
Diagonalizing the Hamiltonian                      ... done (   0.0 sec)
Back transforming the eigenvectors                 ... done (   0.0 sec)
Now organizing SCF variables                       ... done
                      ------------------
                      INITIAL GUESS DONE (   1.0 sec)
                      ------------------
-------------------
DFT GRID GENERATION
-------------------

General Integration Accuracy     IntAcc      ... 4.388
Radial Grid Type                 RadialGrid  ... OptM3 with GC (2021)
Angular Grid (max. ang.)         AngularGrid ... 4 (Lebedev-302)
Angular grid pruning method      GridPruning ... 4 (adaptive)
Weight generation scheme         WeightScheme... Becke
Basis function cutoff            BFCut       ... 1.0000e-11
Integration weight cutoff        WCut        ... 1.0000e-14
Angular grids for H and He will be reduced by one unit
Partially contracted basis set               ... off
Rotationally invariant grid construction     ... off

Total number of grid points                  ...   211618
Total number of batches                      ...     3328
Average number of points per batch           ...       63
Average number of grid points per atom       ...     4409
Time for grid setup =    1.187 sec

--------------------
COSX GRID GENERATION
--------------------

GRIDX 1
-------
General Integration Accuracy     IntAcc      ... 3.816
Radial Grid Type                 RadialGrid  ... OptM3 with GC (2021)
Angular Grid (max. ang.)         AngularGrid ... 1 (Lebedev-50)
Angular grid pruning method      GridPruning ... 4 (adaptive)
Weight generation scheme         WeightScheme... Becke
Basis function cutoff            BFCut       ... 1.0000e-11
Integration weight cutoff        WCut        ... 1.0000e-14
Angular grids for H and He will be reduced by one unit
Partially contracted basis set               ... on
Rotationally invariant grid construction     ... off

Total number of grid points                  ...    26966
Total number of batches                      ...      451
Average number of points per batch           ...       59
Average number of grid points per atom       ...      562
UseSFitting                                  ... on

GRIDX 2
-------
General Integration Accuracy     IntAcc      ... 4.020
Radial Grid Type                 RadialGrid  ... OptM3 with GC (2021)
Angular Grid (max. ang.)         AngularGrid ... 2 (Lebedev-110)
Angular grid pruning method      GridPruning ... 4 (adaptive)
Weight generation scheme         WeightScheme... Becke
Basis function cutoff            BFCut       ... 1.0000e-11
Integration weight cutoff        WCut        ... 1.0000e-14
Angular grids for H and He will be reduced by one unit
Partially contracted basis set               ... on
Rotationally invariant grid construction     ... off

Total number of grid points                  ...    56945
Total number of batches                      ...      916
Average number of points per batch           ...       62
Average number of grid points per atom       ...     1186
UseSFitting                                  ... on

GRIDX 3
-------
General Integration Accuracy     IntAcc      ... 4.338
Radial Grid Type                 RadialGrid  ... OptM3 with GC (2021)
Angular Grid (max. ang.)         AngularGrid ... 3 (Lebedev-194)
Angular grid pruning method      GridPruning ... 4 (adaptive)
Weight generation scheme         WeightScheme... Becke
Basis function cutoff            BFCut       ... 1.0000e-11
Integration weight cutoff        WCut        ... 1.0000e-14
Angular grids for H and He will be reduced by one unit
Partially contracted basis set               ... on
Rotationally invariant grid construction     ... off

Total number of grid points                  ...   124351
Total number of batches                      ...     1972
Average number of points per batch           ...       63
Average number of grid points per atom       ...     2591
UseSFitting                                  ... on

Time for X-Grid setup             =    2.129 sec

 re-compute Schwartz prescreening matrix in partically contracted basis (1) ...done (   0.123 sec)
--------------
SCF ITERATIONS
--------------
ITER       Energy         Delta-E        Max-DP      RMS-DP      [F,P]     Damp
               ***  Starting incremental Fock matrix formation  ***
  0   -815.2557781183   0.000000000000 0.06525974  0.00086109  0.0871882 0.7000
  1   -815.4945491510  -0.238771032723 0.04822884  0.00063640  0.0459369 0.7000
                               ***Turning on DIIS***
  2   -815.6010581944  -0.106509043366 0.09468504  0.00121416  0.0175817 0.0000
  3   -815.7490119941  -0.147953799719 0.01899155  0.00033191  0.0249903 0.0000
  4   -815.7893229187  -0.040310924590 0.00863174  0.00011716  0.0060324 0.0000
  5   -815.7915893869  -0.002266468165 0.00122572  0.00003240  0.0015067 0.0000
  6   -815.7917750556  -0.000185668730 0.00124443  0.00001987  0.0006967 0.0000
               *** Restarting incremental Fock matrix formation ***
                                   *** Resetting DIIS ***
  7   -815.7921230350  -0.000347979393 0.00144716  0.00001646  0.0009433 0.0000
  8   -815.7920826532   0.000040381729 0.00063784  0.00000679  0.0023867 0.0000
  9   -815.7921252186  -0.000042565389 0.00041742  0.00000476  0.0008666 0.0000
 10   -815.7921320851  -0.000006866423 0.00007495  0.00000112  0.0001105 0.0000
 11   -815.7921322311  -0.000000145994 0.00003015  0.00000052  0.0000295 0.0000
 12   -815.7921322698  -0.000000038739 0.00001477  0.00000018  0.0000118 0.0000
 13   -815.7921322735  -0.000000003721 0.00001056  0.00000011  0.0000087 0.0000
                 **** Energy Check signals convergence ****

               *****************************************************
               *                     SUCCESS                       *
               *           SCF CONVERGED AFTER  14 CYCLES          *
               *****************************************************

Old exchange energy                            =    -23.667273349 Eh
New exchange energy                            =    -23.667324774 Eh
Exchange energy change after final integration =     -0.000051424 Eh
Total energy after final integration           =   -815.792183690 Eh
Final COS-X integration done in                =     7.032 sec

----------------
TOTAL SCF ENERGY
----------------

Total Energy       :         -815.79218369 Eh          -22198.83389 eV

Components:
Nuclear Repulsion  :         1436.48379082 Eh           39088.71118 eV
Electronic Energy  :        -2252.27597451 Eh          -61287.54506 eV
One Electron Energy:        -3951.62227249 Eh         -107529.10871 eV
Two Electron Energy:         1699.34629799 Eh           46241.56364 eV
Max COSX asymmetry :            0.00000048 Eh               0.00001 eV

Virial components:
Potential Energy   :        -1625.67645489 Eh          -44236.90530 eV
Kinetic Energy     :          809.88427120 Eh           22038.07141 eV
Virial Ratio       :            2.00729476


DFT components:
N(Alpha)           :       77.000133890775 electrons
N(Beta)            :       76.000129366814 electrons
N(Total)           :      153.000263257589 electrons
E(X)               :      -93.816562859490 Eh       
E(C)               :       -5.895119327359 Eh       
E(XC)              :      -99.711682186849 Eh       
DFET-embed. en.    :        0.000000000000 Eh       

---------------
SCF CONVERGENCE
---------------

  Last Energy change         ...    8.2861e-09  Tolerance :   1.0000e-08
  Last MAX-Density change    ...    0.0000e+00  Tolerance :   1.0000e-07
  Last RMS-Density change    ...    0.0000e+00  Tolerance :   5.0000e-09
  Last DIIS Error            ...    2.8357e-06  Tolerance :   5.0000e-07

             **** THE GBW FILE WAS UPDATED (opt.gbw) ****
             **** DENSITY opt.scfp WAS UPDATED ****
             **** ENERGY FILE WAS UPDATED (opt.en.tmp) ****
----------------------
UHF SPIN CONTAMINATION
----------------------

Warning: in a DFT calculation there is little theoretical justification to 
         calculate <S**2> as in Hartree-Fock theory. We will do it anyways
         but you should keep in mind that the values have only limited relevance

Expectation value of <S**2>     :     0.752989
Ideal value S*(S+1) for S=0.5   :     0.750000
Deviation                       :     0.002989

             **** THE GBW FILE WAS UPDATED (opt.gbw) ****
             **** DENSITY opt.scfp WAS UPDATED ****
----------------
ORBITAL ENERGIES
----------------
                 SPIN UP ORBITALS
  NO   OCC          E(Eh)            E(eV) 
   0   1.0000     -10.212408      -277.8937 
   1   1.0000     -10.212306      -277.8910 
   2   1.0000     -10.201578      -277.5990 
   3   1.0000     -10.201504      -277.5970 
   4   1.0000     -10.195625      -277.4370 
   5   1.0000     -10.192150      -277.3425 
   6   1.0000     -10.192063      -277.3401 
   7   1.0000     -10.191898      -277.3357 
   8   1.0000     -10.191535      -277.3258 
   9   1.0000     -10.187167      -277.2069 
  10   1.0000     -10.187001      -277.2024 
  11   1.0000     -10.186694      -277.1940 
  12   1.0000     -10.186672      -277.1934 
  13   1.0000     -10.184832      -277.1434 
  14   1.0000     -10.182453      -277.0786 
  15   1.0000     -10.182124      -277.0697 
  16   1.0000     -10.181794      -277.0607 
  17   1.0000     -10.181547      -277.0540 
  18   1.0000     -10.178916      -276.9824 
  19   1.0000     -10.175474      -276.8887 
  20   1.0000     -10.174071      -276.8506 
  21   1.0000      -0.874553       -23.7978 
  22   1.0000      -0.819029       -22.2869 
  23   1.0000      -0.805070       -21.9071 
  24   1.0000      -0.795038       -21.6341 
  25   1.0000      -0.784828       -21.3563 
  26   1.0000      -0.762659       -20.7530 
  27   1.0000      -0.751677       -20.4542 
  28   1.0000      -0.732566       -19.9341 
  29   1.0000      -0.720179       -19.5971 
  30   1.0000      -0.706592       -19.2274 
  31   1.0000      -0.673586       -18.3292 
  32   1.0000      -0.642642       -17.4872 
  33   1.0000      -0.637306       -17.3420 
  34   1.0000      -0.612112       -16.6564 
  35   1.0000      -0.589973       -16.0540 
  36   1.0000      -0.577990       -15.7279 
  37   1.0000      -0.564086       -15.3496 
  38   1.0000      -0.562138       -15.2966 
  39   1.0000      -0.541596       -14.7376 
  40   1.0000      -0.524687       -14.2775 
  41   1.0000      -0.498505       -13.5650 
  42   1.0000      -0.484082       -13.1725 
  43   1.0000      -0.476135       -12.9563 
  44   1.0000      -0.473744       -12.8912 
  45   1.0000      -0.470108       -12.7923 
  46   1.0000      -0.455970       -12.4076 
  47   1.0000      -0.430610       -11.7175 
  48   1.0000      -0.426679       -11.6105 
  49   1.0000      -0.426298       -11.6002 
  50   1.0000      -0.421052       -11.4574 
  51   1.0000      -0.416502       -11.3336 
  52   1.0000      -0.410783       -11.1780 
  53   1.0000      -0.406321       -11.0566 
  54   1.0000      -0.387881       -10.5548 
  55   1.0000      -0.385073       -10.4784 
  56   1.0000      -0.382052       -10.3962 
  57   1.0000      -0.370623       -10.0852 
  58   1.0000      -0.361999        -9.8505 
  59   1.0000      -0.357642        -9.7319 
  60   1.0000      -0.353664        -9.6237 
  61   1.0000      -0.349483        -9.5099 
  62   1.0000      -0.335901        -9.1403 
  63   1.0000      -0.335051        -9.1172 
  64   1.0000      -0.328421        -8.9368 
  65   1.0000      -0.327686        -8.9168 
  66   1.0000      -0.324814        -8.8386 
  67   1.0000      -0.323797        -8.8110 
  68   1.0000      -0.321572        -8.7504 
  69   1.0000      -0.319681        -8.6990 
  70   1.0000      -0.309306        -8.4166 
  71   1.0000      -0.279048        -7.5933 
  72   1.0000      -0.275802        -7.5049 
  73   1.0000      -0.274617        -7.4727 
  74   1.0000      -0.246046        -6.6952 
  75   1.0000      -0.219273        -5.9667 
  76   1.0000      -0.215753        -5.8709 
  77   0.0000      -0.050427        -1.3722 
  78   0.0000      -0.002778        -0.0756 
  79   0.0000       0.041138         1.1194 
  80   0.0000       0.048069         1.3080 
  81   0.0000       0.050480         1.3736 
  82   0.0000       0.062226         1.6933 
  83   0.0000       0.063155         1.7185 
  84   0.0000       0.070142         1.9087 
  85   0.0000       0.079974         2.1762 
  86   0.0000       0.084703         2.3049 
  87   0.0000       0.085624         2.3300 
  88   0.0000       0.090529         2.4634 
  89   0.0000       0.091058         2.4778 
  90   0.0000       0.094544         2.5727 
  91   0.0000       0.095839         2.6079 
  92   0.0000       0.102273         2.7830 
  93   0.0000       0.108409         2.9500 
  94   0.0000       0.112259         3.0547 
  95   0.0000       0.114967         3.1284 
  96   0.0000       0.125959         3.4275 
  97   0.0000       0.133659         3.6371 
  98   0.0000       0.139341         3.7917 
  99   0.0000       0.147810         4.0221 
 100   0.0000       0.150933         4.1071 
 101   0.0000       0.155381         4.2281 
 102   0.0000       0.160732         4.3737 
 103   0.0000       0.161413         4.3923 
 104   0.0000       0.162532         4.4227 
 105   0.0000       0.163737         4.4555 
 106   0.0000       0.170090         4.6284 
 107   0.0000       0.177418         4.8278 
 108   0.0000       0.180444         4.9101 
 109   0.0000       0.188460         5.1283 
 110   0.0000       0.195846         5.3292 
 111   0.0000       0.199970         5.4415 
 112   0.0000       0.206883         5.6296 
 113   0.0000       0.212818         5.7911 
 114   0.0000       0.217089         5.9073 
 115   0.0000       0.225260         6.1296 
 116   0.0000       0.231722         6.3055 
 117   0.0000       0.238192         6.4815 
 118   0.0000       0.257235         6.9997 
 119   0.0000       0.261801         7.1240 
 120   0.0000       0.267519         7.2796 
 121   0.0000       0.272690         7.4203 
 122   0.0000       0.292398         7.9566 
 123   0.0000       0.312898         8.5144 
 124   0.0000       0.327985         8.9249 
 125   0.0000       0.334494         9.1020 
 126   0.0000       0.350212         9.5298 
 127   0.0000       0.367959        10.0127 
 128   0.0000       0.372101        10.1254 
 129   0.0000       0.376765        10.2523 
 130   0.0000       0.406350        11.0574 
 131   0.0000       0.411881        11.2078 
 132   0.0000       0.412244        11.2177 
 133   0.0000       0.413233        11.2446 
 134   0.0000       0.419078        11.4037 
 135   0.0000       0.419971        11.4280 
 136   0.0000       0.420180        11.4337 
 137   0.0000       0.431926        11.7533 
 138   0.0000       0.447133        12.1671 
 139   0.0000       0.452779        12.3208 
 140   0.0000       0.454807        12.3759 
 141   0.0000       0.461086        12.5468 
 142   0.0000       0.467516        12.7218 
 143   0.0000       0.471954        12.8425 
 144   0.0000       0.478761        13.0277 
 145   0.0000       0.483892        13.1674 
 146   0.0000       0.487675        13.2703 
 147   0.0000       0.490821        13.3559 
 148   0.0000       0.504980        13.7412 
 149   0.0000       0.508417        13.8347 
 150   0.0000       0.509511        13.8645 
 151   0.0000       0.521270        14.1845 
 152   0.0000       0.523842        14.2545 
 153   0.0000       0.531306        14.4576 
 154   0.0000       0.536196        14.5906 
 155   0.0000       0.545143        14.8341 
 156   0.0000       0.552977        15.0473 
 157   0.0000       0.555332        15.1113 
 158   0.0000       0.559949        15.2370 
 159   0.0000       0.578288        15.7360 
 160   0.0000       0.584171        15.8961 
 161   0.0000       0.595791        16.2123 
 162   0.0000       0.599463        16.3122 
 163   0.0000       0.607448        16.5295 
 164   0.0000       0.613557        16.6957 
 165   0.0000       0.615051        16.7364 
 166   0.0000       0.620238        16.8775 
 167   0.0000       0.626701        17.0534 
 168   0.0000       0.628819        17.1110 
 169   0.0000       0.633700        17.2439 
 170   0.0000       0.637670        17.3519 
 171   0.0000       0.641061        17.4442 
 172   0.0000       0.642900        17.4942 
 173   0.0000       0.647726        17.6255 
 174   0.0000       0.651675        17.7330 
 175   0.0000       0.655790        17.8449 
 176   0.0000       0.657571        17.8934 
 177   0.0000       0.658713        17.9245 
 178   0.0000       0.660984        17.9863 
 179   0.0000       0.661801        18.0085 
 180   0.0000       0.662710        18.0333 
 181   0.0000       0.665850        18.1187 
 182   0.0000       0.666794        18.1444 
 183   0.0000       0.669693        18.2233 
 184   0.0000       0.673830        18.3358 
 185   0.0000       0.677899        18.4466 
 186   0.0000       0.685982        18.6665 
 187   0.0000       0.687438        18.7061 
 188   0.0000       0.692892        18.8545 
 189   0.0000       0.696325        18.9480 
 190   0.0000       0.698224        18.9996 
 191   0.0000       0.702880        19.1263 
 192   0.0000       0.705865        19.2076 
 193   0.0000       0.711682        19.3659 
 194   0.0000       0.713625        19.4187 
 195   0.0000       0.721280        19.6270 
 196   0.0000       0.723386        19.6843 
 197   0.0000       0.725504        19.7420 
 198   0.0000       0.730254        19.8712 
 199   0.0000       0.733046        19.9472 
 200   0.0000       0.743284        20.2258 
 201   0.0000       0.748653        20.3719 
 202   0.0000       0.757839        20.6218 
 203   0.0000       0.762615        20.7518 
 204   0.0000       0.774777        21.0827 
 205   0.0000       0.781990        21.2790 
 206   0.0000       0.806627        21.9494 
 207   0.0000       0.809995        22.0411 
 208   0.0000       0.829957        22.5843 
 209   0.0000       0.831760        22.6333 
 210   0.0000       0.842798        22.9337 
 211   0.0000       0.843371        22.9493 
 212   0.0000       0.853381        23.2217 
 213   0.0000       0.861845        23.4520 
 214   0.0000       0.874641        23.8002 
 215   0.0000       0.882798        24.0222 
 216   0.0000       0.889308        24.1993 
 217   0.0000       0.897446        24.4208 
 218   0.0000       0.917369        24.9629 
 219   0.0000       0.920627        25.0515 
 220   0.0000       0.944920        25.7126 
 221   0.0000       0.963220        26.2105 
 222   0.0000       0.977741        26.6057 
 223   0.0000       0.989605        26.9285 
 224   0.0000       0.991420        26.9779 
 225   0.0000       1.015523        27.6338 
 226   0.0000       1.025732        27.9116 
 227   0.0000       1.032528        28.0965 
 228   0.0000       1.039861        28.2961 
 229   0.0000       1.045605        28.4524 
 230   0.0000       1.050535        28.5865 
 231   0.0000       1.052563        28.6417 
 232   0.0000       1.070418        29.1276 
 233   0.0000       1.077367        29.3166 
 234   0.0000       1.089136        29.6369 
 235   0.0000       1.106401        30.1067 
 236   0.0000       1.142285        31.0831 
 237   0.0000       1.155782        31.4504 
 238   0.0000       1.162488        31.6329 
 239   0.0000       1.166877        31.7523 
 240   0.0000       1.178736        32.0750 
 241   0.0000       1.195550        32.5326 
 242   0.0000       1.205417        32.8011 
 243   0.0000       1.210597        32.9420 
 244   0.0000       1.211705        32.9722 
 245   0.0000       1.213925        33.0326 
 246   0.0000       1.214938        33.0601 
 247   0.0000       1.216748        33.1094 
 248   0.0000       1.222046        33.2536 
 249   0.0000       1.223887        33.3036 
 250   0.0000       1.237482        33.6736 
 251   0.0000       1.256771        34.1985 
 252   0.0000       1.258646        34.2495 
 253   0.0000       1.275349        34.7040 
 254   0.0000       1.285753        34.9871 
 255   0.0000       1.295344        35.2481 
 256   0.0000       1.305759        35.5315 
 257   0.0000       1.317384        35.8478 
 258   0.0000       1.324408        36.0390 
 259   0.0000       1.326131        36.0858 
 260   0.0000       1.330259        36.1982 
 261   0.0000       1.331917        36.2433 
 262   0.0000       1.334437        36.3119 
 263   0.0000       1.343349        36.5544 
 264   0.0000       1.352201        36.7953 
 265   0.0000       1.385665        37.7059 
 266   0.0000       1.396309        37.9955 
 267   0.0000       1.399333        38.0778 
 268   0.0000       1.413886        38.4738 
 269   0.0000       1.418001        38.5858 
 270   0.0000       1.426668        38.8216 
 271   0.0000       1.427625        38.8476 
 272   0.0000       1.430178        38.9171 
 273   0.0000       1.438793        39.1516 
 274   0.0000       1.459440        39.7134 
 275   0.0000       1.463773        39.8313 
 276   0.0000       1.468110        39.9493 
 277   0.0000       1.474934        40.1350 
 278   0.0000       1.483552        40.3695 
 279   0.0000       1.492941        40.6250 
 280   0.0000       1.505430        40.9648 
 281   0.0000       1.516436        41.2643 
 282   0.0000       1.519715        41.3535 
 283   0.0000       1.528186        41.5841 
 284   0.0000       1.534071        41.7442 
 285   0.0000       1.545332        42.0506 
 286   0.0000       1.576041        42.8863 
 287   0.0000       1.588116        43.2148 
 288   0.0000       1.588806        43.2336 
 289   0.0000       1.594930        43.4003 
 290   0.0000       1.603463        43.6324 
 291   0.0000       1.611587        43.8535 
 292   0.0000       1.618611        44.0447 
 293   0.0000       1.623158        44.1684 
 294   0.0000       1.626614        44.2624 
 295   0.0000       1.629877        44.3512 
 296   0.0000       1.630783        44.3759 
 297   0.0000       1.640121        44.6300 
 298   0.0000       1.646810        44.8120 
 299   0.0000       1.649638        44.8889 
 300   0.0000       1.651758        44.9466 
 301   0.0000       1.654159        45.0120 
 302   0.0000       1.658454        45.1288 
 303   0.0000       1.662438        45.2372 
 304   0.0000       1.666265        45.3414 
 305   0.0000       1.673566        45.5401 
 306   0.0000       1.677517        45.6476 
 307   0.0000       1.688785        45.9542 
 308   0.0000       1.690312        45.9957 
 309   0.0000       1.691459        46.0269 
 310   0.0000       1.695074        46.1253 
 311   0.0000       1.699241        46.2387 
 312   0.0000       1.701758        46.3072 
 313   0.0000       1.705998        46.4226 
 314   0.0000       1.712139        46.5897 
 315   0.0000       1.715685        46.6861 
 316   0.0000       1.718065        46.7509 
 317   0.0000       1.722069        46.8599 
 318   0.0000       1.726991        46.9938 
 319   0.0000       1.727577        47.0098 
 320   0.0000       1.733953        47.1833 
[...]
      px      :     0.027592
      py      :     0.032542

SPIN
  0 C s       :    -0.000002  s :    -0.000002
      pz      :    -0.000068  p :    -0.000079
      px      :    -0.000001
      py      :    -0.000010
      dz2     :     0.000000  d :     0.000003
      dxz     :     0.000001
      dyz     :     0.000000
      dx2y2   :     0.000000
      dxy     :     0.000000
  1 C s       :     0.000003  s :     0.000003
      pz      :     0.000028  p :     0.000039
      px      :     0.000002
      py      :     0.000009
      dz2     :    -0.000000  d :    -0.000014
      dxz     :    -0.000013
      dyz     :     0.000000
      dx2y2   :    -0.000001
      dxy     :    -0.000001
  2 C s       :    -0.000004  s :    -0.000004
      pz      :    -0.000036  p :    -0.000049
      px      :    -0.000004
      py      :    -0.000009
      dz2     :     0.000000  d :     0.000026
      dxz     :     0.000023
      dyz     :     0.000000
      dx2y2   :     0.000002
      dxy     :     0.000001
  3 C s       :    -0.000006  s :    -0.000006
      pz      :    -0.000131  p :    -0.000145
      px      :    -0.000005
      py      :    -0.000008
      dz2     :     0.000001  d :     0.000032
      dxz     :     0.000004
      dyz     :     0.000024
      dx2y2   :     0.000002
      dxy     :     0.000002
  4 C s       :     0.000011  s :     0.000011
      pz      :     0.000270  p :     0.000285
      px      :     0.000008
      py      :     0.000008
      dz2     :    -0.000001  d :    -0.000012
      dxz     :    -0.000006
      dyz     :    -0.000003
      dx2y2   :    -0.000001
      dxy     :    -0.000001
  5 C s       :    -0.000006  s :    -0.000006
      pz      :    -0.000134  p :    -0.000146
      px      :    -0.000008
      py      :    -0.000004
      dz2     :     0.000001  d :     0.000030
      dxz     :     0.000018
      dyz     :     0.000008
      dx2y2   :     0.000001
      dxy     :     0.000001
  6 C s       :     0.000017  s :     0.000017
      pz      :     0.000273  p :     0.000301
      px      :     0.000009
      py      :     0.000019
      dz2     :    -0.000001  d :    -0.000022
      dxz     :    -0.000003
      dyz     :    -0.000011
      dx2y2   :    -0.000005
      dxy     :    -0.000002
  7 C s       :    -0.000037  s :    -0.000037
      pz      :    -0.000197  p :    -0.000289
      px      :    -0.000033
      py      :    -0.000060
      dz2     :     0.000000  d :     0.000118
      dxz     :     0.000031
      dyz     :     0.000043
      dx2y2   :     0.000034
      dxy     :     0.000010
  8 C s       :     0.000030  s :     0.000030
      pz      :     0.000295  p :     0.000336
      px      :     0.000012
      py      :     0.000029
      dz2     :    -0.000001  d :    -0.000024
      dxz     :    -0.000011
      dyz     :    -0.000003
      dx2y2   :     0.000000
      dxy     :    -0.000010
  9 H s       :     0.000005  s :     0.000005
      pz      :    -0.000004  p :    -0.000005
      px      :    -0.000000
      py      :    -0.000000
 10 H s       :    -0.000003  s :    -0.000003
      pz      :     0.000006  p :     0.000015
      px      :     0.000001
      py      :     0.000009
 11 C s       :    -0.000002  s :    -0.000002
      pz      :    -0.000001  p :    -0.000009
      px      :    -0.000004
      py      :    -0.000004
      dz2     :     0.000000  d :     0.000014
      dxz     :     0.000008
      dyz     :     0.000005
      dx2y2   :     0.000000
      dxy     :     0.000001
 12 H s       :     0.000014  s :     0.000014
      pz      :    -0.000000  p :    -0.000000
      px      :    -0.000000
      py      :     0.000000
 13 H s       :     0.000013  s :     0.000013
      pz      :    -0.000000  p :    -0.000000
      px      :    -0.000000
      py      :     0.000000
 14 C s       :     0.000000  s :     0.000000
      pz      :     0.000000  p :     0.000000
      px      :     0.000000
      py      :     0.000000
      dz2     :    -0.000000  d :    -0.000000
      dxz     :     0.000000
      dyz     :    -0.000000
      dx2y2   :    -0.000000
      dxy     :    -0.000000
 15 H s       :    -0.000000  s :    -0.000000
      pz      :    -0.000000  p :    -0.000000
      px      :    -0.000000
      py      :    -0.000000
 16 H s       :     0.000000  s :     0.000000
      pz      :     0.000000  p :     0.000000
      px      :     0.000000
      py      :     0.000000
 17 C s       :    -0.000000  s :    -0.000000
      pz      :     0.000000  p :     0.000000
      px      :     0.000000
      py      :    -0.000000
      dz2     :    -0.000000  d :    -0.000000
      dxz     :    -0.000000
      dyz     :     0.000000
      dx2y2   :    -0.000000
      dxy     :    -0.000000
 18 H s       :     0.000000  s :     0.000000
      pz      :     0.000000  p :     0.000000
      px      :     0.000000
      py      :     0.000000
 19 H s       :     0.000000  s :     0.000000
      pz      :     0.000000  p :     0.000000
      px      :     0.000000
      py      :     0.000000
 20 C s       :    -0.000000  s :    -0.000000
      pz      :    -0.000000  p :    -0.000000
      px      :    -0.000000
      py      :    -0.000000
      dz2     :     0.000000  d :     0.000000
      dxz     :     0.000000
      dyz     :     0.000000
      dx2y2   :     0.000000
      dxy     :     0.000000
 21 H s       :     0.000000  s :     0.000000
      pz      :    -0.000000  p :    -0.000000
      px      :    -0.000000
      py      :    -0.000000
 22 H s       :     0.000000  s :     0.000000
      pz      :    -0.000000  p :    -0.000000
      px      :    -0.000000
      py      :    -0.000000
 23 C s       :    -0.000164  s :    -0.000164
      pz      :     0.000586  p :     0.000762
      px      :     0.000183
      py      :    -0.000007
      dz2     :     0.000004  d :     0.000184
      dxz     :     0.000023
      dyz     :     0.000108
      dx2y2   :     0.000083
      dxy     :    -0.000034
 24 H s       :     0.000160  s :     0.000160
      pz      :    -0.000000  p :     0.000028
      px      :     0.000029
      py      :    -0.000000
 25 H s       :     0.000423  s :     0.000423
      pz      :     0.000029  p :     0.000188
      px      :     0.000016
      py      :     0.000144
 26 C s       :     0.001850  s :     0.001850
      pz      :     0.001458  p :     0.005751
      px      :     0.001262
      py      :     0.003030
      dz2     :    -0.000047  d :    -0.000700
      dxz     :     0.000095
      dyz     :    -0.000175
      dx2y2   :    -0.000530
      dxy     :    -0.000044
 27 H s       :    -0.000515  s :    -0.000515
      pz      :     0.000023  p :     0.000239
      px      :     0.000015
      py      :     0.000200
 28 H s       :     0.001152  s :     0.001152
      pz      :     0.000116  p :     0.000502
      px      :     0.000413
      py      :    -0.000026
 29 C s       :    -0.004407  s :    -0.004407
      pz      :    -0.006519  p :    -0.024326
      px      :    -0.006645
      py      :    -0.011163
      dz2     :     0.000578  d :     0.038097
      dxz     :     0.016181
      dyz     :     0.014143
      dx2y2   :     0.003067
      dxy     :     0.004128
 30 H s       :     0.016034  s :     0.016034
      pz      :    -0.000077  p :    -0.000903
      px      :    -0.000538
      py      :    -0.000289
 31 H s       :     0.047264  s :     0.047264
      pz      :    -0.000354  p :    -0.000345
      px      :    -0.000185
      py      :     0.000194
 32 C s       :     0.031346  s :     0.031346
      pz      :     0.651664  p :     0.802827
      px      :     0.129701
      py      :     0.021462
      dz2     :    -0.001548  d :    -0.003622
      dxz     :    -0.000014
      dyz     :    -0.000066
      dx2y2   :    -0.000644
      dxy     :    -0.001349
 33 H s       :    -0.020254  s :    -0.020254
      pz      :     0.019586  p :     0.026302
      px      :     0.006263
      py      :     0.000452
 34 C s       :    -0.004398  s :    -0.004398
      pz      :    -0.007081  p :    -0.024401
      px      :    -0.006463
      py      :    -0.010857
      dz2     :     0.001462  d :     0.037986
      dxz     :     0.012894
      dyz     :     0.015327
      dx2y2   :     0.001307
      dxy     :     0.006996
 35 H s       :     0.047721  s :     0.047721
      pz      :    -0.000385  p :    -0.000364
      px      :    -0.000178
      py      :     0.000199
 36 H s       :     0.015755  s :     0.015755
      pz      :    -0.000041  p :    -0.000898
      px      :    -0.000525
      py      :    -0.000332
 37 C s       :     0.001975  s :     0.001975
      pz      :     0.000931  p :     0.006016
      px      :     0.001417
      py      :     0.003667
      dz2     :    -0.000088  d :    -0.000675
      dxz     :     0.000021
      dyz     :    -0.000126
      dx2y2   :    -0.000545
      dxy     :     0.000063
 38 H s       :    -0.000540  s :    -0.000540
      pz      :     0.000030  p :     0.000235
      px      :     0.000017
      py      :     0.000188
 39 H s       :     0.001301  s :     0.001301
      pz      :     0.000114  p :     0.000519
      px      :     0.000427
      py      :    -0.000023
 40 C s       :    -0.000179  s :    -0.000179
      pz      :     0.000280  p :     0.000728
      px      :     0.000088
      py      :     0.000360
      dz2     :     0.000035  d :     0.000216
      dxz     :     0.000018
      dyz     :     0.000064
      dx2y2   :     0.000136
      dxy     :    -0.000037
 41 H s       :     0.000180  s :     0.000180
      pz      :    -0.000003  p :     0.000015
      px      :     0.000022
      py      :    -0.000004
 42 H s       :     0.000320  s :     0.000320
      pz      :     0.000045  p :     0.000153
      px      :     0.000014
      py      :     0.000095
 43 C s       :     0.000004  s :     0.000004
      pz      :     0.000096  p :     0.000111
      px      :     0.000002
      py      :     0.000014
      dz2     :    -0.000000  d :    -0.000003
      dxz     :    -0.000002
      dyz     :    -0.000000
      dx2y2   :    -0.000000
      dxy     :    -0.000001
 44 H s       :     0.000003  s :     0.000003
      pz      :    -0.000002  p :    -0.000003
      px      :    -0.000000
      py      :    -0.000000
 45 H s       :    -0.000004  s :    -0.000004
      pz      :     0.000003  p :     0.000004
      px      :     0.000001
      py      :     0.000000
 46 H s       :     0.000000  s :     0.000000
      pz      :    -0.000000  p :    -0.000000
      px      :    -0.000000
      py      :    -0.000000
 47 H s       :    -0.000151  s :    -0.000151
      pz      :     0.000024  p :     0.000069
      px      :     0.000024
      py      :     0.000021


                      *****************************
                      * MAYER POPULATION ANALYSIS *
                      *****************************

  NA   - Mulliken gross atomic population
  ZA   - Total nuclear charge
  QA   - Mulliken gross atomic charge
  VA   - Mayer's total valence
  BVA  - Mayer's bonded valence
  FA   - Mayer's free valence

  ATOM       NA         ZA         QA         VA         BVA        FA
  0 C      6.6046     6.0000    -0.6046     3.3876     3.3876     0.0000
  1 C      5.3724     6.0000     0.6276     2.8934     2.8934     0.0000
  2 C      5.3726     6.0000     0.6274     2.8914     2.8914     0.0000
  3 C      6.0392     6.0000    -0.0392     3.8143     3.8143     0.0000
  4 C      6.0644     6.0000    -0.0644     4.1276     4.1276     0.0000
  5 C      5.9790     6.0000     0.0210     3.8827     3.8827     0.0000
  6 C      6.0373     6.0000    -0.0373     3.8150     3.8150     0.0000
  7 C      6.0628     6.0000    -0.0628     4.1265     4.1265     0.0000
  8 C      5.9783     6.0000     0.0217     3.8803     3.8803     0.0000
  9 H      1.0513     1.0000    -0.0513     1.0031     1.0031     0.0000
 10 H      1.0512     1.0000    -0.0512     1.0031     1.0031     0.0000
 11 C      5.9569     6.0000     0.0431     4.0292     4.0292     0.0000
 12 H      0.9685     1.0000     0.0315     0.9697     0.9697     0.0000
 13 H      0.9685     1.0000     0.0315     0.9697     0.9697     0.0000
 14 C      6.0364     6.0000    -0.0364     4.1155     4.1155     0.0000
 15 H      0.9838     1.0000     0.0162     0.9629     0.9629     0.0000
 16 H      0.9836     1.0000     0.0164     0.9628     0.9628     0.0000
 17 C      6.0237     6.0000    -0.0237     4.1172     4.1172     0.0000
 18 H      0.9941     1.0000     0.0059     0.9674     0.9674     0.0000
 19 H      0.9941     1.0000     0.0059     0.9674     0.9674     0.0000
 20 C      5.9963     6.0000     0.0037     4.0168     4.0168     0.0000
 21 H      0.9831     1.0000     0.0169     0.9773     0.9773     0.0000
 22 H      0.9830     1.0000     0.0170     0.9772     0.9772     0.0000
 23 C      5.9544     6.0000     0.0456     4.0214     4.0214     0.0000
 24 H      0.9679     1.0000     0.0321     0.9696     0.9696     0.0000
 25 H      0.9681     1.0000     0.0319     0.9698     0.9698     0.0000
 26 C      6.0431     6.0000    -0.0431     4.1264     4.1263     0.0001
 27 H      0.9802     1.0000     0.0198     0.9614     0.9614     0.0000
 28 H      0.9793     1.0000     0.0207     0.9630     0.9630     0.0000
 29 C      5.9317     6.0000     0.0683     4.0007     3.9982     0.0024
 30 H      0.9932     1.0000     0.0068     0.9721     0.9716     0.0004
 31 H      0.9859     1.0000     0.0141     0.9652     0.9614     0.0038
 32 C      6.1136     6.0000    -0.1136     4.0039     3.2566     0.7473
 33 H      1.0166     1.0000    -0.0166     0.9902     0.9879     0.0023
 34 C      5.9602     6.0000     0.0398     4.0163     4.0138     0.0025
 35 H      0.9873     1.0000     0.0127     0.9644     0.9606     0.0039
 36 H      0.9953     1.0000     0.0047     0.9712     0.9708     0.0004
 37 C      6.0446     6.0000    -0.0446     4.1297     4.1297     0.0001
 38 H      0.9922     1.0000     0.0078     0.9653     0.9653     0.0000
 39 H      0.9912     1.0000     0.0088     0.9667     0.9667     0.0000
 40 C      6.0021     6.0000    -0.0021     4.0213     4.0213     0.0000
 41 H      0.9838     1.0000     0.0162     0.9770     0.9770     0.0000
 42 H      0.9841     1.0000     0.0159     0.9774     0.9774     0.0000
 43 C      6.6056     6.0000    -0.6056     3.3873     3.3873     0.0000
 44 H      1.0295     1.0000    -0.0295     1.0305     1.0305     0.0000
 45 H      1.0296     1.0000    -0.0296     1.0305     1.0305     0.0000
 46 H      0.9875     1.0000     0.0125     0.9734     0.9734    -0.0000
 47 H      0.9880     1.0000     0.0120     0.9735     0.9735     0.0000

  Mayer bond orders larger than 0.100000
B(  0-C ,  1-C ) :   2.1186 B(  0-C , 44-H ) :   1.1190 B(  1-C ,  3-C ) :   0.9085 
B(  2-C ,  6-C ) :   0.9073 B(  2-C , 43-C ) :   2.1182 B(  3-C ,  4-C ) :   1.3967 
B(  3-C ,  8-C ) :   1.3721 B(  4-C ,  5-C ) :   1.4265 B(  4-C , 11-C ) :   1.0905 
B(  5-C ,  6-C ) :   1.3732 B(  5-C ,  9-H ) :   0.9214 B(  6-C ,  7-C ) :   1.3976 
B(  7-C ,  8-C ) :   1.4267 B(  7-C , 23-C ) :   1.0887 B(  8-C , 10-H ) :   0.9221 
B( 11-C , 12-H ) :   0.8981 B( 11-C , 13-H ) :   0.8982 B( 11-C , 14-C ) :   1.1042 
B( 14-C , 15-H ) :   0.9293 B( 14-C , 16-H ) :   0.9292 B( 14-C , 17-C ) :   1.0752 
B( 17-C , 18-H ) :   0.9410 B( 17-C , 19-H ) :   0.9410 B( 17-C , 20-C ) :   1.1059 
B( 20-C , 21-H ) :   0.9662 B( 20-C , 22-H ) :   0.9663 B( 20-C , 46-H ) :   0.9617 
B( 23-C , 24-H ) :   0.8972 B( 23-C , 25-H ) :   0.8970 B( 23-C , 26-C ) :   1.1026 
B( 26-C , 27-H ) :   0.9276 B( 26-C , 28-H ) :   0.9311 B( 26-C , 29-C ) :   1.0724 
B( 29-C , 30-H ) :   0.9239 B( 29-C , 31-H ) :   0.9114 B( 29-C , 32-C ) :   1.0715 
B( 32-C , 33-H ) :   0.9595 B( 32-C , 34-C ) :   1.0795 B( 34-C , 35-H ) :   0.9159 
B( 34-C , 36-H ) :   0.9279 B( 34-C , 37-C ) :   1.0714 B( 37-C , 38-H ) :   0.9444 
B( 37-C , 39-H ) :   0.9472 B( 37-C , 40-C ) :   1.1049 B( 40-C , 41-H ) :   0.9667 
B( 40-C , 42-H ) :   0.9664 B( 40-C , 47-H ) :   0.9627 B( 43-C , 45-H ) :   1.1192 


-------
TIMINGS
-------

Total SCF time: 0 days 0 hours 0 min 56 sec 

Total time                  ....      56.274 sec
Sum of individual times     ....      53.093 sec  ( 94.3%)

Fock matrix formation       ....      47.624 sec  ( 84.6%)
  Split-RI-J                ....       3.531 sec  (  7.4% of F)
  Chain of spheres X        ....      30.680 sec  ( 64.4% of F)
  XC integration            ....      10.407 sec  ( 21.9% of F)
    Basis function eval.    ....       0.918 sec  (  8.8% of XC)
    Density eval.           ....       1.016 sec  (  9.8% of XC)
    XC-Functional eval.     ....       0.236 sec  (  2.3% of XC)
    XC-Potential eval.      ....       0.610 sec  (  5.9% of XC)
Diagonalization             ....       0.933 sec  (  1.7%)
Density matrix formation    ....       0.101 sec  (  0.2%)
Population analysis         ....       0.357 sec  (  0.6%)
Initial guess               ....       0.134 sec  (  0.2%)
Orbital Transformation      ....       0.000 sec  (  0.0%)
Orbital Orthonormalization  ....       0.097 sec  (  0.2%)
DIIS solution               ....       0.646 sec  (  1.1%)
Grid generation             ....       3.298 sec  (  5.9%)

Maximum memory used throughout the entire SCF-calculation: 109.6 MB

-------------------------   --------------------
FINAL SINGLE POINT ENERGY      -815.802914975527
-------------------------   --------------------

                                *** OPTIMIZATION RUN DONE ***

                            ***************************************
                            *     ORCA property calculations      *
                            ***************************************

                                    ---------------------
                                    Active property flags
                                    ---------------------
   (+) Dipole Moment


------------------------------------------------------------------------------
                       ORCA ELECTRIC PROPERTIES CALCULATION
------------------------------------------------------------------------------

Dipole Moment Calculation                       ... on
Quadrupole Moment Calculation                   ... off
Polarizability Calculation                      ... off
GBWName                                         ... opt.gbw
Electron density                                ... opt.scfp
The origin for moment calculation is the CENTER OF MASS  = ( 0.481851,  2.531407 -0.248901)

-------------
DIPOLE MOMENT
-------------
                                X             Y             Z
Electronic contribution:     -2.25174     -13.90312      -1.36513
Nuclear contribution   :      2.28618      13.91542       1.32608
                        -----------------------------------------
Total Dipole Moment    :      0.03444       0.01230      -0.03904
                        -----------------------------------------
Magnitude (a.u.)       :      0.05349
Magnitude (Debye)      :      0.13597



--------------------
Rotational spectrum 
--------------------
 
Rotational constants in cm-1:     0.020790     0.002924     0.002583 
Rotational constants in MHz :   623.258386    87.651943    77.426920 

 Dipole components along the rotational axes: 
x,y,z [a.u.] :     0.018850     0.030690    -0.039554 
x,y,z [Debye]:     0.047912     0.078007    -0.100538 

 

Timings for individual modules:

Sum of individual times         ...     1047.625 sec (=  17.460 min)
GTO integral calculation        ...       36.043 sec (=   0.601 min)   3.4 %
SCF iterations                  ...      799.037 sec (=  13.317 min)  76.3 %
SCF Gradient evaluation         ...      209.925 sec (=   3.499 min)  20.0 %
Geometry relaxation             ...        2.619 sec (=   0.044 min)   0.3 %
                             ****ORCA TERMINATED NORMALLY****
TOTAL RUN TIME: 0 days 0 hours 18 minutes 8 seconds 311 msec
