
                                 *****************
                                 * O   R   C   A *
                                 *****************

                                            #,                                       
                                            ###                                      
                                            ####                                     
                                            #####                                    
                                            ######                                   
                                           ########,                                 
                                     ,,################,,,,,                         
                               ,,#################################,,                 
                          ,,##########################################,,             
                       ,#########################################, ''#####,          
                    ,#############################################,,   '####,        
                  ,##################################################,,,,####,       
                ,###########''''           ''''###############################       
              ,#####''   ,,,,##########,,,,          '''####'''          '####       
            ,##' ,,,,###########################,,,                        '##       
           ' ,,###''''                  '''############,,,                           
         ,,##''                                '''############,,,,        ,,,,,,###''
      ,#''                                            '''#######################'''  
     '                                                          ''''####''''         
             ,#######,   #######,   ,#######,      ##                                
            ,#'     '#,  ##    ##  ,#'     '#,    #''#        ######   ,####,        
            ##       ##  ##   ,#'  ##            #'  '#       #        #'  '#        
            ##       ##  #######   ##           ,######,      #####,   #    #        
            '#,     ,#'  ##    ##  '#,     ,#' ,#      #,         ##   #,  ,#        
             '#######'   ##     ##  '#######'  #'      '#     #####' # '####'        



                  #######################################################
                  #                        -***-                        #
                  #          Department of theory and spectroscopy      #
                  #    Directorship and core code : Frank Neese         #
                  #        Max Planck Institute fuer Kohlenforschung    #
                  #                Kaiser Wilhelm Platz 1               #
                  #                 D-45470 Muelheim/Ruhr               #
                  #                      Germany                        #
                  #                                                     #
                  #                  All rights reserved                #
                  #                        -***-                        #
                  #######################################################


                         Program Version 5.0.4 -  RELEASE  -


 With contributions from (in alphabetic order):
   Daniel Aravena         : Magnetic Suceptibility
   Michael Atanasov       : Ab Initio Ligand Field Theory (pilot matlab implementation)
   Alexander A. Auer      : GIAO ZORA, VPT2 properties, NMR spectrum
   Ute Becker             : Parallelization
   Giovanni Bistoni       : ED, misc. LED, open-shell LED, HFLD
   Martin Brehm           : Molecular dynamics
   Dmytro Bykov           : SCF Hessian
   Vijay G. Chilkuri      : MRCI spin determinant printing, contributions to CSF-ICE
   Dipayan Datta          : RHF DLPNO-CCSD density
   Achintya Kumar Dutta   : EOM-CC, STEOM-CC
   Dmitry Ganyushin       : Spin-Orbit,Spin-Spin,Magnetic field MRCI
   Miquel Garcia          : C-PCM and meta-GGA Hessian, CC/C-PCM, Gaussian charge scheme
   Yang Guo               : DLPNO-NEVPT2, F12-NEVPT2, CIM, IAO-localization
   Andreas Hansen         : Spin unrestricted coupled pair/coupled cluster methods
   Benjamin Helmich-Paris : MC-RPA, TRAH-SCF, COSX integrals
   Lee Huntington         : MR-EOM, pCC
   Robert Izsak           : Overlap fitted RIJCOSX, COSX-SCS-MP3, EOM
   Marcus Kettner         : VPT2
   Christian Kollmar      : KDIIS, OOCD, Brueckner-CCSD(T), CCSD density, CASPT2, CASPT2-K
   Simone Kossmann        : Meta GGA functionals, TD-DFT gradient, OOMP2, MP2 Hessian
   Martin Krupicka        : Initial AUTO-CI
   Lucas Lang             : DCDCAS
   Marvin Lechner         : AUTO-CI (C++ implementation), FIC-MRCC
   Dagmar Lenk            : GEPOL surface, SMD
   Dimitrios Liakos       : Extrapolation schemes; Compound Job, initial MDCI parallelization
   Dimitrios Manganas     : Further ROCIS development; embedding schemes
   Dimitrios Pantazis     : SARC Basis sets
   Anastasios Papadopoulos: AUTO-CI, single reference methods and gradients
   Taras Petrenko         : DFT Hessian,TD-DFT gradient, ASA, ECA, R-Raman, ABS, FL, XAS/XES, NRVS
   Peter Pinski           : DLPNO-MP2, DLPNO-MP2 Gradient
   Christoph Reimann      : Effective Core Potentials
   Marius Retegan         : Local ZFS, SOC
   Christoph Riplinger    : Optimizer, TS searches, QM/MM, DLPNO-CCSD(T), (RO)-DLPNO pert. Triples
   Tobias Risthaus        : Range-separated hybrids, TD-DFT gradient, RPA, STAB
   Michael Roemelt        : Original ROCIS implementation
   Masaaki Saitow         : Open-shell DLPNO-CCSD energy and density
   Barbara Sandhoefer     : DKH picture change effects
   Avijit Sen             : IP-ROCIS
   Kantharuban Sivalingam : CASSCF convergence, NEVPT2, FIC-MRCI
   Bernardo de Souza      : ESD, SOC TD-DFT
   Georgi Stoychev        : AutoAux, RI-MP2 NMR, DLPNO-MP2 response
   Willem Van den Heuvel  : Paramagnetic NMR
   Boris Wezisla          : Elementary symmetry handling
   Frank Wennmohs         : Technical directorship


 We gratefully acknowledge several colleagues who have allowed us to
 interface, adapt or use parts of their codes:
   Stefan Grimme, W. Hujo, H. Kruse, P. Pracht,  : VdW corrections, initial TS optimization,
                  C. Bannwarth, S. Ehlert          DFT functionals, gCP, sTDA/sTD-DF
   Ed Valeev, F. Pavosevic, A. Kumar             : LibInt (2-el integral package), F12 methods
   Garnet Chan, S. Sharma, J. Yang, R. Olivares  : DMRG
   Ulf Ekstrom                                   : XCFun DFT Library
   Mihaly Kallay                                 : mrcc  (arbitrary order and MRCC methods)
   Jiri Pittner, Ondrej Demel                    : Mk-CCSD
   Frank Weinhold                                : gennbo (NPA and NBO analysis)
   Christopher J. Cramer and Donald G. Truhlar   : smd solvation model
   Lars Goerigk                                  : TD-DFT with DH, B97 family of functionals
   V. Asgeirsson, H. Jonsson                     : NEB implementation
   FAccTs GmbH                                   : IRC, NEB, NEB-TS, DLPNO-Multilevel, CI-OPT
                                                   MM, QMMM, 2- and 3-layer-ONIOM, Crystal-QMMM,
                                                   LR-CPCM, SF, NACMEs, symmetry and pop. for TD-DFT,
                                                   nearIR, NL-DFT gradient (VV10), updates on ESD,
                                                   ML-optimized integration grids
   S Lehtola, MJT Oliveira, MAL Marques          : LibXC Library
   Liviu Ungur et al                             : ANISO software


 Your calculation uses the libint2 library for the computation of 2-el integrals
 For citations please refer to: http://libint.valeyev.net

 Your ORCA version has been built with support for libXC version: 5.1.0
 For citations please refer to: https://tddft.org/programs/libxc/

 This ORCA versions uses:
   CBLAS   interface :  Fast vector & matrix operations
   LAPACKE interface :  Fast linear algebra routines
   SCALAPACK package :  Parallel linear algebra routines
   Shared memory     :  Shared parallel matrices
   BLAS/LAPACK       :  OpenBLAS 0.3.15  USE64BITINT DYNAMIC_ARCH NO_AFFINITY SkylakeX SINGLE_THREADED
        Core in use  :  SkylakeX
   Copyright (c) 2011-2014, The OpenBLAS Project




***************************************
The coordinates will be read from file: model.xyz
***************************************


================================================================================

----- Orbital basis set information -----
Your calculation utilizes the basis: EPR-II
   V. Barone, in Recent Advances in Density Functional Methods, Part 1 (ed. D. P. Chong), World Scientific, Singapore, 1995, p. 287.

----- AuxJ basis set information -----
Your calculation utilizes the auxiliary basis: def2/J
   F. Weigend, Phys. Chem. Chem. Phys. 8, 1057 (2006).

================================================================================
                                        WARNINGS
                       Please study these warnings very carefully!
================================================================================


WARNING: your system is open-shell and RHF/RKS was chosen
  ===> : WILL SWITCH to UHF/UKS


WARNING: Geometry Optimization
  ===> : Switching off AutoStart
         For restart on a previous wavefunction, please use MOREAD

INFO   : the flag for use of the SHARK integral package has been found!

================================================================================
                                       INPUT FILE
================================================================================
NAME = opt_EPRII.inp
|  1> ! B3LYP EPR-II OPT
|  2> %pal nprocs 16 end
|  3> *XYZFile 0 2 model.xyz
|  4> 
|  5>                          ****END OF INPUT****
================================================================================

                       *****************************
                       * Geometry Optimization Run *
                       *****************************

Geometry optimization settings:
Update method            Update   .... BFGS
Choice of coordinates    CoordSys .... Z-matrix Internals
Initial Hessian          InHess   .... Almoef's Model

Convergence Tolerances:
Energy Change            TolE     ....  5.0000e-06 Eh
Max. Gradient            TolMAXG  ....  3.0000e-04 Eh/bohr
RMS Gradient             TolRMSG  ....  1.0000e-04 Eh/bohr
Max. Displacement        TolMAXD  ....  4.0000e-03 bohr
RMS Displacement         TolRMSD  ....  2.0000e-03 bohr
Strict Convergence                ....  False
------------------------------------------------------------------------------
                        ORCA OPTIMIZATION COORDINATE SETUP
------------------------------------------------------------------------------

The optimization will be done in new redundant internal coordinates
Making redundant internal coordinates   ...  (new redundants) done
Evaluating the initial hessian          ...  (Almloef) done
Evaluating the coordinates              ...  done
Calculating the B-matrix                .... done
Calculating the G-matrix                .... done
Diagonalizing the G-matrix              .... done
Small eigenvalue found = 8.281e-04
Small eigenvalue found = 3.589e-03
Small eigenvalue found = 3.873e-03
Small eigenvalue found = 9.706e-03
Small eigenvalue found = 1.196e-02
Small eigenvalue found = 1.514e-02
Small eigenvalue found = 2.077e-02
Small eigenvalue found = 2.559e-02
Small eigenvalue found = 2.914e-02
The first mode is                       ....  110
The number of degrees of freedom        ....  138

    -----------------------------------------------------------------
                    Redundant Internal Coordinates


    -----------------------------------------------------------------
         Definition                    Initial Value    Approx d2E/dq
    -----------------------------------------------------------------
      1. B(C   1,C   0)                  1.2161         1.183470   
      2. B(C   3,C   1)                  1.4326         0.534258   
      3. B(C   4,C   3)                  1.4187         0.562370   
      4. B(C   5,C   4)                  1.3955         0.612376   
      5. B(C   6,C   5)                  1.4093         0.582078   
      6. B(C   6,C   2)                  1.4326         0.534256   
      7. B(C   7,C   6)                  1.4186         0.562415   
      8. B(C   8,C   7)                  1.3955         0.612389   
      9. B(C   8,C   3)                  1.4094         0.581784   
     10. B(H   9,C   5)                  1.0898         0.360430   
     11. B(H  10,C   8)                  1.0898         0.360364   
     12. B(C  11,C   4)                  1.5168         0.392183   
     13. B(H  12,C  11)                  1.1056         0.340015   
     14. B(H  13,C  11)                  1.1056         0.340065   
     15. B(C  14,C  11)                  1.5309         0.372354   
     16. B(H  15,C  14)                  1.1057         0.339927   
     17. B(H  16,C  14)                  1.1057         0.339951   
     18. B(C  17,C  14)                  1.5335         0.368823   
     19. B(H  18,C  17)                  1.1059         0.339707   
     20. B(H  19,C  17)                  1.1059         0.339727   
     21. B(C  20,C  17)                  1.5307         0.372559   
     22. B(H  21,C  20)                  1.1038         0.342333   
     23. B(H  22,C  20)                  1.1037         0.342365   
     24. B(C  23,C   7)                  1.5166         0.392466   
     25. B(H  24,C  23)                  1.1056         0.340101   
     26. B(H  25,C  23)                  1.1057         0.339932   
     27. B(C  26,C  23)                  1.5306         0.372800   
     28. B(H  27,C  26)                  1.1051         0.340633   
     29. B(H  28,C  26)                  1.1044         0.341536   
     30. B(C  29,C  26)                  1.5360         0.365417   
     31. B(H  30,C  29)                  1.1084         0.336588   
     32. B(H  31,C  29)                  1.1153         0.328177   
     33. B(C  32,C  29)                  1.4946         0.425388   
     34. B(H  33,C  32)                  1.0975         0.350316   
     35. B(C  34,C  32)                  1.4944         0.425811   
     36. B(H  35,C  34)                  1.1157         0.327617   
     37. B(H  36,C  34)                  1.1088         0.336031   
     38. B(C  37,C  34)                  1.5358         0.365695   
     39. B(H  38,C  37)                  1.1058         0.339790   
     40. B(H  39,C  37)                  1.1050         0.340820   
     41. B(C  40,C  37)                  1.5302         0.373294   
     42. B(H  41,C  40)                  1.1038         0.342237   
     43. B(H  42,C  40)                  1.1039         0.342161   
     44. B(C  43,C   2)                  1.2161         1.183418   
     45. B(H  44,C   0)                  1.0725         0.384079   
     46. B(H  45,C  43)                  1.0725         0.384080   
     47. B(H  46,C  20)                  1.1021         0.344418   
     48. B(H  47,C  40)                  1.1022         0.344364   
     49. L(C   1,C   0,H  44, 2)       179.9255         0.398984   
     50. L(C   1,C   0,H  44, 1)       180.0826         0.398984   
     51. L(C   0,C   1,C   3,C   8, 2) 180.2282         0.475206   
     52. L(C   0,C   1,C   3,C   8, 1) 179.6363         0.475206   
     53. L(C   6,C   2,C  43,C   5, 2) 179.9197         0.475202   
     54. L(C   6,C   2,C  43,C   5, 1) 179.6079         0.475202   
     55. A(C   1,C   3,C   8)          118.9693         0.417865   
     56. A(C   1,C   3,C   4)          120.6633         0.415349   
     57. A(C   4,C   3,C   8)          120.3674         0.421704   
     58. A(C   5,C   4,C  11)          122.7657         0.399218   
     59. A(C   3,C   4,C   5)          117.2955         0.425586   
     60. A(C   3,C   4,C  11)          119.9388         0.393294   
     61. A(C   4,C   5,C   6)          122.3422         0.428220   
     62. A(C   4,C   5,H   9)          120.0269         0.352225   
     63. A(C   6,C   5,H   9)          117.6310         0.349220   
     64. A(C   5,C   6,C   7)          120.3602         0.421749   
     65. A(C   2,C   6,C   7)          120.6837         0.415354   
     66. A(C   2,C   6,C   5)          118.9561         0.417902   
     67. A(C   8,C   7,C  23)          122.8183         0.399270   
     68. A(C   6,C   7,C  23)          119.8747         0.393349   
     69. A(C   6,C   7,C   8)          117.3070         0.425594   
     70. A(C   3,C   8,H  10)          117.6454         0.349179   
     71. A(C   3,C   8,C   7)          122.3277         0.428183   
     72. A(C   7,C   8,H  10)          120.0269         0.352216   
     73. A(H  12,C  11,H  13)          104.4489         0.285670   
     74. A(H  13,C  11,C  14)          109.2556         0.321117   
     75. A(H  12,C  11,C  14)          109.2325         0.321110   
     76. A(C   4,C  11,H  13)          108.1894         0.323859   
     77. A(C   4,C  11,C  14)          116.8304         0.366181   
     78. A(C   4,C  11,H  12)          108.1697         0.323852   
     79. A(H  16,C  14,C  17)          109.0115         0.320600   
     80. A(H  15,C  14,C  17)          109.0439         0.320596   
     81. A(C  11,C  14,C  17)          112.6230         0.362355   
     82. A(H  15,C  14,H  16)          106.2027         0.285643   
     83. A(C  11,C  14,H  16)          109.8964         0.321100   
     84. A(C  11,C  14,H  15)          109.8535         0.321096   
     85. A(C  14,C  17,H  18)          109.2111         0.320562   
     86. A(H  19,C  17,C  20)          109.5798         0.321094   
     87. A(H  18,C  17,C  20)          109.5584         0.321091   
     88. A(C  14,C  17,C  20)          113.1748         0.362389   
     89. A(H  18,C  17,H  19)          105.8422         0.285585   
     90. A(C  14,C  17,H  19)          109.2114         0.320565   
     91. A(H  21,C  20,H  46)          107.5843         0.286540   
     92. A(H  22,C  20,H  46)          107.5965         0.286544   
     93. A(C  17,C  20,H  46)          111.4961         0.321816   
     94. A(H  21,C  20,H  22)          107.3764         0.286273   
     95. A(C  17,C  20,H  22)          111.2940         0.321501   
     96. A(C  17,C  20,H  21)          111.2869         0.321496   
     97. A(H  25,C  23,C  26)          109.2560         0.321160   
     98. A(H  24,C  23,C  26)          109.2219         0.321186   
     99. A(C   7,C  23,C  26)          116.8511         0.366302   
    100. A(H  24,C  23,H  25)          104.4443         0.285663   
    101. A(C   7,C  23,H  25)          108.2025         0.323877   
    102. A(C   7,C  23,H  24)          108.1480         0.323903   
    103. A(H  28,C  26,C  29)          108.9002         0.320357   
    104. A(H  27,C  26,C  29)          108.8810         0.320219   
    105. A(C  23,C  26,C  29)          112.3994         0.361856   
    106. A(H  27,C  26,H  28)          106.3657         0.285943   
    107. A(C  23,C  26,H  28)          110.1215         0.321407   
    108. A(C  23,C  26,H  27)          109.9803         0.321268   
    109. A(H  31,C  29,C  32)          109.9810         0.326301   
    110. A(H  30,C  29,C  32)          109.6252         0.327664   
    111. A(C  26,C  29,C  32)          114.0606         0.370128   
    112. A(H  30,C  29,H  31)          104.4523         0.283645   
    113. A(C  26,C  29,H  31)          108.5831         0.318278   
    114. A(C  26,C  29,H  30)          109.6952         0.319595   
    115. A(H  33,C  32,C  34)          118.1578         0.329887   
    116. A(C  29,C  32,C  34)          121.9023         0.380031   
    117. A(C  29,C  32,H  33)          118.1318         0.329833   
    118. A(C  32,C  34,H  35)          109.9562         0.326262   
    119. A(H  36,C  34,C  37)          109.6324         0.319548   
    120. A(H  35,C  34,C  37)          108.4959         0.318228   
    121. A(C  32,C  34,C  37)          114.2092         0.370240   
    122. A(H  35,C  34,H  36)          104.4627         0.283497   
    123. A(C  32,C  34,H  36)          109.6276         0.327628   
    124. A(H  39,C  37,C  40)          109.8395         0.321367   
    125. A(H  38,C  37,C  40)          109.6280         0.321208   
    126. A(C  34,C  37,C  40)          113.2364         0.361984   
    127. A(H  38,C  37,H  39)          105.9936         0.285739   
    128. A(C  34,C  37,H  39)          108.9384         0.320287   
    129. A(C  34,C  37,H  38)          108.9442         0.320129   
    130. A(H  42,C  40,H  47)          107.6163         0.286511   
    131. A(H  41,C  40,H  47)          107.5763         0.286521   
    132. A(C  37,C  40,H  47)          111.5252         0.321911   
    133. A(H  41,C  40,H  42)          107.3388         0.286234   
    134. A(C  37,C  40,H  42)          111.2975         0.321573   
    135. A(C  37,C  40,H  41)          111.2781         0.321585   
    136. L(C   2,C  43,H  45, 2)       180.0664         0.398981   
    137. L(C   2,C  43,H  45, 1)       180.0736         0.398981   
    138. D(C  11,C   4,C   3,C   1)     -0.0330         0.021671   
    139. D(C   5,C   4,C   3,C   1)    179.9589         0.021671   
    140. D(C  11,C   4,C   3,C   8)    179.9758         0.021671   
    141. D(C   5,C   4,C   3,C   8)     -0.0323         0.021671   
    142. D(H   9,C   5,C   4,C  11)     -0.0019         0.025911   
    143. D(C   6,C   5,C   4,C  11)    179.9954         0.025911   
    144. D(H   9,C   5,C   4,C   3)   -179.9935         0.025911   
    145. D(C   6,C   5,C   4,C   3)      0.0038         0.025911   
    146. D(C   2,C   6,C   5,C   4)    179.9716         0.023286   
    147. D(C   2,C   6,C   5,H   9)     -0.0310         0.023286   
    148. D(C   7,C   6,C   5,C   4)      0.0096         0.023286   
    149. D(C   7,C   6,C   5,H   9)   -179.9930         0.023286   
    150. D(C   8,C   7,C   6,C   5)      0.0056         0.021674   
    151. D(C   8,C   7,C   6,C   2)   -179.9557         0.021674   
    152. D(C  23,C   7,C   6,C   2)      0.0386         0.021674   
    153. D(C  23,C   7,C   6,C   5)    179.9999         0.021674   
    154. D(H  10,C   8,C   7,C   6)    179.9449         0.025912   
    155. D(H  10,C   8,C   7,C  23)     -0.0492         0.025912   
    156. D(C   3,C   8,C   7,C  23)    179.9709         0.025912   
    157. D(C   3,C   8,C   7,C   6)     -0.0350         0.025912   
    158. D(C   7,C   8,C   3,C   4)      0.0495         0.023261   
    159. D(C   7,C   8,C   3,C   1)   -179.9418         0.023261   
    160. D(H  10,C   8,C   3,C   4)   -179.9308         0.023261   
    161. D(H  10,C   8,C   3,C   1)      0.0778         0.023261   
    162. D(C  14,C  11,C   4,C   5)     -0.0200         0.011436   
    163. D(C  14,C  11,C   4,C   3)    179.9714         0.011436   
    164. D(H  13,C  11,C   4,C   5)    123.7046         0.011436   
    165. D(H  13,C  11,C   4,C   3)    -56.3040         0.011436   
    166. D(H  12,C  11,C   4,C   5)   -123.6975         0.011436   
    167. D(H  12,C  11,C   4,C   3)     56.2939         0.011436   
    168. D(H  15,C  14,C  11,C   4)    -58.3374         0.011075   
    169. D(C  17,C  14,C  11,H  12)    -56.9614         0.011075   
    170. D(C  17,C  14,C  11,C   4)    179.9067         0.011075   
    171. D(H  16,C  14,C  11,H  13)    -65.0160         0.011075   
    172. D(H  16,C  14,C  11,H  12)   -178.7064         0.011075   
    173. D(H  16,C  14,C  11,C   4)     58.1616         0.011075   
    174. D(H  15,C  14,C  11,H  13)    178.4849         0.011075   
    175. D(C  17,C  14,C  11,H  13)     56.7290         0.011075   
    176. D(H  15,C  14,C  11,H  12)     64.7945         0.011075   
    177. D(C  20,C  17,C  14,H  16)    -57.8904         0.010879   
    178. D(C  20,C  17,C  14,C  11)    179.8643         0.010879   
    179. D(H  19,C  17,C  14,H  16)    179.7521         0.010879   
    180. D(H  19,C  17,C  14,H  15)    -64.7069         0.010879   
    181. D(H  19,C  17,C  14,C  11)     57.5067         0.010879   
    182. D(H  18,C  17,C  14,H  16)     64.4395         0.010879   
    183. D(C  20,C  17,C  14,H  15)     57.6506         0.010879   
    184. D(H  18,C  17,C  14,H  15)    179.9804         0.010879   
    185. D(H  18,C  17,C  14,C  11)    -57.8059         0.010879   
    186. D(H  46,C  20,C  17,H  19)    -57.9973         0.011087   
    187. D(H  46,C  20,C  17,H  18)     57.7147         0.011087   
    188. D(H  22,C  20,C  17,H  19)     62.1496         0.011087   
    189. D(H  22,C  20,C  17,H  18)    177.8616         0.011087   
    190. D(H  22,C  20,C  17,C  14)    -60.0024         0.011087   
    191. D(H  46,C  20,C  17,C  14)    179.8507         0.011087   
    192. D(H  21,C  20,C  17,H  18)    -62.4119         0.011087   
    193. D(H  21,C  20,C  17,C  14)     59.7241         0.011087   
    194. D(H  21,C  20,C  17,H  19)   -178.1239         0.011087   
    195. D(C  26,C  23,C   7,C   6)   -179.4417         0.011452   
    196. D(H  25,C  23,C   7,C   8)   -123.1989         0.011452   
    197. D(H  25,C  23,C   7,C   6)     56.8071         0.011452   
    198. D(H  24,C  23,C   7,C   8)    124.2127         0.011452   
    199. D(C  26,C  23,C   7,C   8)      0.5523         0.011452   
    200. D(H  24,C  23,C   7,C   6)    -55.7812         0.011452   
    201. D(C  29,C  26,C  23,H  25)    -56.7846         0.011100   
    202. D(C  29,C  26,C  23,C   7)   -179.9957         0.011100   
    203. D(H  28,C  26,C  23,H  25)   -178.3945         0.011100   
    204. D(H  28,C  26,C  23,H  24)    -64.7149         0.011100   
    205. D(H  28,C  26,C  23,C   7)     58.3944         0.011100   
    206. D(H  27,C  26,C  23,H  25)     64.7008         0.011100   
    207. D(C  29,C  26,C  23,H  24)     56.8949         0.011100   
    208. D(H  27,C  26,C  23,H  24)    178.3804         0.011100   
    209. D(H  27,C  26,C  23,C   7)    -58.5103         0.011100   
    210. D(C  32,C  29,C  26,H  28)    -57.9704         0.010691   
    211. D(C  32,C  29,C  26,H  27)     57.6152         0.010691   
    212. D(C  32,C  29,C  26,C  23)    179.7261         0.010691   
    213. D(H  31,C  29,C  26,H  28)    179.0103         0.010691   
    214. D(H  31,C  29,C  26,H  27)    -65.4042         0.010691   
    215. D(H  31,C  29,C  26,C  23)     56.7067         0.010691   
    216. D(H  30,C  29,C  26,H  28)     65.4314         0.010691   
    217. D(H  30,C  29,C  26,H  27)   -178.9831         0.010691   
    218. D(H  30,C  29,C  26,C  23)    -56.8722         0.010691   
    219. D(C  34,C  32,C  29,H  31)    -71.9443         0.013371   
    220. D(C  34,C  32,C  29,H  30)     42.3603         0.013371   
    221. D(C  34,C  32,C  29,C  26)    165.7999         0.013371   
    222. D(H  33,C  32,C  29,H  31)     92.4543         0.013371   
    223. D(H  33,C  32,C  29,H  30)   -153.2411         0.013371   
    224. D(H  33,C  32,C  29,C  26)    -29.8014         0.013371   
    225. D(C  37,C  34,C  32,H  33)     30.2983         0.013397   
    226. D(C  37,C  34,C  32,C  29)   -165.3069         0.013397   
    227. D(H  36,C  34,C  32,H  33)    153.7649         0.013397   
    228. D(H  36,C  34,C  32,C  29)    -41.8404         0.013397   
    229. D(H  35,C  34,C  32,H  33)    -91.9306         0.013397   
    230. D(H  35,C  34,C  32,C  29)     72.4642         0.013397   
    231. D(C  40,C  37,C  34,H  36)     56.9172         0.010706   
    232. D(C  40,C  37,C  34,H  35)    -56.5945         0.010706   
    233. D(C  40,C  37,C  34,C  32)   -179.6189         0.010706   
    234. D(H  39,C  37,C  34,H  36)    -65.6172         0.010706   
    235. D(H  39,C  37,C  34,H  35)   -179.1288         0.010706   
    236. D(H  39,C  37,C  34,C  32)     57.8467         0.010706   
    237. D(H  38,C  37,C  34,H  36)    179.1844         0.010706   
    238. D(H  38,C  37,C  34,H  35)     65.6728         0.010706   
    239. D(H  38,C  37,C  34,C  32)    -57.3517         0.010706   
    240. D(H  47,C  40,C  37,H  38)     58.1420         0.011128   
    241. D(H  47,C  40,C  37,C  34)   -179.9726         0.011128   
    242. D(H  42,C  40,C  37,H  39)   -178.1346         0.011128   
    243. D(H  42,C  40,C  37,H  38)    -62.0524         0.011128   
    244. D(H  42,C  40,C  37,C  34)     59.8331         0.011128   
    245. D(H  41,C  40,C  37,H  39)     62.1901         0.011128   
    246. D(H  41,C  40,C  37,H  38)    178.2723         0.011128   
    247. D(H  47,C  40,C  37,H  39)    -57.9402         0.011128   
    248. D(H  41,C  40,C  37,C  34)    -59.8423         0.011128   
    -----------------------------------------------------------------

Number of atoms                         .... 48
Number of degrees of freedom            .... 248

         *************************************************************
         *                GEOMETRY OPTIMIZATION CYCLE   1            *
         *************************************************************
---------------------------------
CARTESIAN COORDINATES (ANGSTROEM)
---------------------------------
  C     -3.990231    0.213841   -0.298689
  C     -2.777202    0.134401   -0.264168
  C      2.881118   -0.106320   -0.120939
  C     -1.347580    0.049789   -0.226693
  C     -0.698663   -1.210432   -0.168978
  C      0.696414   -1.210949   -0.136033
  C      1.451516   -0.021244   -0.158159
  C      0.802554    1.238942   -0.215585
  C     -0.592525    1.239697   -0.248218
  H      1.240484   -2.154117   -0.091566
  H     -1.136490    2.183031   -0.291658
  C     -1.520796   -2.484849   -0.145693
  H     -2.176647   -2.488350   -1.035776
  H     -2.218070   -2.430135    0.710536
  C     -0.747760   -3.804774   -0.083711
  H     -0.066510   -3.882053   -0.951169
  H     -0.105100   -3.822574    0.815836
  C     -1.671277   -5.028796   -0.062159
  H     -2.353766   -4.954482    0.804809
  H     -2.318821   -5.011894   -0.958437
  C     -0.911004   -6.356092   -0.003542
  H     -0.279819   -6.416782    0.899916
  H     -0.247977   -6.477180   -0.877607
  C      1.625960    2.512302   -0.238909
  H      2.288489    2.510214    0.646135
  H      2.316797    2.461154   -1.100696
  C      0.854747    3.833459   -0.287928
  H      0.209453    3.860975   -1.184672
  H      0.180476    3.912331    0.583195
  C      1.786297    5.054577   -0.308234
  H      2.452926    5.030614    0.576943
  H      2.476574    4.960570   -1.179156
  C      1.071033    6.365835   -0.362651
  H      0.095267    6.402624   -0.863681
  C      1.766851    7.657378   -0.078213
  H      2.447636    7.917283   -0.923106
  H      2.441558    7.532993    0.792881
  C      0.820543    8.841876    0.167056
  H      0.163439    8.964772   -0.713802
  H      0.153001    8.598335    1.013255
  C      1.555999   10.154269    0.446799
  H      2.197776   10.071072    1.341050
  H      2.205841   10.437943   -0.399281
  C      4.094180   -0.186871   -0.089942
  H     -5.059895    0.285441   -0.327738
  H      5.163803   -0.259276   -0.061371
  H     -1.600271   -7.215913    0.013460
  H      0.851264   10.984019    0.618926

----------------------------
CARTESIAN COORDINATES (A.U.)
----------------------------
  NO LB      ZA    FRAG     MASS         X           Y           Z
   0 C     6.0000    0    12.011   -7.540443    0.404102   -0.564441
   1 C     6.0000    0    12.011   -5.248151    0.253982   -0.499205
   2 C     6.0000    0    12.011    5.444523   -0.200916   -0.228541
   3 C     6.0000    0    12.011   -2.546557    0.094088   -0.428388
   4 C     6.0000    0    12.011   -1.320281   -2.287384   -0.319322
   5 C     6.0000    0    12.011    1.316032   -2.288362   -0.257066
   6 C     6.0000    0    12.011    2.742967   -0.040146   -0.298877
   7 C     6.0000    0    12.011    1.516606    2.341260   -0.407397
   8 C     6.0000    0    12.011   -1.119709    2.342688   -0.469065
   9 H     1.0000    0     1.008    2.344176   -4.070692   -0.173035
  10 H     1.0000    0     1.008   -2.147654    4.125332   -0.551153
  11 C     6.0000    0    12.011   -2.873887   -4.695684   -0.275319
  12 H     1.0000    0     1.008   -4.113266   -4.702301   -1.957333
  13 H     1.0000    0     1.008   -4.191546   -4.592290    1.342718
  14 C     6.0000    0    12.011   -1.413063   -7.189981   -0.158191
  15 H     1.0000    0     1.008   -0.125686   -7.336017   -1.797449
  16 H     1.0000    0     1.008   -0.198611   -7.223618    1.541707
  17 C     6.0000    0    12.011   -3.158256   -9.503046   -0.117464
  18 H     1.0000    0     1.008   -4.447973   -9.362614    1.520868
  19 H     1.0000    0     1.008   -4.381937   -9.471107   -1.811183
  20 C     6.0000    0    12.011   -1.721549  -12.011274   -0.006693
  21 H     1.0000    0     1.008   -0.528780  -12.125961    1.700595
  22 H     1.0000    0     1.008   -0.468608  -12.240097   -1.658438
  23 C     6.0000    0    12.011    3.072619    4.747563   -0.451472
  24 H     1.0000    0     1.008    4.324617    4.743617    1.221018
  25 H     1.0000    0     1.008    4.378111    4.650907   -2.080014
  26 C     6.0000    0    12.011    1.615237    7.244188   -0.544106
  27 H     1.0000    0     1.008    0.395809    7.296186   -2.238705
  28 H     1.0000    0     1.008    0.341050    7.393234    1.102078
  29 C     6.0000    0    12.011    3.375613    9.551766   -0.582477
  30 H     1.0000    0     1.008    4.635359    9.506484    1.090264
  31 H     1.0000    0     1.008    4.680046    9.374118   -2.228283
  32 C     6.0000    0    12.011    2.023959   12.029684   -0.685312
  33 H     1.0000    0     1.008    0.180029   12.099206   -1.632121
  34 C     6.0000    0    12.011    3.338865   14.470348   -0.147801
  35 H     1.0000    0     1.008    4.625361   14.961497   -1.744418
  36 H     1.0000    0     1.008    4.613877   14.235294    1.498328
  37 C     6.0000    0    12.011    1.550602   16.708724    0.315689
  38 H     1.0000    0     1.008    0.308854   16.940964   -1.348890
  39 H     1.0000    0     1.008    0.289130   16.248499    1.914775
  40 C     6.0000    0    12.011    2.940412   19.188787    0.844327
  41 H     1.0000    0     1.008    4.153195   19.031567    2.534216
  42 H     1.0000    0     1.008    4.168435   19.724854   -0.754532
  43 C     6.0000    0    12.011    7.736880   -0.353135   -0.169966
  44 H     1.0000    0     1.008   -9.561816    0.539405   -0.619335
  45 H     1.0000    0     1.008    9.758173   -0.489961   -0.115974
  46 H     1.0000    0     1.008   -3.024075  -13.636100    0.025435
  47 H     1.0000    0     1.008    1.608656   20.756787    1.169600

--------------------------------
INTERNAL COORDINATES (ANGSTROEM)
--------------------------------
 C      0   0   0     0.000000000000     0.00000000     0.00000000
 C      1   0   0     1.216117300565     0.00000000     0.00000000
 C      2   1   0     5.665248771760   178.67761451     0.00000000
 C      2   1   3     1.432613825907   179.61834457   348.16914013
 C      4   2   1     1.418654589576   120.66329900   197.73351178
 C      5   4   2     1.395465866938   117.29550747   179.95887674
 C      6   5   4     1.409278387283   122.34215469     0.00000000
 C      7   6   5     1.418632466811   120.36015666     0.00000000
 C      8   7   6     1.395459934866   117.30702135     0.00000000
 H      6   5   4     1.089750567201   120.02688666   180.00645413
 H      9   8   7     1.089800388089   120.02687508   179.94491344
 C      5   4   2     1.516767495352   119.93882327   359.96700702
 H     12   5   4     1.105622523053   108.16965870    56.29388234
 H     12   5   4     1.105582648123   108.18937256   303.69597780
 C     12   5   4     1.530891106325   116.83043287   179.97136075
 H     15  12   5     1.105693044963   109.85347588   301.66257700
 H     15  12   5     1.105673591743   109.89641577    58.16164100
 C     15  12   5     1.533484839186   112.62303170   179.90666597
 H     18  15  12     1.105869607301   109.21106582   302.19410671
 H     18  15  12     1.105853537794   109.21139386    57.50674665
 C     18  15  12     1.530740866611   113.17484615   179.86427273
 H     21  18  15     1.103773146214   111.28686982    59.72408227
 H     21  18  15     1.103747463839   111.29395931   299.99763367
 C      8   7   6     1.516571393193   119.87466156   179.99993926
 H     24   8   7     1.105554226519   108.14795404   304.21875343
 H     24   8   7     1.105689496596   108.20245639    56.80707413
 C     24   8   7     1.530565281228   116.85111328   180.55827679
 H     27  24   8     1.105128420309   109.98027970   301.48969527
 H     27  24   8     1.104408138057   110.12146284    58.39438627
 C     27  24   8     1.536010107097   112.39937940   180.00427198
 H     30  27  24     1.108379926733   109.69518902   303.12781338
 H     30  27  24     1.115269099821   108.58306519    56.70669984
 C     30  27  24     1.494644224834   114.06061672   179.72608076
 H     33  30  27     1.097498554175   118.13176450   330.19856581
 C     33  30  27     1.494374056272   121.90232074   165.79994611
 H     35  33  30     1.115733918676   109.95621207    72.46416976
 H     35  33  30     1.108831076602   109.62757730   318.15960031
 C     35  33  30     1.535803009478   114.20920583   194.69308218
 H     38  35  33     1.105802712550   108.94418458   302.64834308
 H     38  35  33     1.104979023347   108.93839463    57.84670394
 C     38  35  33     1.530204502947   113.23636774   180.38109264
 H     41  38  35     1.103849725868   111.27809064   300.15772310
 H     41  38  35     1.103909711919   111.29745378    59.83305319
 C      3   2   1     1.216129260056   178.63742761   187.23701788
 H      1   2   4     1.072451254423   179.88881240   298.38081564
 H     44   3   7     1.072451049778   179.90112472   313.93426540
 H     21  18  15     1.102120481651   111.49610538   179.85071443
 H     41  38  35     1.102162990591   111.52523936   180.02743401

---------------------------
INTERNAL COORDINATES (A.U.)
---------------------------
 C      0   0   0     0.000000000000     0.00000000     0.00000000
 C      1   0   0     2.298128644791     0.00000000     0.00000000
 C      2   1   0    10.705768659161   178.67761451     0.00000000
 C      2   1   3     2.707247786634   179.61834457   348.16914013
 C      4   2   1     2.680868652928   120.66329900   197.73351178
 C      5   4   2     2.637048317748   117.29550747   179.95887674
 C      6   5   4     2.663150198420   122.34215469     0.00000000
 C      7   6   5     2.680826846961   120.36015666     0.00000000
 C      8   7   6     2.637037107756   117.30702135     0.00000000
 H      6   5   4     2.059330126296   120.02688666   180.00645413
 H      9   8   7     2.059424274130   120.02687508   179.94491344
 C      5   4   2     2.866275175049   119.93882327   359.96700702
 H     12   5   4     2.089323776066   108.16965870    56.29388234
 H     12   5   4     2.089248423368   108.18937256   303.69597780
 C     12   5   4     2.892964931810   116.83043287   179.97136075
 H     15  12   5     2.089457043161   109.85347588   301.66257700
 H     15  12   5     2.089420281904   109.89641577    58.16164100
 C     15  12   5     2.897866376581   112.62303170   179.90666597
 H     18  15  12     2.089790697626   109.21106582   302.19410671
 H     18  15  12     2.089760330659   109.21139386    57.50674665
 C     18  15  12     2.892681019896   113.17484615   179.86427273
 H     21  18  15     2.085828960322   111.28686982    59.72408227
 H     21  18  15     2.085780427665   111.29395931   299.99763367
 C      8   7   6     2.865904595674   119.87466156   179.99993926
 H     24   8   7     2.089194714320   108.14795404   304.21875343
 H     24   8   7     2.089450337720   108.20245639    56.80707413
 C     24   8   7     2.892349211610   116.85111328   180.55827679
 H     27  24   8     2.088390057196   109.98027970   301.48969527
 H     27  24   8     2.087028921001   110.12146284    58.39438627
 C     27  24   8     2.902638441348   112.39937940   180.00427198
 H     30  27  24     2.094534513861   109.69518902   303.12781338
 H     30  27  24     2.107553164287   108.58306519    56.70669984
 C     30  27  24     2.824468252583   114.06061672   179.72608076
 H     33  30  27     2.073971699765   118.13176450   330.19856581
 C     33  30  27     2.823957707992   121.90232074   165.79994611
 H     35  33  30     2.108431544624   109.95621207    72.46416976
 H     35  33  30     2.095387063558   109.62757730   318.15960031
 C     35  33  30     2.902247083566   114.20920583   194.69308218
 H     38  35  33     2.089664284866   108.94418458   302.64834308
 H     38  35  33     2.088107737853   108.93839463    57.84670394
 C     38  35  33     2.891667439463   113.23636774   180.38109264
 H     41  38  35     2.085973674895   111.27809064   300.15772310
 H     41  38  35     2.086087032104   111.29745378    59.83305319
 C      3   2   1     2.298151244954   178.63742761   187.23701788
 H      1   2   4     2.026639162840   179.88881240   298.38081564
 H     44   3   7     2.026638776116   179.90112472   313.93426540
 H     21  18  15     2.082705876905   111.49610538   179.85071443
 H     41  38  35     2.082786207160   111.52523936   180.02743401

---------------------
BASIS SET INFORMATION
---------------------
There are 2 groups of distinct atoms

 Group   1 Type C   : 10s5p1d contracted to 6s2p1d pattern {511111/41/1}
 Group   2 Type H   : 6s1p contracted to 4s1p pattern {3111/1}

Atom   0C    basis set group =>   1
Atom   1C    basis set group =>   1
Atom   2C    basis set group =>   1
Atom   3C    basis set group =>   1
Atom   4C    basis set group =>   1
Atom   5C    basis set group =>   1
Atom   6C    basis set group =>   1
Atom   7C    basis set group =>   1
Atom   8C    basis set group =>   1
Atom   9H    basis set group =>   2
Atom  10H    basis set group =>   2
Atom  11C    basis set group =>   1
Atom  12H    basis set group =>   2
Atom  13H    basis set group =>   2
Atom  14C    basis set group =>   1
Atom  15H    basis set group =>   2
Atom  16H    basis set group =>   2
Atom  17C    basis set group =>   1
Atom  18H    basis set group =>   2
Atom  19H    basis set group =>   2
Atom  20C    basis set group =>   1
Atom  21H    basis set group =>   2
Atom  22H    basis set group =>   2
Atom  23C    basis set group =>   1
Atom  24H    basis set group =>   2
Atom  25H    basis set group =>   2
Atom  26C    basis set group =>   1
Atom  27H    basis set group =>   2
Atom  28H    basis set group =>   2
Atom  29C    basis set group =>   1
Atom  30H    basis set group =>   2
Atom  31H    basis set group =>   2
Atom  32C    basis set group =>   1
Atom  33H    basis set group =>   2
Atom  34C    basis set group =>   1
Atom  35H    basis set group =>   2
Atom  36H    basis set group =>   2
Atom  37C    basis set group =>   1
Atom  38H    basis set group =>   2
Atom  39H    basis set group =>   2
Atom  40C    basis set group =>   1
Atom  41H    basis set group =>   2
Atom  42H    basis set group =>   2
Atom  43C    basis set group =>   1
Atom  44H    basis set group =>   2
Atom  45H    basis set group =>   2
Atom  46H    basis set group =>   2
Atom  47H    basis set group =>   2
---------------------------------
AUXILIARY/J BASIS SET INFORMATION
---------------------------------
There are 2 groups of distinct atoms

 Group   1 Type C   : 12s5p4d2f1g contracted to 6s4p3d1f1g pattern {711111/2111/211/2/1}
 Group   2 Type H   : 5s2p1d contracted to 3s1p1d pattern {311/2/1}

Atom   0C    basis set group =>   1
Atom   1C    basis set group =>   1
Atom   2C    basis set group =>   1
Atom   3C    basis set group =>   1
Atom   4C    basis set group =>   1
Atom   5C    basis set group =>   1
Atom   6C    basis set group =>   1
Atom   7C    basis set group =>   1
Atom   8C    basis set group =>   1
Atom   9H    basis set group =>   2
Atom  10H    basis set group =>   2
Atom  11C    basis set group =>   1
Atom  12H    basis set group =>   2
Atom  13H    basis set group =>   2
Atom  14C    basis set group =>   1
Atom  15H    basis set group =>   2
Atom  16H    basis set group =>   2
Atom  17C    basis set group =>   1
Atom  18H    basis set group =>   2
Atom  19H    basis set group =>   2
Atom  20C    basis set group =>   1
Atom  21H    basis set group =>   2
Atom  22H    basis set group =>   2
Atom  23C    basis set group =>   1
Atom  24H    basis set group =>   2
Atom  25H    basis set group =>   2
Atom  26C    basis set group =>   1
Atom  27H    basis set group =>   2
Atom  28H    basis set group =>   2
Atom  29C    basis set group =>   1
Atom  30H    basis set group =>   2
Atom  31H    basis set group =>   2
Atom  32C    basis set group =>   1
Atom  33H    basis set group =>   2
Atom  34C    basis set group =>   1
Atom  35H    basis set group =>   2
Atom  36H    basis set group =>   2
Atom  37C    basis set group =>   1
Atom  38H    basis set group =>   2
Atom  39H    basis set group =>   2
Atom  40C    basis set group =>   1
Atom  41H    basis set group =>   2
Atom  42H    basis set group =>   2
Atom  43C    basis set group =>   1
Atom  44H    basis set group =>   2
Atom  45H    basis set group =>   2
Atom  46H    basis set group =>   2
Atom  47H    basis set group =>   2


           ************************************************************
           *        Program running with 16 parallel MPI-processes    *
           *              working on a common directory               *
           ************************************************************
------------------------------------------------------------------------------
                           ORCA GTO INTEGRAL CALCULATION
                           -- RI-GTO INTEGRALS CHOSEN --
------------------------------------------------------------------------------
------------------------------------------------------------------------------
                   ___                                                        
                  /   \      - P O W E R E D   B Y -                         
                 /     \                                                     
                 |  |  |   _    _      __       _____    __    __             
                 |  |  |  | |  | |    /  \     |  _  \  |  |  /  |          
                  \  \/   | |  | |   /    \    | | | |  |  | /  /          
                 / \  \   | |__| |  /  /\  \   | |_| |  |  |/  /          
                |  |  |   |  __  | /  /__\  \  |    /   |      \           
                |  |  |   | |  | | |   __   |  |    \   |  |\   \          
                \     /   | |  | | |  |  |  |  | |\  \  |  | \   \       
                 \___/    |_|  |_| |__|  |__|  |_| \__\ |__|  \__/        
                                                                              
                      - O R C A' S   B I G   F R I E N D -                    
                                      &                                       
                       - I N T E G R A L  F E E D E R -                       
                                                                              
 v1 FN, 2020, v2 2021                                                         
------------------------------------------------------------------------------


Reading SHARK input file opt_EPRII.SHARKINP.tmp ... ok
----------------------
SHARK INTEGRAL PACKAGE
----------------------

Number of atoms                             ...     48
Number of basis functions                   ...    546
Number of shells                            ...    324
Maximum angular momentum                    ...      2
Integral batch strategy                     ... SHARK/LIBINT Hybrid
RI-J (if used) integral strategy            ... SPLIT-RIJ (Revised 2003 algorithm where possible)
Printlevel                                  ...      1
Contraction scheme used                     ... SEGMENTED contraction
Coulomb Range Separation                    ... NOT USED
Exchange Range Separation                   ... NOT USED
Finite Nucleus Model                        ... NOT USED
Auxiliary Coulomb fitting basis             ... AVAILABLE
   # of basis functions in Aux-J            ...   1326
   # of shells in Aux-J                     ...    450
   Maximum angular momentum in Aux-J        ...      4
Auxiliary J/K fitting basis                 ... NOT available
Auxiliary Correlation fitting basis         ... NOT available
Auxiliary 'external' fitting basis          ... NOT available
Integral threshold                          ...     2.500000e-11
Primitive cut-off                           ...     2.500000e-12
Primitive pair pre-selection threshold      ...     2.500000e-12

Calculating pre-screening integrals         ... done (  0.0 sec) Dimension = 324
Organizing shell pair data                  ... done (  0.2 sec)
Shell pair information
Total number of shell pairs                 ...     52650
Shell pairs after pre-screening             ...     26700
Total number of primitive shell pairs       ...    138492
Primitive shell pairs kept                  ...     50111
          la=0 lb=0:  12442 shell pairs
          la=1 lb=0:   9170 shell pairs
          la=1 lb=1:   1592 shell pairs
          la=2 lb=0:   2471 shell pairs
          la=2 lb=1:    888 shell pairs
          la=2 lb=2:    137 shell pairs

Calculating one electron integrals          ... done (  0.0 sec)
Calculating RI/J V-Matrix + Cholesky decomp.... done (  0.2 sec)
Calculating Nuclear repulsion               ... done (  0.0 sec) ENN=   1438.090867443210 Eh

SHARK setup successfully completed in   1.0 seconds

Maximum memory used throughout the entire GTOINT-calculation: 37.1 MB


           ************************************************************
           *        Program running with 16 parallel MPI-processes    *
           *              working on a common directory               *
           ************************************************************
-------------------------------------------------------------------------------
                                 ORCA SCF
-------------------------------------------------------------------------------

------------
SCF SETTINGS
------------
Hamiltonian:
 Density Functional     Method          .... DFT(GTOs)
 Exchange Functional    Exchange        .... B88
   X-Alpha parameter    XAlpha          ....  0.666667
   Becke's b parameter  XBeta           ....  0.004200
 Correlation Functional Correlation     .... LYP
 LDA part of GGA corr.  LDAOpt          .... VWN-5
 Gradients option       PostSCFGGA      .... off
 Hybrid DFT is turned on
   Fraction HF Exchange ScalHFX         ....  0.200000
   Scaling of DF-GGA-X  ScalDFX         ....  0.720000
   Scaling of DF-GGA-C  ScalDFC         ....  0.810000
   Scaling of DF-LDA-C  ScalLDAC        ....  1.000000
   Perturbative correction              ....  0.000000
   Density functional embedding theory  .... OFF
   NL short-range parameter             ....  4.800000
 RI-approximation to the Coulomb term is turned on
   Number of AuxJ basis functions       .... 1326
   RIJ-COSX (HFX calculated with COS-X)).... on


General Settings:
 Integral files         IntName         .... opt_EPRII
 Hartree-Fock type      HFTyp           .... UHF
 Total Charge           Charge          ....    0
 Multiplicity           Mult            ....    2
 Number of Electrons    NEL             ....  153
 Basis Dimension        Dim             ....  546
 Nuclear Repulsion      ENuc            ....   1438.0908674432 Eh

Convergence Acceleration:
 DIIS                   CNVDIIS         .... on
   Start iteration      DIISMaxIt       ....    12
   Startup error        DIISStart       ....  0.200000
   # of expansion vecs  DIISMaxEq       ....     5
   Bias factor          DIISBfac        ....   1.050
   Max. coefficient     DIISMaxC        ....  10.000
 Trust-Rad. Augm. Hess. CNVTRAH         .... auto
   Auto Start mean grad. ratio tolernc. ....  1.125000
   Auto Start start iteration           ....    20
   Auto Start num. interpolation iter.  ....    10
   Max. Number of Micro iterations      ....    16
   Max. Number of Macro iterations      .... Maxiter - #DIIS iter
   Number of Davidson start vectors     ....     2
   Converg. threshold I  (grad. norm)   ....   1.000e-05
   Converg. threshold II (energy diff.) ....   1.000e-08
   Grad. Scal. Fac. for Micro threshold ....   0.100
   Minimum threshold for Micro iter.    ....   0.010
   NR start threshold (gradient norm)   ....   0.001
   Initial trust radius                 ....   0.400
   Minimum AH scaling param. (alpha)    ....   1.000
   Maximum AH scaling param. (alpha)    .... 1000.000
   Orbital update algorithm             .... Taylor
   White noise on init. David. guess    .... on
   Maximum white noise                  ....   0.010
   Quad. conv. algorithm                .... NR
 SOSCF                  CNVSOSCF        .... off
 Level Shifting         CNVShift        .... on
   Level shift para.    LevelShift      ....    0.2500
   Turn off err/grad.   ShiftErr        ....    0.0010
 Zerner damping         CNVZerner       .... off
 Static damping         CNVDamp         .... on
   Fraction old density DampFac         ....    0.7000
   Max. Damping (<1)    DampMax         ....    0.9800
   Min. Damping (>=0)   DampMin         ....    0.0000
   Turn off err/grad.   DampErr         ....    0.1000
 Fernandez-Rico         CNVRico         .... off

SCF Procedure:
 Maximum # iterations   MaxIter         ....   125
 SCF integral mode      SCFMode         .... Direct
   Integral package                     .... SHARK and LIBINT hybrid scheme
 Reset frequency        DirectResetFreq ....    20
 Integral Threshold     Thresh          ....  2.500e-11 Eh
 Primitive CutOff       TCut            ....  2.500e-12 Eh

Convergence Tolerance:
 Convergence Check Mode ConvCheckMode   .... Total+1el-Energy
 Convergence forced     ConvForced      .... 0
 Energy Change          TolE            ....  1.000e-08 Eh
 1-El. energy change                    ....  1.000e-05 Eh
 DIIS Error             TolErr          ....  5.000e-07


Diagonalization of the overlap matrix:
Smallest eigenvalue                        ... 1.352e-04
Time for diagonalization                   ...    0.108 sec
Threshold for overlap eigenvalues          ... 1.000e-08
Number of eigenvalues below threshold      ... 0
Time for construction of square roots      ...    0.051 sec
Total time needed                          ...    0.161 sec

Time for model grid setup =    0.275 sec

------------------------------
INITIAL GUESS: MODEL POTENTIAL
------------------------------
Loading Hartree-Fock densities                     ... done
Calculating cut-offs                               ... done
Initializing the effective Hamiltonian             ... done
Setting up the integral package (SHARK)            ... done
Starting the Coulomb interaction                   ... done (   0.3 sec)
Reading the grid                                   ... done
Mapping shells                                     ... done
Starting the XC term evaluation                    ... done (   0.1 sec)
  promolecular density results
     # of electrons  =    152.992177500
     EX              =   -115.840314152
     EC              =     -4.989820730
     EX+EC           =   -120.830134882
Transforming the Hamiltonian                       ... done (   0.0 sec)
Diagonalizing the Hamiltonian                      ... done (   0.0 sec)
Back transforming the eigenvectors                 ... done (   0.0 sec)
Now organizing SCF variables                       ... done
                      ------------------
                      INITIAL GUESS DONE (   1.1 sec)
                      ------------------
-------------------
DFT GRID GENERATION
-------------------

General Integration Accuracy     IntAcc      ... 4.388
Radial Grid Type                 RadialGrid  ... OptM3 with GC (2021)
Angular Grid (max. ang.)         AngularGrid ... 4 (Lebedev-302)
Angular grid pruning method      GridPruning ... 4 (adaptive)
Weight generation scheme         WeightScheme... Becke
Basis function cutoff            BFCut       ... 1.0000e-11
Integration weight cutoff        WCut        ... 1.0000e-14
Angular grids for H and He will be reduced by one unit
Partially contracted basis set               ... off
Rotationally invariant grid construction     ... off

Total number of grid points                  ...   211627
Total number of batches                      ...     3329
Average number of points per batch           ...       63
Average number of grid points per atom       ...     4409
Time for grid setup =    1.148 sec

--------------------
COSX GRID GENERATION
--------------------

GRIDX 1
-------
General Integration Accuracy     IntAcc      ... 3.816
Radial Grid Type                 RadialGrid  ... OptM3 with GC (2021)
Angular Grid (max. ang.)         AngularGrid ... 1 (Lebedev-50)
Angular grid pruning method      GridPruning ... 4 (adaptive)
Weight generation scheme         WeightScheme... Becke
Basis function cutoff            BFCut       ... 1.0000e-11
Integration weight cutoff        WCut        ... 1.0000e-14
Angular grids for H and He will be reduced by one unit
Partially contracted basis set               ... on
Rotationally invariant grid construction     ... off

Total number of grid points                  ...    27004
Total number of batches                      ...      449
Average number of points per batch           ...       60
Average number of grid points per atom       ...      563
UseSFitting                                  ... on

GRIDX 2
-------
General Integration Accuracy     IntAcc      ... 4.020
Radial Grid Type                 RadialGrid  ... OptM3 with GC (2021)
Angular Grid (max. ang.)         AngularGrid ... 2 (Lebedev-110)
Angular grid pruning method      GridPruning ... 4 (adaptive)
Weight generation scheme         WeightScheme... Becke
Basis function cutoff            BFCut       ... 1.0000e-11
Integration weight cutoff        WCut        ... 1.0000e-14
Angular grids for H and He will be reduced by one unit
Partially contracted basis set               ... on
Rotationally invariant grid construction     ... off

Total number of grid points                  ...    56988
Total number of batches                      ...      916
Average number of points per batch           ...       62
Average number of grid points per atom       ...     1187
UseSFitting                                  ... on

GRIDX 3
-------
General Integration Accuracy     IntAcc      ... 4.338
Radial Grid Type                 RadialGrid  ... OptM3 with GC (2021)
Angular Grid (max. ang.)         AngularGrid ... 3 (Lebedev-194)
Angular grid pruning method      GridPruning ... 4 (adaptive)
Weight generation scheme         WeightScheme... Becke
Basis function cutoff            BFCut       ... 1.0000e-11
Integration weight cutoff        WCut        ... 1.0000e-14
Angular grids for H and He will be reduced by one unit
Partially contracted basis set               ... on
Rotationally invariant grid construction     ... off

Total number of grid points                  ...   124376
Total number of batches                      ...     1970
Average number of points per batch           ...       63
Average number of grid points per atom       ...     2591
UseSFitting                                  ... on

Time for X-Grid setup             =    2.245 sec

--------------
SCF ITERATIONS
--------------
ITER       Energy         Delta-E        Max-DP      RMS-DP      [F,P]     Damp
               ***  Starting incremental Fock matrix formation  ***
  0   -815.3501220341   0.000000000000 0.05576504  0.00083408  0.0796365 0.7000
  1   -815.5869833183  -0.236861284139 0.04056742  0.00063196  0.0426428 0.7000
                               ***Turning on DIIS***
  2   -815.6925386054  -0.105555287155 0.12428267  0.00136617  0.0165500 0.0000
  3   -815.8379617090  -0.145423103608 0.02717371  0.00035367  0.0233926 0.0000
  4   -815.8795145808  -0.041552871800 0.02900615  0.00020043  0.0049052 0.0000
  5   -815.8812777957  -0.001763214887 0.01764869  0.00010522  0.0013725 0.0000
  6   -815.8814297697  -0.000151973957 0.01060988  0.00006500  0.0006477 0.0000
               *** Restarting incremental Fock matrix formation ***
                                   *** Resetting DIIS ***
  7   -815.8816961516  -0.000266381956 0.00312112  0.00002078  0.0010624 0.0000
  8   -815.8816925094   0.000003642221 0.00067465  0.00000559  0.0012844 0.0000
  9   -815.8817061391  -0.000013629675 0.00051663  0.00000376  0.0004443 0.0000
 10   -815.8817080719  -0.000001932783 0.00009388  0.00000090  0.0000610 0.0000
 11   -815.8817081243  -0.000000052443 0.00003463  0.00000044  0.0000277 0.0000
 12   -815.8817081437  -0.000000019360 0.00005157  0.00000035  0.0000072 0.0000
 13   -815.8817081448  -0.000000001136 0.00002818  0.00000016  0.0000041 0.0000
 14   -815.8817081400   0.000000004803 0.00003101  0.00000021  0.0000021 0.0000
 15   -815.8817081363   0.000000003687 0.00001632  0.00000011  0.0000026 0.0000
 16   -815.8817081361   0.000000000163 0.00001310  0.00000006  0.0000019 0.0000
                            ***DIIS convergence achieved***

               *****************************************************
               *                     SUCCESS                       *
               *           SCF CONVERGED AFTER  17 CYCLES          *
               *****************************************************

Old exchange energy                            =    -23.642832279 Eh
New exchange energy                            =    -23.642802236 Eh
Exchange energy change after final integration =      0.000030043 Eh
Total energy after final integration           =   -815.881678083 Eh
Final COS-X integration done in                =     8.712 sec

----------------
TOTAL SCF ENERGY
----------------

Total Energy       :         -815.88167808 Eh          -22201.26915 eV

Components:
Nuclear Repulsion  :         1438.09086744 Eh           39132.44196 eV
Electronic Energy  :        -2253.97254553 Eh          -61333.71111 eV
One Electron Energy:        -3954.86508370 Eh         -107617.35009 eV
Two Electron Energy:         1700.89253817 Eh           46283.63898 eV
Max COSX asymmetry :            0.00000315 Eh               0.00009 eV

Virial components:
Potential Energy   :        -1625.24144054 Eh          -44225.06796 eV
Kinetic Energy     :          809.35976246 Eh           22023.79880 eV
Virial Ratio       :            2.00805812


DFT components:
N(Alpha)           :       77.000101310841 electrons
N(Beta)            :       76.000079195124 electrons
N(Total)           :      153.000180505965 electrons
E(X)               :      -93.744203578825 Eh       
E(C)               :       -5.899477625614 Eh       
E(XC)              :      -99.643681204439 Eh       
DFET-embed. en.    :        0.000000000000 Eh       

---------------
SCF CONVERGENCE
---------------

  Last Energy change         ...    1.0493e-08  Tolerance :   1.0000e-08
  Last MAX-Density change    ...    0.0000e+00  Tolerance :   1.0000e-07
  Last RMS-Density change    ...    0.0000e+00  Tolerance :   5.0000e-09
  Last DIIS Error            ...    4.0255e-07  Tolerance :   5.0000e-07

             **** THE GBW FILE WAS UPDATED (opt_EPRII.gbw) ****
             **** DENSITY opt_EPRII.scfp WAS UPDATED ****
             **** ENERGY FILE WAS UPDATED (opt_EPRII.en.tmp) ****
----------------------
UHF SPIN CONTAMINATION
----------------------

Warning: in a DFT calculation there is little theoretical justification to 
         calculate <S**2> as in Hartree-Fock theory. We will do it anyways
         but you should keep in mind that the values have only limited relevance

Expectation value of <S**2>     :     0.754016
Ideal value S*(S+1) for S=0.5   :     0.750000
Deviation                       :     0.004016

             **** THE GBW FILE WAS UPDATED (opt_EPRII.gbw) ****
             **** DENSITY opt_EPRII.scfp WAS UPDATED ****
----------------
ORBITAL ENERGIES
----------------
                 SPIN UP ORBITALS
  NO   OCC          E(Eh)            E(eV) 
   0   1.0000     -10.222996      -278.1819 
   1   1.0000     -10.222978      -278.1814 
   2   1.0000     -10.211274      -277.8629 
   3   1.0000     -10.211181      -277.8604 
   4   1.0000     -10.206063      -277.7211 
   5   1.0000     -10.205855      -277.7154 
   6   1.0000     -10.199546      -277.5438 
   7   1.0000     -10.199499      -277.5425 
   8   1.0000     -10.197839      -277.4973 
   9   1.0000     -10.197661      -277.4925 
  10   1.0000     -10.188483      -277.2427 
  11   1.0000     -10.188001      -277.2296 
  12   1.0000     -10.185997      -277.1751 
  13   1.0000     -10.185156      -277.1522 
  14   1.0000     -10.183743      -277.1137 
  15   1.0000     -10.182608      -277.0829 
  16   1.0000     -10.182329      -277.0753 
  17   1.0000     -10.182245      -277.0730 
  18   1.0000     -10.180043      -277.0131 
  19   1.0000     -10.173060      -276.8230 
  20   1.0000     -10.171512      -276.7809 
  21   1.0000      -0.874593       -23.7989 
  22   1.0000      -0.818349       -22.2684 
  23   1.0000      -0.804100       -21.8807 
  24   1.0000      -0.794666       -21.6240 
  25   1.0000      -0.783614       -21.3232 
  26   1.0000      -0.761665       -20.7260 
  27   1.0000      -0.753642       -20.5076 
  28   1.0000      -0.731275       -19.8990 
  29   1.0000      -0.721879       -19.6433 
  30   1.0000      -0.705523       -19.1983 
  31   1.0000      -0.673634       -18.3305 
  32   1.0000      -0.642920       -17.4947 
  33   1.0000      -0.637503       -17.3473 
  34   1.0000      -0.610990       -16.6259 
  35   1.0000      -0.589525       -16.0418 
  36   1.0000      -0.578196       -15.7335 
  37   1.0000      -0.564179       -15.3521 
  38   1.0000      -0.561888       -15.2898 
  39   1.0000      -0.543409       -14.7869 
  40   1.0000      -0.526232       -14.3195 
  41   1.0000      -0.499559       -13.5937 
  42   1.0000      -0.485294       -13.2055 
  43   1.0000      -0.475901       -12.9499 
  44   1.0000      -0.471048       -12.8179 
  45   1.0000      -0.469749       -12.7825 
  46   1.0000      -0.454651       -12.3717 
  47   1.0000      -0.432560       -11.7705 
  48   1.0000      -0.428722       -11.6661 
  49   1.0000      -0.427497       -11.6328 
  50   1.0000      -0.421016       -11.4564 
  51   1.0000      -0.415718       -11.3123 
  52   1.0000      -0.408813       -11.1244 
  53   1.0000      -0.406600       -11.0641 
  54   1.0000      -0.388070       -10.5599 
  55   1.0000      -0.383833       -10.4446 
  56   1.0000      -0.382180       -10.3996 
  57   1.0000      -0.370133       -10.0718 
  58   1.0000      -0.363467        -9.8904 
  59   1.0000      -0.356731        -9.7071 
  60   1.0000      -0.356251        -9.6941 
  61   1.0000      -0.349895        -9.5211 
  62   1.0000      -0.336147        -9.1470 
  63   1.0000      -0.335362        -9.1257 
  64   1.0000      -0.329309        -8.9609 
  65   1.0000      -0.328015        -8.9257 
  66   1.0000      -0.326323        -8.8797 
  67   1.0000      -0.323820        -8.8116 
  68   1.0000      -0.321808        -8.7568 
  69   1.0000      -0.319883        -8.7045 
  70   1.0000      -0.313693        -8.5360 
  71   1.0000      -0.280857        -7.6425 
  72   1.0000      -0.277920        -7.5626 
  73   1.0000      -0.276705        -7.5295 
  74   1.0000      -0.246641        -6.7115 
  75   1.0000      -0.220680        -6.0050 
  76   1.0000      -0.180501        -4.9117 
  77   0.0000      -0.053344        -1.4516 
  78   0.0000      -0.005280        -0.1437 
  79   0.0000       0.019116         0.5202 
  80   0.0000       0.021983         0.5982 
  81   0.0000       0.024916         0.6780 
  82   0.0000       0.028118         0.7651 
  83   0.0000       0.032641         0.8882 
  84   0.0000       0.037254         1.0137 
  85   0.0000       0.038292         1.0420 
  86   0.0000       0.042414         1.1542 
  87   0.0000       0.043596         1.1863 
  88   0.0000       0.044869         1.2210 
  89   0.0000       0.045642         1.2420 
  90   0.0000       0.053904         1.4668 
  91   0.0000       0.058349         1.5878 
  92   0.0000       0.073290         1.9943 
  93   0.0000       0.080492         2.1903 
  94   0.0000       0.090512         2.4630 
  95   0.0000       0.095888         2.6092 
  96   0.0000       0.105575         2.8728 
  97   0.0000       0.108057         2.9404 
  98   0.0000       0.113750         3.0953 
  99   0.0000       0.126268         3.4359 
 100   0.0000       0.146262         3.9800 
 101   0.0000       0.150722         4.1014 
 102   0.0000       0.154977         4.2171 
 103   0.0000       0.155955         4.2437 
 104   0.0000       0.159319         4.3353 
 105   0.0000       0.165421         4.5013 
 106   0.0000       0.175384         4.7724 
 107   0.0000       0.178715         4.8631 
 108   0.0000       0.184056         5.0084 
 109   0.0000       0.189767         5.1638 
 110   0.0000       0.190155         5.1744 
 111   0.0000       0.193175         5.2566 
 112   0.0000       0.196778         5.3546 
 113   0.0000       0.199133         5.4187 
 114   0.0000       0.199490         5.4284 
 115   0.0000       0.203855         5.5472 
 116   0.0000       0.212347         5.7782 
 117   0.0000       0.215437         5.8623 
 118   0.0000       0.215525         5.8647 
 119   0.0000       0.216870         5.9013 
 120   0.0000       0.220790         6.0080 
 121   0.0000       0.228608         6.2207 
 122   0.0000       0.229520         6.2456 
 123   0.0000       0.237213         6.4549 
 124   0.0000       0.241871         6.5817 
 125   0.0000       0.246042         6.6952 
 126   0.0000       0.249952         6.8015 
 127   0.0000       0.253284         6.8922 
 128   0.0000       0.257728         7.0131 
 129   0.0000       0.258651         7.0382 
 130   0.0000       0.264106         7.1867 
 131   0.0000       0.272536         7.4161 
 132   0.0000       0.278124         7.5681 
 133   0.0000       0.278695         7.5837 
 134   0.0000       0.280091         7.6217 
 135   0.0000       0.284380         7.7384 
 136   0.0000       0.291197         7.9239 
 137   0.0000       0.293008         7.9732 
 138   0.0000       0.294918         8.0251 
 139   0.0000       0.298501         8.1226 
 140   0.0000       0.301432         8.2024 
 141   0.0000       0.303760         8.2657 
 142   0.0000       0.311355         8.4724 
 143   0.0000       0.312977         8.5165 
 144   0.0000       0.315924         8.5967 
 145   0.0000       0.317549         8.6409 
 146   0.0000       0.319485         8.6936 
 147   0.0000       0.322942         8.7877 
 148   0.0000       0.327958         8.9242 
 149   0.0000       0.328754         8.9459 
 150   0.0000       0.336337         9.1522 
 151   0.0000       0.339060         9.2263 
 152   0.0000       0.345463         9.4005 
 153   0.0000       0.348843         9.4925 
 154   0.0000       0.349951         9.5226 
 155   0.0000       0.351451         9.5635 
 156   0.0000       0.364345         9.9143 
 157   0.0000       0.368616        10.0306 
 158   0.0000       0.371632        10.1126 
 159   0.0000       0.372427        10.1343 
 160   0.0000       0.375754        10.2248 
 161   0.0000       0.382132        10.3983 
 162   0.0000       0.390684        10.6310 
 163   0.0000       0.396507        10.7895 
 164   0.0000       0.400204        10.8901 
 165   0.0000       0.405783        11.0419 
 166   0.0000       0.408899        11.1267 
 167   0.0000       0.414038        11.2665 
 168   0.0000       0.418397        11.3852 
 169   0.0000       0.420023        11.4294 
 170   0.0000       0.426355        11.6017 
 171   0.0000       0.430017        11.7013 
 172   0.0000       0.442511        12.0413 
 173   0.0000       0.444292        12.0898 
 174   0.0000       0.447122        12.1668 
 175   0.0000       0.458411        12.4740 
 176   0.0000       0.458570        12.4783 
 177   0.0000       0.460228        12.5234 
 178   0.0000       0.466286        12.6883 
 179   0.0000       0.468808        12.7569 
 180   0.0000       0.476481        12.9657 
 181   0.0000       0.480874        13.0853 
 182   0.0000       0.501004        13.6330 
 183   0.0000       0.503061        13.6890 
 184   0.0000       0.508459        13.8359 
 185   0.0000       0.513845        13.9824 
 186   0.0000       0.517529        14.0827 
 187   0.0000       0.533636        14.5210 
 188   0.0000       0.537530        14.6269 
 189   0.0000       0.540285        14.7019 
 190   0.0000       0.544391        14.8136 
 191   0.0000       0.547771        14.9056 
 192   0.0000       0.556202        15.1350 
 193   0.0000       0.564053        15.3487 
 194   0.0000       0.572359        15.5747 
 195   0.0000       0.578480        15.7412 
 196   0.0000       0.584168        15.8960 
 197   0.0000       0.587112        15.9761 
 198   0.0000       0.589624        16.0445 
 199   0.0000       0.599544        16.3144 
 200   0.0000       0.606853        16.5133 
 201   0.0000       0.613960        16.7067 
 202   0.0000       0.628046        17.0900 
 203   0.0000       0.637896        17.3580 
 204   0.0000       0.655570        17.8390 
 205   0.0000       0.663495        18.0546 
 206   0.0000       0.676491        18.4083 
 207   0.0000       0.686512        18.6809 
 208   0.0000       0.714176        19.4337 
 209   0.0000       0.734164        19.9776 
 210   0.0000       0.764147        20.7935 
 211   0.0000       0.772156        21.0114 
 212   0.0000       0.778753        21.1909 
 213   0.0000       0.794819        21.6281 
 214   0.0000       0.795851        21.6562 
 215   0.0000       0.820199        22.3187 
 216   0.0000       0.829285        22.5660 
 217   0.0000       0.836301        22.7569 
 218   0.0000       0.838776        22.8243 
 219   0.0000       0.847419        23.0594 
 220   0.0000       0.848504        23.0890 
 221   0.0000       0.852653        23.2019 
 222   0.0000       0.858949        23.3732 
 223   0.0000       0.863323        23.4922 
 224   0.0000       0.871088        23.7035 
 225   0.0000       0.876911        23.8620 
 226   0.0000       0.882469        24.0132 
 227   0.0000       0.884580        24.0707 
 228   0.0000       0.895047        24.3555 
 229   0.0000       0.900655        24.5081 
 230   0.0000       0.908279        24.7155 
 231   0.0000       0.914492        24.8846 
 232   0.0000       0.917977        24.9794 
 233   0.0000       0.920084        25.0368 
 234   0.0000       0.922902        25.1135 
 235   0.0000       0.924517        25.1574 
 236   0.0000       0.935809        25.4647 
 237   0.0000       0.944423        25.6991 
 238   0.0000       0.945730        25.7346 
 239   0.0000       0.956151        26.0182 
 240   0.0000       0.957891        26.0655 
 241   0.0000       0.966556        26.3013 
 242   0.0000       0.973489        26.4900 
 243   0.0000       0.982469        26.7343 
 244   0.0000       0.987295        26.8657 
 245   0.0000       0.990343        26.9486 
 246   0.0000       0.990901        26.9638 
 247   0.0000       0.995671        27.0936 
 248   0.0000       1.006812        27.3967 
 249   0.0000       1.008698        27.4481 
 250   0.0000       1.014560        27.6076 
 251   0.0000       1.030090        28.0302 
 252   0.0000       1.032259        28.0892 
 253   0.0000       1.034380        28.1469 
 254   0.0000       1.036592        28.2071 
 255   0.0000       1.039710        28.2920 
 256   0.0000       1.049816        28.5669 
 257   0.0000       1.054684        28.6994 
 258   0.0000       1.059280        28.8245 
 259   0.0000       1.082415        29.4540 
 260   0.0000       1.085870        29.5480 
 261   0.0000       1.092884        29.7389 
 262   0.0000       1.105943        30.0942 
 263   0.0000       1.106571        30.1113 
 264   0.0000       1.115160        30.3450 
 265   0.0000       1.118589        30.4383 
 266   0.0000       1.131577        30.7918 
 267   0.0000       1.141279        31.0558 
 268   0.0000       1.142800        31.0972 
 269   0.0000       1.152212        31.3533 
 270   0.0000       1.153096        31.3773 
 271   0.0000       1.169051        31.8115 
 272   0.0000       1.176670        32.0188 
 273   0.0000       1.186175        32.2775 
 274   0.0000       1.190784        32.4029 
 275   0.0000       1.196463        32.5574 
 276   0.0000       1.200977        32.6803 
 277   0.0000       1.203513        32.7492 
 278   0.0000       1.217684        33.1349 
 279   0.0000       1.225498        33.3475 
 280   0.0000       1.232538        33.5391 
 281   0.0000       1.234321        33.5876 
 282   0.0000       1.239092        33.7174 
 283   0.0000       1.245227        33.8843 
 284   0.0000       1.253922        34.1209 
 285   0.0000       1.255887        34.1744 
 286   0.0000       1.260861        34.3098 
 287   0.0000       1.282479        34.8980 
 288   0.0000       1.293909        35.2090 
 289   0.0000       1.294905        35.2362 
 290   0.0000       1.305161        35.5152 
 291   0.0000       1.305958        35.5369 
 292   0.0000       1.314651        35.7735 
 293   0.0000       1.335200        36.3326 
 294   0.0000       1.343358        36.5546 
 295   0.0000       1.353362        36.8268 
 296   0.0000       1.368586        37.2411 
 297   0.0000       1.370247        37.2863 
 298   0.0000       1.380682        37.5703 
 299   0.0000       1.387697        37.7612 
 300   0.0000       1.396294        37.9951 
 301   0.0000       1.401274        38.1306 
 302   0.0000       1.408466        38.3263 
 303   0.0000       1.414717        38.4964 
 304   0.0000       1.427765        38.8514 
 305   0.0000       1.431226        38.9456 
 306   0.0000       1.438610        39.1466 
 307   0.0000       1.442878        39.2627 
 308   0.0000       1.449743        39.4495 
 309   0.0000       1.456362        39.6296 
 310   0.0000       1.462603        39.7995 
 311   0.0000       1.487506        40.4771 
 312   0.0000       1.498007        40.7628 
 313   0.0000       1.500557        40.8322 
 314   0.0000       1.517466        41.2924 
 315   0.0000       1.518934        41.3323 
 316   0.0000       1.523257        41.4499 
 317   0.0000       1.525227        41.5035 
 318   0.0000       1.533348        41.7245 
 319   0.0000       1.540087        41.9079 
 320   0.0000       1.545782        42.0629 
 321   0.0000       1.558374        42.4055 
 322   0.0000       1.560015        42.4502 
 323   0.0000       1.560780        42.4710 
 324   0.0000       1.579650        42.9845 
 325   0.0000       1.588277        43.2192 
 326   0.0000       1.592946        43.3463 
 327   0.0000       1.599045        43.5122 
 328   0.0000       1.601026        43.5661 
 329   0.0000       1.606033        43.7024 
 330   0.0000       1.609938        43.8086 
 331   0.0000       1.613369        43.9020 
 332   0.0000       1.614784        43.9405 
 333   0.0000       1.626751        44.2661 
 334   0.0000       1.629647        44.3449 
 335   0.0000       1.645639        44.7801 
 336   0.0000       1.651361        44.9358 
 337   0.0000       1.653608        44.9970 
 338   0.0000       1.672322        45.5062 
 339   0.0000       1.679785        45.7093 
 340   0.0000       1.683713        45.8162 
 341   0.0000       1.687882        45.9296 
 342   0.0000       1.690525        46.0015 
 343   0.0000       1.694775        46.1172 
 344   0.0000       1.705141        46.3992 
 345   0.0000       1.710483        46.5446 
[...]

SPIN
  0 C s       :    -0.000002  s :    -0.000002
      pz      :    -0.000057  p :    -0.000066
      px      :    -0.000001
      py      :    -0.000008
      dz2     :     0.000000  d :     0.000002
      dxz     :     0.000001
      dyz     :     0.000000
      dx2y2   :     0.000000
      dxy     :     0.000000
  1 C s       :     0.000002  s :     0.000002
      pz      :     0.000024  p :     0.000033
      px      :     0.000002
      py      :     0.000007
      dz2     :    -0.000000  d :    -0.000012
      dxz     :    -0.000011
      dyz     :     0.000000
      dx2y2   :    -0.000000
      dxy     :    -0.000001
  2 C s       :    -0.000004  s :    -0.000004
      pz      :    -0.000025  p :    -0.000032
      px      :    -0.000004
      py      :    -0.000004
      dz2     :     0.000000  d :     0.000023
      dxz     :     0.000020
      dyz     :     0.000000
      dx2y2   :     0.000001
      dxy     :     0.000001
  3 C s       :    -0.000005  s :    -0.000005
      pz      :    -0.000108  p :    -0.000119
      px      :    -0.000004
      py      :    -0.000006
      dz2     :     0.000001  d :     0.000026
      dxz     :     0.000003
      dyz     :     0.000019
      dx2y2   :     0.000001
      dxy     :     0.000002
  4 C s       :     0.000009  s :     0.000009
      pz      :     0.000218  p :     0.000231
      px      :     0.000006
      py      :     0.000007
      dz2     :    -0.000001  d :    -0.000010
      dxz     :    -0.000005
      dyz     :    -0.000003
      dx2y2   :    -0.000000
      dxy     :    -0.000001
  5 C s       :    -0.000004  s :    -0.000004
      pz      :    -0.000116  p :    -0.000125
      px      :    -0.000007
      py      :    -0.000002
      dz2     :     0.000001  d :     0.000026
      dxz     :     0.000016
      dyz     :     0.000007
      dx2y2   :     0.000001
      dxy     :     0.000001
  6 C s       :     0.000015  s :     0.000015
      pz      :     0.000233  p :     0.000266
      px      :     0.000009
      py      :     0.000024
      dz2     :    -0.000001  d :    -0.000019
      dxz     :    -0.000003
      dyz     :    -0.000009
      dx2y2   :    -0.000004
      dxy     :    -0.000002
  7 C s       :    -0.000040  s :    -0.000040
      pz      :    -0.000146  p :    -0.000245
      px      :    -0.000031
      py      :    -0.000069
      dz2     :     0.000001  d :     0.000103
      dxz     :     0.000023
      dyz     :     0.000028
      dx2y2   :     0.000040
      dxy     :     0.000011
  8 C s       :     0.000039  s :     0.000039
      pz      :     0.000245  p :     0.000293
      px      :     0.000011
      py      :     0.000037
      dz2     :     0.000001  d :    -0.000020
      dxz     :    -0.000009
      dyz     :    -0.000003
      dx2y2   :     0.000001
      dxy     :    -0.000009
  9 H s       :     0.000004  s :     0.000004
      pz      :    -0.000004  p :    -0.000004
      px      :    -0.000000
      py      :    -0.000000
 10 H s       :    -0.000008  s :    -0.000008
      pz      :     0.000008  p :     0.000020
      px      :     0.000001
      py      :     0.000011
 11 C s       :    -0.000002  s :    -0.000002
      pz      :     0.000000  p :    -0.000007
      px      :    -0.000003
      py      :    -0.000004
      dz2     :     0.000000  d :     0.000010
      dxz     :     0.000006
      dyz     :     0.000004
      dx2y2   :     0.000000
      dxy     :     0.000000
 12 H s       :     0.000011  s :     0.000011
      pz      :    -0.000000  p :    -0.000000
      px      :    -0.000000
      py      :     0.000000
 13 H s       :     0.000011  s :     0.000011
      pz      :    -0.000000  p :    -0.000000
      px      :    -0.000000
      py      :     0.000000
 14 C s       :     0.000000  s :     0.000000
      pz      :    -0.000000  p :     0.000000
      px      :     0.000000
      py      :     0.000000
      dz2     :    -0.000000  d :     0.000000
      dxz     :     0.000000
      dyz     :    -0.000000
      dx2y2   :    -0.000000
      dxy     :     0.000000
 15 H s       :     0.000000  s :     0.000000
      pz      :    -0.000000  p :    -0.000000
      px      :    -0.000000
      py      :    -0.000000
 16 H s       :     0.000000  s :     0.000000
      pz      :     0.000000  p :     0.000000
      px      :     0.000000
      py      :     0.000000
 17 C s       :    -0.000000  s :    -0.000000
      pz      :     0.000000  p :     0.000000
      px      :     0.000000
      py      :    -0.000000
      dz2     :    -0.000000  d :    -0.000000
      dxz     :    -0.000000
      dyz     :     0.000000
      dx2y2   :    -0.000000
      dxy     :    -0.000000
 18 H s       :     0.000000  s :     0.000000
      pz      :     0.000000  p :     0.000000
      px      :     0.000000
      py      :     0.000000
 19 H s       :     0.000000  s :     0.000000
      pz      :     0.000000  p :     0.000000
      px      :    -0.000000
      py      :     0.000000
 20 C s       :    -0.000000  s :    -0.000000
      pz      :     0.000000  p :    -0.000000
      px      :    -0.000000
      py      :    -0.000000
      dz2     :     0.000000  d :     0.000000
      dxz     :     0.000000
      dyz     :     0.000000
      dx2y2   :     0.000000
      dxy     :     0.000000
 21 H s       :     0.000000  s :     0.000000
      pz      :    -0.000000  p :    -0.000000
      px      :    -0.000000
      py      :    -0.000000
 22 H s       :     0.000000  s :     0.000000
      pz      :    -0.000000  p :    -0.000000
      px      :    -0.000000
      py      :     0.000000
 23 C s       :    -0.000063  s :    -0.000063
      pz      :     0.000707  p :     0.000919
      px      :     0.000223
      py      :    -0.000011
      dz2     :    -0.000000  d :     0.000156
      dxz     :     0.000009
      dyz     :     0.000098
      dx2y2   :     0.000087
      dxy     :    -0.000038
 24 H s       :     0.000128  s :     0.000128
      pz      :    -0.000001  p :     0.000018
      px      :     0.000017
      py      :     0.000001
 25 H s       :     0.000209  s :     0.000209
      pz      :     0.000029  p :     0.000177
      px      :     0.000011
      py      :     0.000138
 26 C s       :     0.002805  s :     0.002805
      pz      :     0.001264  p :     0.006501
      px      :     0.001487
      py      :     0.003749
      dz2     :    -0.000024  d :    -0.000514
      dxz     :     0.000206
      dyz     :    -0.000160
      dx2y2   :    -0.000505
      dxy     :    -0.000031
 27 H s       :    -0.000260  s :    -0.000260
      pz      :     0.000029  p :     0.000271
      px      :     0.000021
      py      :     0.000221
 28 H s       :    -0.000505  s :    -0.000505
      pz      :     0.000104  p :     0.000475
      px      :     0.000413
      py      :    -0.000042
 29 C s       :    -0.003064  s :    -0.003064
      pz      :    -0.005565  p :    -0.023346
      px      :    -0.006513
      py      :    -0.011268
      dz2     :     0.000519  d :     0.034618
      dxz     :     0.013403
      dyz     :     0.013239
      dx2y2   :     0.003165
      dxy     :     0.004292
 30 H s       :     0.017534  s :     0.017534
      pz      :    -0.000155  p :    -0.000951
      px      :    -0.000506
      py      :    -0.000289
 31 H s       :     0.044336  s :     0.044336
      pz      :    -0.000485  p :    -0.000683
      px      :    -0.000358
      py      :     0.000160
 32 C s       :     0.030953  s :     0.030953
      pz      :     0.642042  p :     0.805324
      px      :     0.140174
      py      :     0.023108
      dz2     :    -0.001559  d :    -0.003238
      dxz     :     0.000297
      dyz     :    -0.000077
      dx2y2   :    -0.000505
      dxy     :    -0.001394
 33 H s       :    -0.018975  s :    -0.018975
      pz      :     0.020029  p :     0.027815
      px      :     0.007318
      py      :     0.000468
 34 C s       :    -0.002970  s :    -0.002970
      pz      :    -0.006270  p :    -0.023466
      px      :    -0.006333
      py      :    -0.010863
      dz2     :     0.001924  d :     0.034552
      dxz     :     0.010166
      dyz     :     0.014051
      dx2y2   :     0.001241
      dxy     :     0.007170
 35 H s       :     0.044624  s :     0.044624
      pz      :    -0.000458  p :    -0.000720
      px      :    -0.000364
      py      :     0.000102
 36 H s       :     0.017774  s :     0.017774
      pz      :    -0.000136  p :    -0.000956
      px      :    -0.000493
      py      :    -0.000328
 37 C s       :     0.002875  s :     0.002875
      pz      :     0.000681  p :     0.006464
      px      :     0.001564
      py      :     0.004219
      dz2     :    -0.000066  d :    -0.000486
      dxz     :     0.000123
      dyz     :    -0.000116
      dx2y2   :    -0.000511
      dxy     :     0.000084
 38 H s       :    -0.000261  s :    -0.000261
      pz      :     0.000039  p :     0.000261
      px      :     0.000022
      py      :     0.000200
 39 H s       :    -0.000473  s :    -0.000473
      pz      :     0.000097  p :     0.000486
      px      :     0.000429
      py      :    -0.000040
 40 C s       :    -0.000245  s :    -0.000245
      pz      :     0.000341  p :     0.000772
      px      :     0.000088
      py      :     0.000343
      dz2     :     0.000028  d :     0.000177
      dxz     :     0.000004
      dyz     :     0.000050
      dx2y2   :     0.000131
      dxy     :    -0.000035
 41 H s       :     0.000165  s :     0.000165
      pz      :    -0.000004  p :     0.000009
      px      :     0.000017
      py      :    -0.000004
 42 H s       :     0.000194  s :     0.000194
      pz      :     0.000043  p :     0.000146
      px      :     0.000012
      py      :     0.000091
 43 C s       :     0.000002  s :     0.000002
      pz      :     0.000075  p :     0.000089
      px      :     0.000002
      py      :     0.000012
      dz2     :    -0.000000  d :    -0.000003
      dxz     :    -0.000002
      dyz     :    -0.000000
      dx2y2   :    -0.000000
      dxy     :    -0.000001
 44 H s       :     0.000002  s :     0.000002
      pz      :    -0.000002  p :    -0.000002
      px      :    -0.000000
      py      :    -0.000000
 45 H s       :    -0.000003  s :    -0.000003
      pz      :     0.000002  p :     0.000003
      px      :     0.000001
      py      :     0.000000
 46 H s       :     0.000000  s :     0.000000
      pz      :    -0.000000  p :    -0.000000
      px      :     0.000000
      py      :    -0.000000
 47 H s       :    -0.000117  s :    -0.000117
      pz      :     0.000016  p :     0.000065
      px      :     0.000028
      py      :     0.000021


                      *****************************
                      * MAYER POPULATION ANALYSIS *
                      *****************************

  NA   - Mulliken gross atomic population
  ZA   - Total nuclear charge
  QA   - Mulliken gross atomic charge
  VA   - Mayer's total valence
  BVA  - Mayer's bonded valence
  FA   - Mayer's free valence

  ATOM       NA         ZA         QA         VA         BVA        FA
  0 C      6.5383     6.0000    -0.5383     3.8879     3.8879     0.0000
  1 C      6.0041     6.0000    -0.0041     3.8120     3.8120     0.0000
  2 C      6.0035     6.0000    -0.0035     3.8151     3.8151     0.0000
  3 C      5.6100     6.0000     0.3900     3.9371     3.9371     0.0000
  4 C      5.6741     6.0000     0.3259     3.8366     3.8366     0.0000
  5 C      6.4130     6.0000    -0.4130     4.2976     4.2976     0.0000
  6 C      5.6104     6.0000     0.3896     3.9444     3.9444     0.0000
  7 C      5.6714     6.0000     0.3286     3.8120     3.8120     0.0000
  8 C      6.4151     6.0000    -0.4151     4.3020     4.3020     0.0000
  9 H      0.8649     1.0000     0.1351     0.9658     0.9658     0.0000
 10 H      0.8645     1.0000     0.1355     0.9658     0.9658     0.0000
 11 C      6.3901     6.0000    -0.3901     4.0547     4.0547     0.0000
 12 H      0.8444     1.0000     0.1556     0.9621     0.9621     0.0000
 13 H      0.8445     1.0000     0.1555     0.9622     0.9622     0.0000
 14 C      6.2674     6.0000    -0.2674     4.0139     4.0139     0.0000
 15 H      0.8583     1.0000     0.1417     0.9662     0.9662     0.0000
 16 H      0.8584     1.0000     0.1416     0.9664     0.9664     0.0000
 17 C      6.2628     6.0000    -0.2628     3.8885     3.8885    -0.0000
 18 H      0.8551     1.0000     0.1449     0.9669     0.9669     0.0000
 19 H      0.8552     1.0000     0.1448     0.9670     0.9670     0.0000
 20 C      6.5102     6.0000    -0.5102     3.9006     3.9006    -0.0000
 21 H      0.8405     1.0000     0.1595     0.9653     0.9653     0.0000
 22 H      0.8404     1.0000     0.1596     0.9653     0.9653     0.0000
 23 C      6.3953     6.0000    -0.3953     4.0605     4.0605     0.0000
 24 H      0.8438     1.0000     0.1562     0.9624     0.9624     0.0000
 25 H      0.8450     1.0000     0.1550     0.9636     0.9636     0.0000
 26 C      6.2947     6.0000    -0.2947     4.0032     4.0030     0.0001
 27 H      0.8533     1.0000     0.1467     0.9671     0.9671     0.0000
 28 H      0.8421     1.0000     0.1579     0.9617     0.9617     0.0000
 29 C      6.2745     6.0000    -0.2745     3.9265     3.9242     0.0023
 30 H      0.8518     1.0000     0.1482     0.9683     0.9679     0.0004
 31 H      0.8525     1.0000     0.1475     0.9654     0.9624     0.0029
 32 C      6.1357     6.0000    -0.1357     3.8441     3.0513     0.7928
 33 H      0.8854     1.0000     0.1146     0.9811     0.9781     0.0030
 34 C      6.2832     6.0000    -0.2832     3.9509     3.9484     0.0025
 35 H      0.8520     1.0000     0.1480     0.9644     0.9614     0.0030
 36 H      0.8546     1.0000     0.1454     0.9689     0.9685     0.0004
 37 C      6.2768     6.0000    -0.2768     3.8997     3.8996     0.0001
 38 H      0.8523     1.0000     0.1477     0.9668     0.9668     0.0000
 39 H      0.8417     1.0000     0.1583     0.9622     0.9622     0.0000
 40 C      6.5098     6.0000    -0.5098     3.8935     3.8935     0.0000
 41 H      0.8399     1.0000     0.1601     0.9647     0.9647     0.0000
 42 H      0.8413     1.0000     0.1587     0.9655     0.9655     0.0000
 43 C      6.5374     6.0000    -0.5374     3.8884     3.8884     0.0000
 44 H      0.8160     1.0000     0.1840     0.9772     0.9772     0.0000
 45 H      0.8162     1.0000     0.1838     0.9772     0.9772     0.0000
 46 H      0.8555     1.0000     0.1445     0.9668     0.9668     0.0000
 47 H      0.8527     1.0000     0.1473     0.9665     0.9665     0.0000

  Mayer bond orders larger than 0.100000
B(  0-C ,  1-C ) :   2.7066 B(  0-C , 44-H ) :   0.9833 B(  1-C ,  3-C ) :   0.9093 
B(  2-C ,  6-C ) :   0.9140 B(  2-C , 43-C ) :   2.7042 B(  3-C ,  4-C ) :   1.3687 
B(  3-C ,  5-C ) :   0.1133 B(  3-C ,  8-C ) :   1.4165 B(  4-C ,  5-C ) :   1.4385 
B(  4-C , 11-C ) :   0.9439 B(  5-C ,  6-C ) :   1.4226 B(  5-C ,  9-H ) :   0.9703 
B(  6-C ,  7-C ) :   1.3580 B(  6-C ,  8-C ) :   0.1136 B(  7-C ,  8-C ) :   1.4407 
B(  7-C , 23-C ) :   0.9382 B(  8-C , 10-H ) :   0.9707 B( 11-C , 12-H ) :   0.9606 
B( 11-C , 13-H ) :   0.9607 B( 11-C , 14-C ) :   1.0198 B( 14-C , 15-H ) :   0.9615 
B( 14-C , 16-H ) :   0.9613 B( 14-C , 17-C ) :   0.9858 B( 17-C , 18-H ) :   0.9719 
B( 17-C , 19-H ) :   0.9717 B( 17-C , 20-C ) :   0.9543 B( 20-C , 21-H ) :   0.9729 
B( 20-C , 22-H ) :   0.9730 B( 20-C , 46-H ) :   0.9678 B( 23-C , 24-H ) :   0.9597 
B( 23-C , 25-H ) :   0.9621 B( 23-C , 26-C ) :   1.0146 B( 26-C , 27-H ) :   0.9646 
B( 26-C , 28-H ) :   0.9574 B( 26-C , 29-C ) :   0.9732 B( 29-C , 30-H ) :   0.9697 
B( 29-C , 31-H ) :   0.9578 B( 29-C , 32-C ) :   0.9729 B( 32-C , 33-H ) :   1.0069 
B( 32-C , 34-C ) :   0.9762 B( 34-C , 35-H ) :   0.9576 B( 34-C , 36-H ) :   0.9744 
B( 34-C , 37-C ) :   0.9816 B( 37-C , 38-H ) :   0.9768 B( 37-C , 39-H ) :   0.9723 
B( 37-C , 40-C ) :   0.9576 B( 40-C , 41-H ) :   0.9714 B( 40-C , 42-H ) :   0.9732 
B( 40-C , 47-H ) :   0.9688 B( 43-C , 45-H ) :   0.9833 

-------
TIMINGS
-------

Total SCF time: 0 days 0 hours 1 min 13 sec 

Total time                  ....      73.938 sec
Sum of individual times     ....      70.102 sec  ( 94.8%)

Fock matrix formation       ....      63.016 sec  ( 85.2%)
  Split-RI-J                ....       4.818 sec  (  7.6% of F)
  Chain of spheres X        ....      40.409 sec  ( 64.1% of F)
  XC integration            ....      13.357 sec  ( 21.2% of F)
    Basis function eval.    ....       1.013 sec  (  7.6% of XC)
    Density eval.           ....       1.568 sec  ( 11.7% of XC)
    XC-Functional eval.     ....       0.269 sec  (  2.0% of XC)
    XC-Potential eval.      ....       0.824 sec  (  6.2% of XC)
Diagonalization             ....       1.676 sec  (  2.3%)
Density matrix formation    ....       0.151 sec  (  0.2%)
Population analysis         ....       0.506 sec  (  0.7%)
Initial guess               ....       0.244 sec  (  0.3%)
Orbital Transformation      ....       0.000 sec  (  0.0%)
Orbital Orthonormalization  ....       0.191 sec  (  0.3%)
DIIS solution               ....       1.128 sec  (  1.5%)
Grid generation             ....       3.381 sec  (  4.6%)

Maximum memory used throughout the entire SCF-calculation: 123.6 MB

-------------------------   --------------------
FINAL SINGLE POINT ENERGY      -815.882899730449
-------------------------   --------------------

                                *** OPTIMIZATION RUN DONE ***

                            ***************************************
                            *     ORCA property calculations      *
                            ***************************************

                                    ---------------------
                                    Active property flags
                                    ---------------------
   (+) Dipole Moment


------------------------------------------------------------------------------
                       ORCA ELECTRIC PROPERTIES CALCULATION
------------------------------------------------------------------------------

Dipole Moment Calculation                       ... on
Quadrupole Moment Calculation                   ... off
Polarizability Calculation                      ... off
GBWName                                         ... opt_EPRII.gbw
Electron density                                ... opt_EPRII.scfp
The origin for moment calculation is the CENTER OF MASS  = ( 0.482248,  2.530765 -0.259810)

-------------
DIPOLE MOMENT
-------------
                                X             Y             Z
Electronic contribution:     -2.22278     -13.91392      -1.65123
Nuclear contribution   :      2.27586      13.93212       1.60986
                        -----------------------------------------
Total Dipole Moment    :      0.05308       0.01821      -0.04137
                        -----------------------------------------
Magnitude (a.u.)       :      0.06972
Magnitude (Debye)      :      0.17721



--------------------
Rotational spectrum 
--------------------
 
Rotational constants in cm-1:     0.020647     0.002915     0.002575 
Rotational constants in MHz :   618.979948    87.377282    77.189680 

 Dipole components along the rotational axes: 
x,y,z [a.u.] :     0.028537     0.047750    -0.042026 
x,y,z [Debye]:     0.072536     0.121371    -0.106822 

 

Timings for individual modules:

Sum of individual times         ...      660.146 sec (=  11.002 min)
GTO integral calculation        ...       18.131 sec (=   0.302 min)   2.7 %
SCF iterations                  ...      518.731 sec (=   8.646 min)  78.6 %
SCF Gradient evaluation         ...      121.338 sec (=   2.022 min)  18.4 %
Geometry relaxation             ...        1.946 sec (=   0.032 min)   0.3 %
                             ****ORCA TERMINATED NORMALLY****
TOTAL RUN TIME: 0 days 0 hours 11 minutes 19 seconds 38 msec
