
                                 *****************
                                 * O   R   C   A *
                                 *****************

                                            #,                                       
                                            ###                                      
                                            ####                                     
                                            #####                                    
                                            ######                                   
                                           ########,                                 
                                     ,,################,,,,,                         
                               ,,#################################,,                 
                          ,,##########################################,,             
                       ,#########################################, ''#####,          
                    ,#############################################,,   '####,        
                  ,##################################################,,,,####,       
                ,###########''''           ''''###############################       
              ,#####''   ,,,,##########,,,,          '''####'''          '####       
            ,##' ,,,,###########################,,,                        '##       
           ' ,,###''''                  '''############,,,                           
         ,,##''                                '''############,,,,        ,,,,,,###''
      ,#''                                            '''#######################'''  
     '                                                          ''''####''''         
             ,#######,   #######,   ,#######,      ##                                
            ,#'     '#,  ##    ##  ,#'     '#,    #''#        ######   ,####,        
            ##       ##  ##   ,#'  ##            #'  '#       #        #'  '#        
            ##       ##  #######   ##           ,######,      #####,   #    #        
            '#,     ,#'  ##    ##  '#,     ,#' ,#      #,         ##   #,  ,#        
             '#######'   ##     ##  '#######'  #'      '#     #####' # '####'        



                  #######################################################
                  #                        -***-                        #
                  #          Department of theory and spectroscopy      #
                  #    Directorship and core code : Frank Neese         #
                  #        Max Planck Institute fuer Kohlenforschung    #
                  #                Kaiser Wilhelm Platz 1               #
                  #                 D-45470 Muelheim/Ruhr               #
                  #                      Germany                        #
                  #                                                     #
                  #                  All rights reserved                #
                  #                        -***-                        #
                  #######################################################


                         Program Version 5.0.4 -  RELEASE  -


 With contributions from (in alphabetic order):
   Daniel Aravena         : Magnetic Suceptibility
   Michael Atanasov       : Ab Initio Ligand Field Theory (pilot matlab implementation)
   Alexander A. Auer      : GIAO ZORA, VPT2 properties, NMR spectrum
   Ute Becker             : Parallelization
   Giovanni Bistoni       : ED, misc. LED, open-shell LED, HFLD
   Martin Brehm           : Molecular dynamics
   Dmytro Bykov           : SCF Hessian
   Vijay G. Chilkuri      : MRCI spin determinant printing, contributions to CSF-ICE
   Dipayan Datta          : RHF DLPNO-CCSD density
   Achintya Kumar Dutta   : EOM-CC, STEOM-CC
   Dmitry Ganyushin       : Spin-Orbit,Spin-Spin,Magnetic field MRCI
   Miquel Garcia          : C-PCM and meta-GGA Hessian, CC/C-PCM, Gaussian charge scheme
   Yang Guo               : DLPNO-NEVPT2, F12-NEVPT2, CIM, IAO-localization
   Andreas Hansen         : Spin unrestricted coupled pair/coupled cluster methods
   Benjamin Helmich-Paris : MC-RPA, TRAH-SCF, COSX integrals
   Lee Huntington         : MR-EOM, pCC
   Robert Izsak           : Overlap fitted RIJCOSX, COSX-SCS-MP3, EOM
   Marcus Kettner         : VPT2
   Christian Kollmar      : KDIIS, OOCD, Brueckner-CCSD(T), CCSD density, CASPT2, CASPT2-K
   Simone Kossmann        : Meta GGA functionals, TD-DFT gradient, OOMP2, MP2 Hessian
   Martin Krupicka        : Initial AUTO-CI
   Lucas Lang             : DCDCAS
   Marvin Lechner         : AUTO-CI (C++ implementation), FIC-MRCC
   Dagmar Lenk            : GEPOL surface, SMD
   Dimitrios Liakos       : Extrapolation schemes; Compound Job, initial MDCI parallelization
   Dimitrios Manganas     : Further ROCIS development; embedding schemes
   Dimitrios Pantazis     : SARC Basis sets
   Anastasios Papadopoulos: AUTO-CI, single reference methods and gradients
   Taras Petrenko         : DFT Hessian,TD-DFT gradient, ASA, ECA, R-Raman, ABS, FL, XAS/XES, NRVS
   Peter Pinski           : DLPNO-MP2, DLPNO-MP2 Gradient
   Christoph Reimann      : Effective Core Potentials
   Marius Retegan         : Local ZFS, SOC
   Christoph Riplinger    : Optimizer, TS searches, QM/MM, DLPNO-CCSD(T), (RO)-DLPNO pert. Triples
   Tobias Risthaus        : Range-separated hybrids, TD-DFT gradient, RPA, STAB
   Michael Roemelt        : Original ROCIS implementation
   Masaaki Saitow         : Open-shell DLPNO-CCSD energy and density
   Barbara Sandhoefer     : DKH picture change effects
   Avijit Sen             : IP-ROCIS
   Kantharuban Sivalingam : CASSCF convergence, NEVPT2, FIC-MRCI
   Bernardo de Souza      : ESD, SOC TD-DFT
   Georgi Stoychev        : AutoAux, RI-MP2 NMR, DLPNO-MP2 response
   Willem Van den Heuvel  : Paramagnetic NMR
   Boris Wezisla          : Elementary symmetry handling
   Frank Wennmohs         : Technical directorship


 We gratefully acknowledge several colleagues who have allowed us to
 interface, adapt or use parts of their codes:
   Stefan Grimme, W. Hujo, H. Kruse, P. Pracht,  : VdW corrections, initial TS optimization,
                  C. Bannwarth, S. Ehlert          DFT functionals, gCP, sTDA/sTD-DF
   Ed Valeev, F. Pavosevic, A. Kumar             : LibInt (2-el integral package), F12 methods
   Garnet Chan, S. Sharma, J. Yang, R. Olivares  : DMRG
   Ulf Ekstrom                                   : XCFun DFT Library
   Mihaly Kallay                                 : mrcc  (arbitrary order and MRCC methods)
   Jiri Pittner, Ondrej Demel                    : Mk-CCSD
   Frank Weinhold                                : gennbo (NPA and NBO analysis)
   Christopher J. Cramer and Donald G. Truhlar   : smd solvation model
   Lars Goerigk                                  : TD-DFT with DH, B97 family of functionals
   V. Asgeirsson, H. Jonsson                     : NEB implementation
   FAccTs GmbH                                   : IRC, NEB, NEB-TS, DLPNO-Multilevel, CI-OPT
                                                   MM, QMMM, 2- and 3-layer-ONIOM, Crystal-QMMM,
                                                   LR-CPCM, SF, NACMEs, symmetry and pop. for TD-DFT,
                                                   nearIR, NL-DFT gradient (VV10), updates on ESD,
                                                   ML-optimized integration grids
   S Lehtola, MJT Oliveira, MAL Marques          : LibXC Library
   Liviu Ungur et al                             : ANISO software


 Your calculation uses the libint2 library for the computation of 2-el integrals
 For citations please refer to: http://libint.valeyev.net

 Your ORCA version has been built with support for libXC version: 5.1.0
 For citations please refer to: https://tddft.org/programs/libxc/

 This ORCA versions uses:
   CBLAS   interface :  Fast vector & matrix operations
   LAPACKE interface :  Fast linear algebra routines
   SCALAPACK package :  Parallel linear algebra routines
   Shared memory     :  Shared parallel matrices
   BLAS/LAPACK       :  OpenBLAS 0.3.15  USE64BITINT DYNAMIC_ARCH NO_AFFINITY SkylakeX SINGLE_THREADED
        Core in use  :  SkylakeX
   Copyright (c) 2011-2014, The OpenBLAS Project




***************************************
The coordinates will be read from file: opt.xyz
***************************************


================================================================================

----- Orbital basis set information -----
Your calculation utilizes the basis: cc-pVDZ 
       H, B-Ne : Obtained from the ccRepo (grant-hill.group.shef.ac.uk/ccrepo) Feb. 2017
                 T. H. Dunning, Jr., J. Chem. Phys. 90, 1007 (1989)
            He : Obtained from the ccRepo (grant-hill.group.shef.ac.uk/ccrepo) Feb. 2017
                 D. E. Woon, T. H. Dunning, Jr., J. Chem. Phys. 100, 2975 (1994)
  Li-Be, Na-Mg : Obtained from the ccRepo (grant-hill.group.shef.ac.uk/ccrepo) Feb. 2017
                 B. P. Prascher, D. E. Woon, K. A. Peterson, T. H. Dunning, Jr., A. K. Wilson, Theor. Chem. Acc. 128, 69 (2011)
         Al-Ar : Obtained from the ccRepo (grant-hill.group.shef.ac.uk/ccrepo) Feb. 2017
                 D. E. Woon, T. H. Dunning, Jr., J. Chem. Phys. 98, 1358 (1993)
            Ca : Obtained from the Peterson Research Group Website (tyr0.chem.wsu.edu/~kipeters) Feb. 2017
                 J. Koput, K. A. Peterson, J. Phys. Chem. 106, 9595 (2002)
         Sc-Zn : Obtained from the ccRepo (grant-hill.group.shef.ac.uk/ccrepo) Feb. 2017
                 N. B. Balabanov, K. A. Peterson, J. Chem. Phys. 123, 064107 (2005)
                 N. B. Balabanov, K. A. Peterson, J. Chem. Phys. 125, 074110 (2006)
         Ga-Kr : Obtained from the ccRepo (grant-hill.group.shef.ac.uk/ccrepo) Feb. 2017
                 A. K. Wilson, D. E. Woon, K. A. Peterson, T. H. Dunning, Jr., J. Chem. Phys. 110, 7667 (1999)

----- AuxJ basis set information -----
Your calculation utilizes the AutoAux generation procedure.
  G. L. Stoychev, A. A. Auer, F. Neese, J. Chem. Theory Comput. 13, 554 (2017)

----- AuxC basis set information -----
Your calculation utilizes the AutoAux generation procedure.
  G. L. Stoychev, A. A. Auer, F. Neese, J. Chem. Theory Comput. 13, 554 (2017)

----- AuxJK basis set information -----
Your calculation utilizes the AutoAux generation procedure.
  G. L. Stoychev, A. A. Auer, F. Neese, J. Chem. Theory Comput. 13, 554 (2017)

================================================================================
                                        WARNINGS
                       Please study these warnings very carefully!
================================================================================


WARNING: your system is open-shell and RHF/RKS was chosen
  ===> : WILL SWITCH to UHF/UKS


INFO   : the flag for use of the SHARK integral package has been found!

================================================================================
                                       INPUT FILE
================================================================================
NAME = cc-pVDZ_i.inp
|  1> ! B3LYP cc-pVDZ AUTOAUX
|  2> %pal nprocs 16 end
|  3> *XYZFile 0 2 opt.xyz
|  4> %EPRNMR
|  5>         GTENSOR   TRUE
|  6>         NUCLEI    = ALL H {SHIFT, AISO, ADIP, AORB}
|  7>         ORI       GIAO
|  8> END
|  9> 
| 10>                          ****END OF INPUT****
================================================================================

                       ****************************
                       * Single Point Calculation *
                       ****************************

---------------------------------
CARTESIAN COORDINATES (ANGSTROEM)
---------------------------------
  C     -4.033095    0.125995   -0.120550
  C     -2.818554    0.064283   -0.113733
  C      2.844701   -0.087698   -0.094014
  C     -1.387308    0.001670   -0.109120
  C     -0.717415   -1.248577   -0.131387
  C      0.677891   -1.227304   -0.125201
  C      1.413450   -0.025455   -0.098238
  C      0.743520    1.224786   -0.076040
  C     -0.651774    1.203497   -0.082207
  H      1.237515   -2.162251   -0.141592
  H     -1.211574    2.138326   -0.066066
  C     -1.519082   -2.535740   -0.160319
  H     -2.193391   -2.502424   -1.035822
  H     -2.198917   -2.538057    0.711570
  C     -0.725170   -3.844428   -0.184263
  H     -0.057419   -3.863303   -1.065313
  H     -0.067448   -3.901298    0.702698
  C     -1.630154   -5.082043   -0.216172
  H     -2.302557   -5.063679    0.661573
  H     -2.289170   -5.027876   -1.102556
  C     -0.849650   -6.398680   -0.237162
  H     -0.209987   -6.499597    0.656655
  H     -0.192325   -6.460562   -1.121673
  C      1.544976    2.512262   -0.046310
  H      2.211265    2.483799    0.835489
  H      2.232417    2.510877   -0.912033
  C      0.748806    3.819980   -0.035637
  H      0.094974    3.867835   -0.925718
  H      0.077234    3.843479    0.842094
  C      1.650750    5.059985   -0.009203
  H      2.308780    5.015134    0.879125
  H      2.325397    5.040432   -0.885895
  C      0.871144    6.379748    0.002295
  H      0.196174    6.397851    0.879166
  H      0.212832    6.422731   -0.886310
  C      1.768137    7.622332    0.028249
  H      2.440869    7.614214   -0.849002
  H      2.424364    7.589422    0.917345
  C      0.965992    8.948773    0.039424
  H      0.313046    8.962787   -0.853435
  H      0.295262    8.937141    0.919053
  C      1.821040   10.171631    0.065838
  H      2.200965   10.570215    1.010891
  H      2.218733   10.598274   -0.859437
  C      4.059287   -0.148837   -0.092234
  H     -5.104117    0.181270   -0.124553
  H      5.130370   -0.203000   -0.089533
  H     -1.525743   -7.268664   -0.263008

----------------------------
CARTESIAN COORDINATES (A.U.)
----------------------------
  NO LB      ZA    FRAG     MASS         X           Y           Z
   0 C     6.0000    0    12.011   -7.621445    0.238096   -0.227806
   1 C     6.0000    0    12.011   -5.326295    0.121477   -0.214924
   2 C     6.0000    0    12.011    5.375707   -0.165726   -0.177661
   3 C     6.0000    0    12.011   -2.621633    0.003156   -0.206208
   4 C     6.0000    0    12.011   -1.355718   -2.359469   -0.248285
   5 C     6.0000    0    12.011    1.281028   -2.319269   -0.236597
   6 C     6.0000    0    12.011    2.671033   -0.048104   -0.185643
   7 C     6.0000    0    12.011    1.405050    2.314511   -0.143695
   8 C     6.0000    0    12.011   -1.231674    2.274280   -0.155348
   9 H     1.0000    0     1.008    2.338565   -4.086062   -0.267571
  10 H     1.0000    0     1.008   -2.289542    4.040851   -0.124848
  11 C     6.0000    0    12.011   -2.870649   -4.791855   -0.302959
  12 H     1.0000    0     1.008   -4.144908   -4.728896   -1.957419
  13 H     1.0000    0     1.008   -4.155351   -4.796233    1.344672
  14 C     6.0000    0    12.011   -1.370372   -7.264916   -0.348206
  15 H     1.0000    0     1.008   -0.108507   -7.300585   -2.013149
  16 H     1.0000    0     1.008   -0.127457   -7.372384    1.327906
  17 C     6.0000    0    12.011   -3.080545   -9.603669   -0.408505
  18 H     1.0000    0     1.008   -4.351202   -9.568967    1.250192
  19 H     1.0000    0     1.008   -4.325904   -9.501309   -2.083529
  20 C     6.0000    0    12.011   -1.605605  -12.091753   -0.448172
  21 H     1.0000    0     1.008   -0.396818  -12.282458    1.240898
  22 H     1.0000    0     1.008   -0.363442  -12.208692   -2.119655
  23 C     6.0000    0    12.011    2.919582    4.747487   -0.087513
  24 H     1.0000    0     1.008    4.178684    4.693700    1.578845
  25 H     1.0000    0     1.008    4.218658    4.744871   -1.723493
  26 C     6.0000    0    12.011    1.415038    7.218715   -0.067345
  27 H     1.0000    0     1.008    0.179475    7.309149   -1.749353
  28 H     1.0000    0     1.008    0.145950    7.263122    1.591328
  29 C     6.0000    0    12.011    3.119466    9.561986   -0.017391
  30 H     1.0000    0     1.008    4.362961    9.477230    1.661306
  31 H     1.0000    0     1.008    4.394363    9.525036   -1.674099
  32 C     6.0000    0    12.011    1.646224   12.055976    0.004337
  33 H     1.0000    0     1.008    0.370715   12.090187    1.661383
  34 H     1.0000    0     1.008    0.402194   12.137203   -1.674883
  35 C     6.0000    0    12.011    3.341295   14.404120    0.053382
  36 H     1.0000    0     1.008    4.612574   14.388779   -1.604382
  37 H     1.0000    0     1.008    4.581384   14.341929    1.733531
  38 C     6.0000    0    12.011    1.825460   16.910729    0.074500
  39 H     1.0000    0     1.008    0.591572   16.937213   -1.612758
  40 H     1.0000    0     1.008    0.557964   16.888749    1.736758
  41 C     6.0000    0    12.011    3.441267   19.221597    0.124417
  42 H     1.0000    0     1.008    4.159221   19.974812    1.910308
  43 H     1.0000    0     1.008    4.192798   20.027834   -1.624101
  44 C     6.0000    0    12.011    7.670940   -0.281260   -0.174296
  45 H     1.0000    0     1.008   -9.645384    0.342550   -0.235371
  46 H     1.0000    0     1.008    9.694995   -0.383615   -0.169193
  47 H     1.0000    0     1.008   -2.883236  -13.735785   -0.497013

--------------------------------
INTERNAL COORDINATES (ANGSTROEM)
--------------------------------
 C      0   0   0     0.000000000000     0.00000000     0.00000000
 C      1   0   0     1.216126533425     0.00000000     0.00000000
 C      2   1   0     5.665328879189   178.62311323     0.00000000
 C      2   1   3     1.432622014091   179.57366667   346.36765878
 C      4   2   1     1.418580903656   120.67998894   199.85893781
 C      5   4   2     1.395481891878   117.30089220   180.00194210
 C      6   5   4     1.409331062043   122.33981991     0.00000000
 C      7   6   5     1.418591952718   120.35786033     0.00000000
 C      8   7   6     1.395469875603   117.30166258     0.00000000
 H      6   5   4     1.089758597975   120.02119069   179.99891363
 H      9   8   7     1.089744037995   120.03182786   180.01309598
 C      5   4   2     1.516672751091   119.91158003     0.00000000
 H     12   5   4     1.105579850259   108.17458873    56.23773308
 H     12   5   4     1.105608617036   108.16474260   303.64915849
 C     12   5   4     1.530860730586   116.85196988   179.95762620
 H     15  12   5     1.105665231667   109.89277517   301.89163176
 H     15  12   5     1.105681392118   109.87190177    58.40315050
 C     15  12   5     1.533526994534   112.59361507   180.14702054
 H     18  15  12     1.105847616516   109.20256463   302.48799365
 H     18  15  12     1.105854061265   109.19764228    57.79198366
 C     18  15  12     1.530739018735   113.17514602   180.13028485
 H     21  18  15     1.103748723839   111.28677580    60.02761689
 H     21  18  15     1.103750210883   111.27649423   300.30992875
 C      8   7   6     1.516841639996   119.92338399   179.96555595
 H     24   8   7     1.105585561708   108.19229282   303.17569237
 H     24   8   7     1.105465601363   108.18939608    55.80527247
 C     24   8   7     1.531054090402   116.76610637   179.49268478
 H     27  24   8     1.105454019405   109.81171929   301.92355081
 H     27  24   8     1.105429445798   109.85323597    58.37606105
 C     27  24   8     1.533563296303   112.63818716   180.15281981
 H     30  27  24     1.106409320032   109.32050156   302.31893984
 H     30  27  24     1.106399094548   109.30995567    57.73499914
 C     30  27  24     1.532869910717   113.40155910   180.02000813
 H     33  30  27     1.106713810006   109.28156324    57.69433825
 H     33  30  27     1.106725444466   109.26524721   302.33004611
 C     33  30  27     1.532737960493   113.60794831   180.01918290
 H     36  33  30     1.105532988879   109.67754542    58.04715616
 H     36  33  30     1.105535900967   109.68583839   301.93781246
 C     36  33  30     1.550163098883   113.01602217   179.99164143
 H     39  36  33     1.106223899969   108.08638156   302.50867140
 H     39  36  33     1.106237562865   108.08810700    57.40717091
 C     39  36  33     1.492376628128   113.87849646   179.95243980
 H     42  39  36     1.093772115972   120.85769729   275.06607383
 H     42  39  36     1.093763237714   120.86205473    85.02102555
 C      3   2   1     1.216124220326   178.65063847   189.98545716
 H      1   2   4     1.072455534972   179.88341160   274.34196710
 H     45   3   7     1.072455866565   179.93817679   270.13232413
 H     21  18  15     1.102108103087   111.50000175   180.17420782

---------------------------
INTERNAL COORDINATES (A.U.)
---------------------------
 C      0   0   0     0.000000000000     0.00000000     0.00000000
 C      1   0   0     2.298146092369     0.00000000     0.00000000
 C      2   1   0    10.705920040262   178.62311323     0.00000000
 C      2   1   3     2.707263260058   179.57366667   346.36765878
 C      4   2   1     2.680729406720   120.67998894   199.85893781
 C      5   4   2     2.637078600496   117.30089220   180.00194210
 C      6   5   4     2.663249739289   122.33981991     0.00000000
 C      7   6   5     2.680750286421   120.35786033     0.00000000
 C      8   7   6     2.637055893027   117.30166258     0.00000000
 H      6   5   4     2.059345302259   120.02119069   179.99891363
 H      9   8   7     2.059317787884   120.03182786   180.01309598
 C      5   4   2     2.866096134343   119.91158003     0.00000000
 H     12   5   4     2.089243136171   108.17458873    56.23773308
 H     12   5   4     2.089297497502   108.16474260   303.64915849
 C     12   5   4     2.892907529982   116.85196988   179.95762620
 H     15  12   5     2.089404483649   109.89277517   301.89163176
 H     15  12   5     2.089435022476   109.87190177    58.40315050
 C     15  12   5     2.897946038645   112.59361507   180.14702054
 H     18  15  12     2.089749141065   109.20256463   302.48799365
 H     18  15  12     2.089761319875   109.19764228    57.79198366
 C     18  15  12     2.892677527916   113.17514602   180.13028485
 H     21  18  15     2.085782808721   111.28677580    60.02761689
 H     21  18  15     2.085785618826   111.27649423   300.30992875
 C      8   7   6     2.866415288121   119.92338399   179.96555595
 H     24   8   7     2.089253929245   108.19229282   303.17569237
 H     24   8   7     2.089027237047   108.18939608    55.80527247
 C     24   8   7     2.893272927080   116.76610637   179.49268478
 H     27  24   8     2.089005350317   109.81171929   301.92355081
 H     27  24   8     2.088958912930   109.85323597    58.37606105
 C     27  24   8     2.898014639047   112.63818716   180.15281981
 H     30  27  24     2.090810606878   109.32050156   302.31893984
 H     30  27  24     2.090791283514   109.30995567    57.73499914
 C     30  27  24     2.896704330183   113.40155910   180.02000813
 H     33  30  27     2.091386009539   109.28156324    57.69433825
 H     33  30  27     2.091407995484   109.26524721   302.33004611
 C     33  30  27     2.896454980396   113.60794831   180.01918290
 H     36  33  30     2.089154580996   109.67754542    58.04715616
 H     36  33  30     2.089160084045   109.68583839   301.93781246
 C     36  33  30     2.929383719800   113.01602217   179.99164143
 H     39  36  33     2.090460213740   108.08638156   302.50867140
 H     39  36  33     2.090486032872   108.08810700    57.40717091
 C     39  36  33     2.820183115826   113.87849646   179.95243980
 H     42  39  36     2.066929752106   120.85769729   275.06607383
 H     42  39  36     2.066912974631   120.86205473    85.02102555
 C      3   2   1     2.298141721245   178.65063847   189.98545716
 H      1   2   4     2.026647251906   179.88341160   274.34196710
 H     45   3   7     2.026647878524   179.93817679   270.13232413
 H     21  18  15     2.082682484811   111.50000175   180.17420782

---------------------
BASIS SET INFORMATION
---------------------
There are 2 groups of distinct atoms

 Group   1 Type C   : 17s4p1d contracted to 3s2p1d pattern {881/31/1}
 Group   2 Type H   : 4s1p contracted to 2s1p pattern {31/1}

Atom   0C    basis set group =>   1
Atom   1C    basis set group =>   1
Atom   2C    basis set group =>   1
Atom   3C    basis set group =>   1
Atom   4C    basis set group =>   1
Atom   5C    basis set group =>   1
Atom   6C    basis set group =>   1
Atom   7C    basis set group =>   1
Atom   8C    basis set group =>   1
Atom   9H    basis set group =>   2
Atom  10H    basis set group =>   2
Atom  11C    basis set group =>   1
Atom  12H    basis set group =>   2
Atom  13H    basis set group =>   2
Atom  14C    basis set group =>   1
Atom  15H    basis set group =>   2
Atom  16H    basis set group =>   2
Atom  17C    basis set group =>   1
Atom  18H    basis set group =>   2
Atom  19H    basis set group =>   2
Atom  20C    basis set group =>   1
Atom  21H    basis set group =>   2
Atom  22H    basis set group =>   2
Atom  23C    basis set group =>   1
Atom  24H    basis set group =>   2
Atom  25H    basis set group =>   2
Atom  26C    basis set group =>   1
Atom  27H    basis set group =>   2
Atom  28H    basis set group =>   2
Atom  29C    basis set group =>   1
Atom  30H    basis set group =>   2
Atom  31H    basis set group =>   2
Atom  32C    basis set group =>   1
Atom  33H    basis set group =>   2
Atom  34H    basis set group =>   2
Atom  35C    basis set group =>   1
Atom  36H    basis set group =>   2
Atom  37H    basis set group =>   2
Atom  38C    basis set group =>   1
Atom  39H    basis set group =>   2
Atom  40H    basis set group =>   2
Atom  41C    basis set group =>   1
Atom  42H    basis set group =>   2
Atom  43H    basis set group =>   2
Atom  44C    basis set group =>   1
Atom  45H    basis set group =>   2
Atom  46H    basis set group =>   2
Atom  47H    basis set group =>   2
---------------------------------
AUXILIARY/J BASIS SET INFORMATION
---------------------------------
There are 2 groups of distinct atoms

 Group   1 Type C   : 14s11p10d2f contracted to 14s11p10d2f pattern {11111111111111/11111111111/1111111111/11}
 Group   2 Type H   : 9s2p1d contracted to 9s2p1d pattern {111111111/11/1}

Atom   0C    basis set group =>   1
Atom   1C    basis set group =>   1
Atom   2C    basis set group =>   1
Atom   3C    basis set group =>   1
Atom   4C    basis set group =>   1
Atom   5C    basis set group =>   1
Atom   6C    basis set group =>   1
Atom   7C    basis set group =>   1
Atom   8C    basis set group =>   1
Atom   9H    basis set group =>   2
Atom  10H    basis set group =>   2
Atom  11C    basis set group =>   1
Atom  12H    basis set group =>   2
Atom  13H    basis set group =>   2
Atom  14C    basis set group =>   1
Atom  15H    basis set group =>   2
Atom  16H    basis set group =>   2
Atom  17C    basis set group =>   1
Atom  18H    basis set group =>   2
Atom  19H    basis set group =>   2
Atom  20C    basis set group =>   1
Atom  21H    basis set group =>   2
Atom  22H    basis set group =>   2
Atom  23C    basis set group =>   1
Atom  24H    basis set group =>   2
Atom  25H    basis set group =>   2
Atom  26C    basis set group =>   1
Atom  27H    basis set group =>   2
Atom  28H    basis set group =>   2
Atom  29C    basis set group =>   1
Atom  30H    basis set group =>   2
Atom  31H    basis set group =>   2
Atom  32C    basis set group =>   1
Atom  33H    basis set group =>   2
Atom  34H    basis set group =>   2
Atom  35C    basis set group =>   1
Atom  36H    basis set group =>   2
Atom  37H    basis set group =>   2
Atom  38C    basis set group =>   1
Atom  39H    basis set group =>   2
Atom  40H    basis set group =>   2
Atom  41C    basis set group =>   1
Atom  42H    basis set group =>   2
Atom  43H    basis set group =>   2
Atom  44C    basis set group =>   1
Atom  45H    basis set group =>   2
Atom  46H    basis set group =>   2
Atom  47H    basis set group =>   2
---------------------------------
AUXILIARY/C BASIS SET INFORMATION
---------------------------------
There are 2 groups of distinct atoms

 Group   1 Type C   : 14s11p10d2f contracted to 14s11p10d2f pattern {11111111111111/11111111111/1111111111/11}
 Group   2 Type H   : 9s2p1d contracted to 9s2p1d pattern {111111111/11/1}

Atom   0C    basis set group =>   1
Atom   1C    basis set group =>   1
Atom   2C    basis set group =>   1
Atom   3C    basis set group =>   1
Atom   4C    basis set group =>   1
Atom   5C    basis set group =>   1
Atom   6C    basis set group =>   1
Atom   7C    basis set group =>   1
Atom   8C    basis set group =>   1
Atom   9H    basis set group =>   2
Atom  10H    basis set group =>   2
Atom  11C    basis set group =>   1
Atom  12H    basis set group =>   2
Atom  13H    basis set group =>   2
Atom  14C    basis set group =>   1
Atom  15H    basis set group =>   2
Atom  16H    basis set group =>   2
Atom  17C    basis set group =>   1
Atom  18H    basis set group =>   2
Atom  19H    basis set group =>   2
Atom  20C    basis set group =>   1
Atom  21H    basis set group =>   2
Atom  22H    basis set group =>   2
Atom  23C    basis set group =>   1
Atom  24H    basis set group =>   2
Atom  25H    basis set group =>   2
Atom  26C    basis set group =>   1
Atom  27H    basis set group =>   2
Atom  28H    basis set group =>   2
Atom  29C    basis set group =>   1
Atom  30H    basis set group =>   2
Atom  31H    basis set group =>   2
Atom  32C    basis set group =>   1
Atom  33H    basis set group =>   2
Atom  34H    basis set group =>   2
Atom  35C    basis set group =>   1
Atom  36H    basis set group =>   2
Atom  37H    basis set group =>   2
Atom  38C    basis set group =>   1
Atom  39H    basis set group =>   2
Atom  40H    basis set group =>   2
Atom  41C    basis set group =>   1
Atom  42H    basis set group =>   2
Atom  43H    basis set group =>   2
Atom  44C    basis set group =>   1
Atom  45H    basis set group =>   2
Atom  46H    basis set group =>   2
Atom  47H    basis set group =>   2
----------------------------------
AUXILIARY/JK BASIS SET INFORMATION
----------------------------------
There are 2 groups of distinct atoms

 Group   1 Type C   : 14s11p10d2f contracted to 14s11p10d2f pattern {11111111111111/11111111111/1111111111/11}
 Group   2 Type H   : 9s2p1d contracted to 9s2p1d pattern {111111111/11/1}

Atom   0C    basis set group =>   1
Atom   1C    basis set group =>   1
Atom   2C    basis set group =>   1
Atom   3C    basis set group =>   1
Atom   4C    basis set group =>   1
Atom   5C    basis set group =>   1
Atom   6C    basis set group =>   1
Atom   7C    basis set group =>   1
Atom   8C    basis set group =>   1
Atom   9H    basis set group =>   2
Atom  10H    basis set group =>   2
Atom  11C    basis set group =>   1
Atom  12H    basis set group =>   2
Atom  13H    basis set group =>   2
Atom  14C    basis set group =>   1
Atom  15H    basis set group =>   2
Atom  16H    basis set group =>   2
Atom  17C    basis set group =>   1
Atom  18H    basis set group =>   2
Atom  19H    basis set group =>   2
Atom  20C    basis set group =>   1
Atom  21H    basis set group =>   2
Atom  22H    basis set group =>   2
Atom  23C    basis set group =>   1
Atom  24H    basis set group =>   2
Atom  25H    basis set group =>   2
Atom  26C    basis set group =>   1
Atom  27H    basis set group =>   2
Atom  28H    basis set group =>   2
Atom  29C    basis set group =>   1
Atom  30H    basis set group =>   2
Atom  31H    basis set group =>   2
Atom  32C    basis set group =>   1
Atom  33H    basis set group =>   2
Atom  34H    basis set group =>   2
Atom  35C    basis set group =>   1
Atom  36H    basis set group =>   2
Atom  37H    basis set group =>   2
Atom  38C    basis set group =>   1
Atom  39H    basis set group =>   2
Atom  40H    basis set group =>   2
Atom  41C    basis set group =>   1
Atom  42H    basis set group =>   2
Atom  43H    basis set group =>   2
Atom  44C    basis set group =>   1
Atom  45H    basis set group =>   2
Atom  46H    basis set group =>   2
Atom  47H    basis set group =>   2


           ************************************************************
           *        Program running with 16 parallel MPI-processes    *
           *              working on a common directory               *
           ************************************************************
------------------------------------------------------------------------------
                           ORCA GTO INTEGRAL CALCULATION
                           -- RI-GTO INTEGRALS CHOSEN --
------------------------------------------------------------------------------
------------------------------------------------------------------------------
                   ___                                                        
                  /   \      - P O W E R E D   B Y -                         
                 /     \                                                     
                 |  |  |   _    _      __       _____    __    __             
                 |  |  |  | |  | |    /  \     |  _  \  |  |  /  |          
                  \  \/   | |  | |   /    \    | | | |  |  | /  /          
                 / \  \   | |__| |  /  /\  \   | |_| |  |  |/  /          
                |  |  |   |  __  | /  /__\  \  |    /   |      \           
                |  |  |   | |  | | |   __   |  |    \   |  |\   \          
                \     /   | |  | | |  |  |  |  | |\  \  |  | \   \       
                 \___/    |_|  |_| |__|  |__|  |_| \__\ |__|  \__/        
                                                                              
                      - O R C A' S   B I G   F R I E N D -                    
                                      &                                       
                       - I N T E G R A L  F E E D E R -                       
                                                                              
 v1 FN, 2020, v2 2021                                                         
------------------------------------------------------------------------------


Reading SHARK input file cc-pVDZ_i.SHARKINP.tmp ... ok
----------------------
SHARK INTEGRAL PACKAGE
----------------------

Number of atoms                             ...     48
Number of basis functions                   ...    555
Number of shells                            ...    333
Maximum angular momentum                    ...      2
Integral batch strategy                     ... SHARK/LIBINT Hybrid
RI-J (if used) integral strategy            ... SPLIT-RIJ (Revised 2003 algorithm where possible)
Printlevel                                  ...      1
Contraction scheme used                     ... PARTIAL GENERAL contraction
Coulomb Range Separation                    ... NOT USED
Exchange Range Separation                   ... NOT USED
Finite Nucleus Model                        ... NOT USED
Auxiliary Coulomb fitting basis             ... AVAILABLE
   # of basis functions in Aux-J            ...   2871
   # of shells in Aux-J                     ...   1101
   Maximum angular momentum in Aux-J        ...      3
Auxiliary J/K fitting basis                 ... AVAILABLE
   # of basis functions in Aux-JK           ...   2871
   # of shells in Aux-JK                    ...   1101
   Maximum angular momentum in Aux-JK       ...      3
Auxiliary Correlation fitting basis         ... AVAILABLE
   # of basis functions in Aux-C            ...   2871
   # of shells in Aux-C                     ...   1101
   Maximum angular momentum in Aux-C        ...      3
Auxiliary 'external' fitting basis          ... NOT available
Integral threshold                          ...     1.000000e-10
Primitive cut-off                           ...     1.000000e-11
Primitive pair pre-selection threshold      ...     1.000000e-11

Calculating pre-screening integrals         ... done (  0.0 sec) Dimension = 333
Calculating pre-screening integrals (ORCA)  ... done (  0.1 sec) Dimension = 207
Organizing shell pair data                  ... done (  0.1 sec)
Shell pair information
Total number of shell pairs                 ...     55611
Shell pairs after pre-screening             ...     22874
Total number of primitive shell pairs       ...     92379
Primitive shell pairs kept                  ...     31631
          la=0 lb=0:  10129 shell pairs
          la=1 lb=0:   8049 shell pairs
          la=1 lb=1:   1428 shell pairs
          la=2 lb=0:   2303 shell pairs
          la=2 lb=1:    830 shell pairs
          la=2 lb=2:    135 shell pairs

Calculating one electron integrals          ... done (  0.0 sec)
Calculating RI/J V-Matrix + Cholesky decomp.... done (  0.6 sec)
Calculating RI/JK V-Matrix + Cholesky decomp... done (  0.5 sec)
Calculating RI/C V-Matrix + Cholesky decomp.... done (  0.5 sec)
Calculating Nuclear repulsion               ... done (  0.0 sec) ENN=   1441.284606657862 Eh

SHARK setup successfully completed in   2.2 seconds

Maximum memory used throughout the entire GTOINT-calculation: 36.6 MB


           ************************************************************
           *        Program running with 16 parallel MPI-processes    *
           *              working on a common directory               *
           ************************************************************
-------------------------------------------------------------------------------
                                 ORCA SCF
-------------------------------------------------------------------------------

------------
SCF SETTINGS
------------
Hamiltonian:
 Density Functional     Method          .... DFT(GTOs)
 Exchange Functional    Exchange        .... B88
   X-Alpha parameter    XAlpha          ....  0.666667
   Becke's b parameter  XBeta           ....  0.004200
 Correlation Functional Correlation     .... LYP
 LDA part of GGA corr.  LDAOpt          .... VWN-5
 Gradients option       PostSCFGGA      .... off
 Hybrid DFT is turned on
   Fraction HF Exchange ScalHFX         ....  0.200000
   Scaling of DF-GGA-X  ScalDFX         ....  0.720000
   Scaling of DF-GGA-C  ScalDFC         ....  0.810000
   Scaling of DF-LDA-C  ScalLDAC        ....  1.000000
   Perturbative correction              ....  0.000000
   Density functional embedding theory  .... OFF
   NL short-range parameter             ....  4.800000
 RI-approximation to the Coulomb term is turned on
   Number of AuxJ basis functions       .... 2871
   RIJ-COSX (HFX calculated with COS-X)).... on


General Settings:
 Integral files         IntName         .... cc-pVDZ_i
 Hartree-Fock type      HFTyp           .... UHF
 Total Charge           Charge          ....    0
 Multiplicity           Mult            ....    2
 Number of Electrons    NEL             ....  153
 Basis Dimension        Dim             ....  429
 Nuclear Repulsion      ENuc            ....   1441.2846066579 Eh

Convergence Acceleration:
 DIIS                   CNVDIIS         .... on
   Start iteration      DIISMaxIt       ....    12
   Startup error        DIISStart       ....  0.200000
   # of expansion vecs  DIISMaxEq       ....     5
   Bias factor          DIISBfac        ....   1.050
   Max. coefficient     DIISMaxC        ....  10.000
 Trust-Rad. Augm. Hess. CNVTRAH         .... auto
   Auto Start mean grad. ratio tolernc. ....  1.125000
   Auto Start start iteration           ....    20
   Auto Start num. interpolation iter.  ....    10
   Max. Number of Micro iterations      ....    16
   Max. Number of Macro iterations      .... Maxiter - #DIIS iter
   Number of Davidson start vectors     ....     2
   Converg. threshold I  (grad. norm)   ....   5.000e-05
   Converg. threshold II (energy diff.) ....   1.000e-06
   Grad. Scal. Fac. for Micro threshold ....   0.100
   Minimum threshold for Micro iter.    ....   0.010
   NR start threshold (gradient norm)   ....   0.001
   Initial trust radius                 ....   0.400
   Minimum AH scaling param. (alpha)    ....   1.000
   Maximum AH scaling param. (alpha)    .... 1000.000
   Orbital update algorithm             .... Taylor
   White noise on init. David. guess    .... on
   Maximum white noise                  ....   0.010
   Quad. conv. algorithm                .... NR
 SOSCF                  CNVSOSCF        .... off
 Level Shifting         CNVShift        .... on
   Level shift para.    LevelShift      ....    0.2500
   Turn off err/grad.   ShiftErr        ....    0.0010
 Zerner damping         CNVZerner       .... off
 Static damping         CNVDamp         .... on
   Fraction old density DampFac         ....    0.7000
   Max. Damping (<1)    DampMax         ....    0.9800
   Min. Damping (>=0)   DampMin         ....    0.0000
   Turn off err/grad.   DampErr         ....    0.1000
 Fernandez-Rico         CNVRico         .... off

SCF Procedure:
 Maximum # iterations   MaxIter         ....   125
 SCF integral mode      SCFMode         .... Direct
   Integral package                     .... SHARK and LIBINT hybrid scheme
 Reset frequency        DirectResetFreq ....    20
 Integral Threshold     Thresh          ....  1.000e-10 Eh
 Primitive CutOff       TCut            ....  1.000e-11 Eh

Convergence Tolerance:
 Convergence Check Mode ConvCheckMode   .... Total+1el-Energy
 Convergence forced     ConvForced      .... 0
 Energy Change          TolE            ....  1.000e-06 Eh
 1-El. energy change                    ....  1.000e-03 Eh
 DIIS Error             TolErr          ....  1.000e-06


Diagonalization of the overlap matrix:
Smallest eigenvalue                        ... 1.271e-04
Time for diagonalization                   ...    0.034 sec
Threshold for overlap eigenvalues          ... 1.000e-08
Number of eigenvalues below threshold      ... 0
Time for construction of square roots      ...    0.041 sec
Total time needed                          ...    0.076 sec

Time for model grid setup =    0.285 sec

------------------------------
INITIAL GUESS: MODEL POTENTIAL
------------------------------
Loading Hartree-Fock densities                     ... done
Calculating cut-offs                               ... done
Initializing the effective Hamiltonian             ... done
Setting up the integral package (SHARK)            ... done
Starting the Coulomb interaction                   ... done (   0.3 sec)
Reading the grid                                   ... done
Mapping shells                                     ... done
Starting the XC term evaluation                    ... done (   0.1 sec)
  promolecular density results
     # of electrons  =    153.001149613
     EX              =   -115.836141229
     EC              =     -4.990179165
     EX+EC           =   -120.826320394
Transforming the Hamiltonian                       ... done (   0.0 sec)
Diagonalizing the Hamiltonian                      ... done (   0.0 sec)
Back transforming the eigenvectors                 ... done (   0.0 sec)
Now organizing SCF variables                       ... done
                      ------------------
                      INITIAL GUESS DONE (   1.0 sec)
                      ------------------
-------------------
DFT GRID GENERATION
-------------------

General Integration Accuracy     IntAcc      ... 4.388
Radial Grid Type                 RadialGrid  ... OptM3 with GC (2021)
Angular Grid (max. ang.)         AngularGrid ... 4 (Lebedev-302)
Angular grid pruning method      GridPruning ... 4 (adaptive)
Weight generation scheme         WeightScheme... Becke
Basis function cutoff            BFCut       ... 1.0000e-10
Integration weight cutoff        WCut        ... 1.0000e-14
Angular grids for H and He will be reduced by one unit
Partially contracted basis set               ... off
Rotationally invariant grid construction     ... off

Total number of grid points                  ...   211461
Total number of batches                      ...     3328
Average number of points per batch           ...       63
Average number of grid points per atom       ...     4405
Time for grid setup =    1.125 sec

--------------------
COSX GRID GENERATION
--------------------

GRIDX 1
-------
General Integration Accuracy     IntAcc      ... 3.816
Radial Grid Type                 RadialGrid  ... OptM3 with GC (2021)
Angular Grid (max. ang.)         AngularGrid ... 1 (Lebedev-50)
Angular grid pruning method      GridPruning ... 4 (adaptive)
Weight generation scheme         WeightScheme... Becke
Basis function cutoff            BFCut       ... 1.0000e-10
Integration weight cutoff        WCut        ... 1.0000e-14
Angular grids for H and He will be reduced by one unit
Partially contracted basis set               ... on
Rotationally invariant grid construction     ... off

Total number of grid points                  ...    26948
Total number of batches                      ...      452
Average number of points per batch           ...       59
Average number of grid points per atom       ...      561
UseSFitting                                  ... on

GRIDX 2
-------
General Integration Accuracy     IntAcc      ... 4.020
Radial Grid Type                 RadialGrid  ... OptM3 with GC (2021)
Angular Grid (max. ang.)         AngularGrid ... 2 (Lebedev-110)
Angular grid pruning method      GridPruning ... 4 (adaptive)
Weight generation scheme         WeightScheme... Becke
Basis function cutoff            BFCut       ... 1.0000e-10
Integration weight cutoff        WCut        ... 1.0000e-14
Angular grids for H and He will be reduced by one unit
Partially contracted basis set               ... on
Rotationally invariant grid construction     ... off

Total number of grid points                  ...    56897
Total number of batches                      ...      915
Average number of points per batch           ...       62
Average number of grid points per atom       ...     1185
UseSFitting                                  ... on

GRIDX 3
-------
General Integration Accuracy     IntAcc      ... 4.338
Radial Grid Type                 RadialGrid  ... OptM3 with GC (2021)
Angular Grid (max. ang.)         AngularGrid ... 3 (Lebedev-194)
Angular grid pruning method      GridPruning ... 4 (adaptive)
Weight generation scheme         WeightScheme... Becke
Basis function cutoff            BFCut       ... 1.0000e-10
Integration weight cutoff        WCut        ... 1.0000e-14
Angular grids for H and He will be reduced by one unit
Partially contracted basis set               ... on
Rotationally invariant grid construction     ... off

Total number of grid points                  ...   124299
Total number of batches                      ...     1965
Average number of points per batch           ...       63
Average number of grid points per atom       ...     2590
UseSFitting                                  ... on

Time for X-Grid setup             =    2.018 sec

 re-compute Schwartz prescreening matrix in partically contracted basis (1) ...done (   0.120 sec)
--------------
SCF ITERATIONS
--------------
ITER       Energy         Delta-E        Max-DP      RMS-DP      [F,P]     Damp
               ***  Starting incremental Fock matrix formation  ***
  0   -815.2671845154   0.000000000000 0.06542336  0.00086170  0.0870113 0.7000
  1   -815.5022153985  -0.235030883147 0.04829374  0.00063675  0.0458435 0.7000
                               ***Turning on DIIS***
  2   -815.6073318904  -0.105116491863 0.09476097  0.00121425  0.0194178 0.0000
  3   -815.7536651190  -0.146333228622 0.01914335  0.00033330  0.0249402 0.0000
  4   -815.7932803583  -0.039615239223 0.00858381  0.00011566  0.0059687 0.0000
  5   -815.7954780402  -0.002197681926 0.00112210  0.00003207  0.0015021 0.0000
  6   -815.7956588381  -0.000180797899 0.00131562  0.00001939  0.0006939 0.0000
               *** Restarting incremental Fock matrix formation ***
                                   *** Resetting DIIS ***
  7   -815.7960176993  -0.000358861200 0.00143677  0.00001695  0.0009390 0.0000
  8   -815.7959769257   0.000040773550 0.00062742  0.00000681  0.0023487 0.0000
  9   -815.7960197753  -0.000042849603 0.00041846  0.00000476  0.0008605 0.0000
 10   -815.7960265493  -0.000006773967 0.00007325  0.00000115  0.0001134 0.0000
 11   -815.7960267220  -0.000000172730 0.00003182  0.00000055  0.0000309 0.0000
                 **** Energy Check signals convergence ****

               *****************************************************
               *                     SUCCESS                       *
               *           SCF CONVERGED AFTER  12 CYCLES          *
               *****************************************************

Old exchange energy                            =    -23.670419862 Eh
New exchange energy                            =    -23.670511376 Eh
Exchange energy change after final integration =     -0.000091513 Eh
Total energy after final integration           =   -815.796118398 Eh
Final COS-X integration done in                =     6.477 sec

----------------
TOTAL SCF ENERGY
----------------

Total Energy       :         -815.79611840 Eh          -22198.94095 eV

Components:
Nuclear Repulsion  :         1441.28460666 Eh           39219.34802 eV
Electronic Energy  :        -2257.08072506 Eh          -61418.28897 eV
One Electron Energy:        -3961.16751380 Eh         -107788.84793 eV
Two Electron Energy:         1704.08678874 Eh           46370.55896 eV
Max COSX asymmetry :            0.00000046 Eh               0.00001 eV

Virial components:
Potential Energy   :        -1625.72912335 Eh          -44238.33848 eV
Kinetic Energy     :          809.93300496 Eh           22039.39753 eV
Virial Ratio       :            2.00723901


DFT components:
N(Alpha)           :       77.000203693346 electrons
N(Beta)            :       76.000200849893 electrons
N(Total)           :      153.000404543239 electrons
E(X)               :      -93.827035542409 Eh       
E(C)               :       -5.896410216899 Eh       
E(XC)              :      -99.723445759308 Eh       
DFET-embed. en.    :        0.000000000000 Eh       

---------------
SCF CONVERGENCE
---------------

  Last Energy change         ...   -1.6297e-07  Tolerance :   1.0000e-06
  Last MAX-Density change    ...    0.0000e+00  Tolerance :   1.0000e-05
  Last RMS-Density change    ...    0.0000e+00  Tolerance :   1.0000e-06
  Last DIIS Error            ...    1.1179e-05  Tolerance :   1.0000e-06

             **** THE GBW FILE WAS UPDATED (cc-pVDZ_i.gbw) ****
             **** DENSITY cc-pVDZ_i.scfp WAS UPDATED ****
             **** ENERGY FILE WAS UPDATED (cc-pVDZ_i.en.tmp) ****
----------------------
UHF SPIN CONTAMINATION
----------------------

Warning: in a DFT calculation there is little theoretical justification to 
         calculate <S**2> as in Hartree-Fock theory. We will do it anyways
         but you should keep in mind that the values have only limited relevance

Expectation value of <S**2>     :     0.753910
Ideal value S*(S+1) for S=0.5   :     0.750000
Deviation                       :     0.003910

             **** THE GBW FILE WAS UPDATED (cc-pVDZ_i.gbw) ****
             **** DENSITY cc-pVDZ_i.scfp WAS UPDATED ****
----------------
ORBITAL ENERGIES
----------------
                 SPIN UP ORBITALS
  NO   OCC          E(Eh)            E(eV) 
   0   1.0000     -10.212661      -277.9006 
   1   1.0000     -10.212630      -277.8998 
   2   1.0000     -10.201848      -277.6064 
   3   1.0000     -10.201774      -277.6044 
   4   1.0000     -10.192433      -277.3502 
   5   1.0000     -10.192378      -277.3487 
   6   1.0000     -10.191998      -277.3384 
   7   1.0000     -10.191988      -277.3381 
   8   1.0000     -10.187377      -277.2126 
   9   1.0000     -10.187159      -277.2067 
  10   1.0000     -10.187155      -277.2066 
  11   1.0000     -10.186991      -277.2021 
  12   1.0000     -10.185998      -277.1751 
  13   1.0000     -10.184130      -277.1243 
  14   1.0000     -10.182812      -277.0884 
  15   1.0000     -10.182030      -277.0671 
  16   1.0000     -10.181772      -277.0601 
  17   1.0000     -10.181768      -277.0600 
  18   1.0000     -10.180611      -277.0285 
  19   1.0000     -10.179666      -277.0028 
  20   1.0000     -10.175687      -276.8945 
  21   1.0000      -0.874853       -23.8060 
  22   1.0000      -0.819355       -22.2958 
  23   1.0000      -0.806457       -21.9448 
  24   1.0000      -0.795344       -21.6424 
  25   1.0000      -0.785567       -21.3764 
  26   1.0000      -0.762989       -20.7620 
  27   1.0000      -0.752003       -20.4630 
  28   1.0000      -0.733475       -19.9589 
  29   1.0000      -0.720464       -19.6048 
  30   1.0000      -0.706533       -19.2257 
  31   1.0000      -0.670969       -18.2580 
  32   1.0000      -0.642032       -17.4706 
  33   1.0000      -0.636776       -17.3276 
  34   1.0000      -0.611135       -16.6298 
  35   1.0000      -0.589678       -16.0460 
  36   1.0000      -0.578027       -15.7289 
  37   1.0000      -0.571460       -15.5502 
  38   1.0000      -0.563402       -15.3310 
  39   1.0000      -0.541872       -14.7451 
  40   1.0000      -0.525188       -14.2911 
  41   1.0000      -0.498922       -13.5764 
  42   1.0000      -0.484331       -13.1793 
  43   1.0000      -0.481201       -13.0941 
  44   1.0000      -0.476141       -12.9565 
  45   1.0000      -0.470471       -12.8022 
  46   1.0000      -0.460082       -12.5195 
  47   1.0000      -0.430515       -11.7149 
  48   1.0000      -0.427991       -11.6462 
  49   1.0000      -0.427640       -11.6367 
  50   1.0000      -0.421290       -11.4639 
  51   1.0000      -0.419641       -11.4190 
  52   1.0000      -0.412942       -11.2367 
  53   1.0000      -0.403142       -10.9701 
  54   1.0000      -0.391829       -10.6622 
  55   1.0000      -0.389213       -10.5910 
  56   1.0000      -0.374821       -10.1994 
  57   1.0000      -0.372845       -10.1456 
  58   1.0000      -0.363407        -9.8888 
  59   1.0000      -0.359701        -9.7880 
  60   1.0000      -0.353764        -9.6264 
  61   1.0000      -0.343040        -9.3346 
  62   1.0000      -0.341154        -9.2833 
  63   1.0000      -0.330299        -8.9879 
  64   1.0000      -0.329661        -8.9705 
  65   1.0000      -0.327325        -8.9070 
  66   1.0000      -0.324281        -8.8241 
  67   1.0000      -0.323505        -8.8030 
  68   1.0000      -0.320317        -8.7163 
  69   1.0000      -0.319144        -8.6844 
  70   1.0000      -0.317892        -8.6503 
  71   1.0000      -0.279311        -7.6005 
  72   1.0000      -0.276042        -7.5115 
  73   1.0000      -0.274955        -7.4819 
  74   1.0000      -0.246216        -6.6999 
  75   1.0000      -0.219232        -5.9656 
  76   1.0000      -0.198816        -5.4101 
  77   0.0000      -0.050725        -1.3803 
  78   0.0000      -0.003008        -0.0819 
  79   0.0000       0.040770         1.1094 
  80   0.0000       0.047799         1.3007 
  81   0.0000       0.050179         1.3654 
  82   0.0000       0.060786         1.6541 
  83   0.0000       0.062946         1.7128 
  84   0.0000       0.074042         2.0148 
  85   0.0000       0.080141         2.1808 
  86   0.0000       0.080551         2.1919 
  87   0.0000       0.084989         2.3127 
  88   0.0000       0.087068         2.3692 
  89   0.0000       0.090907         2.4737 
  90   0.0000       0.094745         2.5781 
  91   0.0000       0.095349         2.5946 
  92   0.0000       0.096395         2.6230 
  93   0.0000       0.108664         2.9569 
  94   0.0000       0.109931         2.9914 
  95   0.0000       0.114691         3.1209 
  96   0.0000       0.122289         3.3277 
  97   0.0000       0.130146         3.5415 
  98   0.0000       0.145054         3.9471 
  99   0.0000       0.145981         3.9723 
 100   0.0000       0.152254         4.1431 
 101   0.0000       0.158783         4.3207 
 102   0.0000       0.159931         4.3519 
 103   0.0000       0.160993         4.3808 
 104   0.0000       0.162037         4.4093 
 105   0.0000       0.167665         4.5624 
 106   0.0000       0.175956         4.7880 
 107   0.0000       0.177626         4.8334 
 108   0.0000       0.184048         5.0082 
 109   0.0000       0.190522         5.1844 
 110   0.0000       0.197283         5.3683 
 111   0.0000       0.199388         5.4256 
 112   0.0000       0.207955         5.6587 
 113   0.0000       0.211886         5.7657 
 114   0.0000       0.216481         5.8907 
 115   0.0000       0.221790         6.0352 
 116   0.0000       0.233192         6.3455 
 117   0.0000       0.245930         6.6921 
 118   0.0000       0.255053         6.9403 
 119   0.0000       0.260678         7.0934 
 120   0.0000       0.273027         7.4295 
 121   0.0000       0.276183         7.5153 
 122   0.0000       0.297193         8.0870 
 123   0.0000       0.316167         8.6033 
 124   0.0000       0.327584         8.9140 
 125   0.0000       0.337934         9.1956 
 126   0.0000       0.351177         9.5560 
 127   0.0000       0.366858         9.9827 
 128   0.0000       0.372677        10.1411 
 129   0.0000       0.377747        10.2790 
 130   0.0000       0.401926        10.9370 
 131   0.0000       0.406498        11.0614 
 132   0.0000       0.411801        11.2057 
 133   0.0000       0.414507        11.2793 
 134   0.0000       0.415265        11.2999 
 135   0.0000       0.419661        11.4196 
 136   0.0000       0.422153        11.4874 
 137   0.0000       0.426168        11.5966 
 138   0.0000       0.438951        11.9445 
 139   0.0000       0.445341        12.1183 
 140   0.0000       0.456226        12.4145 
 141   0.0000       0.461847        12.5675 
 142   0.0000       0.468115        12.7381 
 143   0.0000       0.473241        12.8775 
 144   0.0000       0.478306        13.0154 
 145   0.0000       0.484331        13.1793 
 146   0.0000       0.493197        13.4206 
 147   0.0000       0.495191        13.4748 
 148   0.0000       0.497307        13.5324 
 149   0.0000       0.504873        13.7383 
 150   0.0000       0.513945        13.9852 
 151   0.0000       0.517562        14.0836 
 152   0.0000       0.524458        14.2712 
 153   0.0000       0.530369        14.4321 
 154   0.0000       0.534667        14.5490 
 155   0.0000       0.536119        14.5886 
 156   0.0000       0.551727        15.0133 
 157   0.0000       0.554873        15.0989 
 158   0.0000       0.561214        15.2714 
 159   0.0000       0.581435        15.8217 
 160   0.0000       0.583892        15.8885 
 161   0.0000       0.595930        16.2161 
 162   0.0000       0.601291        16.3620 
 163   0.0000       0.606985        16.5169 
 164   0.0000       0.611682        16.6447 
 165   0.0000       0.614546        16.7226 
 166   0.0000       0.619743        16.8641 
 167   0.0000       0.630338        17.1524 
 168   0.0000       0.630990        17.1701 
 169   0.0000       0.631821        17.1927 
 170   0.0000       0.633583        17.2407 
 171   0.0000       0.640999        17.4425 
 172   0.0000       0.642244        17.4763 
 173   0.0000       0.648044        17.6342 
 174   0.0000       0.651587        17.7306 
 175   0.0000       0.656986        17.8775 
 176   0.0000       0.657378        17.8882 
 177   0.0000       0.658237        17.9115 
 178   0.0000       0.659765        17.9531 
 179   0.0000       0.660473        17.9724 
 180   0.0000       0.663725        18.0609 
 181   0.0000       0.665448        18.1078 
 182   0.0000       0.668175        18.1820 
 183   0.0000       0.672470        18.2988 
 184   0.0000       0.676693        18.4137 
 185   0.0000       0.684887        18.6367 
 186   0.0000       0.686840        18.6899 
 187   0.0000       0.690939        18.8014 
 188   0.0000       0.692524        18.8445 
 189   0.0000       0.695773        18.9330 
 190   0.0000       0.697333        18.9754 
 191   0.0000       0.700334        19.0570 
 192   0.0000       0.704393        19.1675 
 193   0.0000       0.708571        19.2812 
 194   0.0000       0.709894        19.3172 
 195   0.0000       0.720399        19.6030 
 196   0.0000       0.723276        19.6813 
 197   0.0000       0.726217        19.7614 
 198   0.0000       0.732979        19.9454 
 199   0.0000       0.736088        20.0300 
 200   0.0000       0.746397        20.3105 
 201   0.0000       0.748584        20.3700 
 202   0.0000       0.756311        20.5803 
 203   0.0000       0.772031        21.0080 
 204   0.0000       0.772342        21.0165 
 205   0.0000       0.781245        21.2588 
 206   0.0000       0.807835        21.9823 
 207   0.0000       0.824034        22.4231 
 208   0.0000       0.826137        22.4803 
 209   0.0000       0.833507        22.6809 
 210   0.0000       0.842275        22.9195 
 211   0.0000       0.842395        22.9227 
 212   0.0000       0.852074        23.1861 
 213   0.0000       0.865505        23.5516 
 214   0.0000       0.871986        23.7279 
 215   0.0000       0.883971        24.0541 
 216   0.0000       0.890798        24.2398 
 217   0.0000       0.917067        24.9547 
 218   0.0000       0.935483        25.4558 
 219   0.0000       0.956629        26.0312 
 220   0.0000       0.977531        26.6000 
 221   0.0000       0.980169        26.6718 
 222   0.0000       0.986445        26.8425 
 223   0.0000       0.989504        26.9258 
 224   0.0000       1.015165        27.6240 
 225   0.0000       1.023335        27.8464 
 226   0.0000       1.032260        28.0892 
 227   0.0000       1.033802        28.1312 
 228   0.0000       1.045547        28.4508 
 229   0.0000       1.050729        28.5918 
 230   0.0000       1.052261        28.6335 
 231   0.0000       1.060150        28.8482 
 232   0.0000       1.071743        29.1636 
 233   0.0000       1.078812        29.3560 
 234   0.0000       1.088861        29.6294 
 235   0.0000       1.114538        30.3281 
 236   0.0000       1.118326        30.4312 
 237   0.0000       1.151724        31.3400 
 238   0.0000       1.158920        31.5358 
 239   0.0000       1.171256        31.8715 
 240   0.0000       1.176202        32.0061 
 241   0.0000       1.194421        32.5019 
 242   0.0000       1.198726        32.6190 
 243   0.0000       1.202660        32.7261 
 244   0.0000       1.204828        32.7850 
 245   0.0000       1.206573        32.8325 
 246   0.0000       1.213975        33.0339 
 247   0.0000       1.215934        33.0873 
 248   0.0000       1.216852        33.1122 
 249   0.0000       1.222853        33.2755 
 250   0.0000       1.225070        33.3359 
 251   0.0000       1.230961        33.4961 
 252   0.0000       1.239696        33.7338 
 253   0.0000       1.262089        34.3432 
 254   0.0000       1.275137        34.6982 
 255   0.0000       1.305402        35.5218 
 256   0.0000       1.309980        35.6464 
 257   0.0000       1.319227        35.8980 
 258   0.0000       1.321343        35.9556 
 259   0.0000       1.327186        36.1146 
 260   0.0000       1.329878        36.1878 
 261   0.0000       1.333721        36.2924 
 262   0.0000       1.337647        36.3992 
 263   0.0000       1.348812        36.7030 
 264   0.0000       1.367723        37.2176 
 265   0.0000       1.378643        37.5148 
 266   0.0000       1.396067        37.9889 
 267   0.0000       1.398771        38.0625 
 268   0.0000       1.409034        38.3418 
 269   0.0000       1.417593        38.5747 
 270   0.0000       1.426399        38.8143 
 271   0.0000       1.435814        39.0705 
 272   0.0000       1.449793        39.4509 
 273   0.0000       1.463013        39.8106 
 274   0.0000       1.464628        39.8545 
 275   0.0000       1.468327        39.9552 
 276   0.0000       1.473118        40.0856 
 277   0.0000       1.476264        40.1712 
 278   0.0000       1.484461        40.3942 
 279   0.0000       1.494992        40.6808 
 280   0.0000       1.514454        41.2104 
 281   0.0000       1.516098        41.2551 
 282   0.0000       1.529730        41.6261 
 283   0.0000       1.531793        41.6822 
 284   0.0000       1.540958        41.9316 
 285   0.0000       1.554083        42.2888 
 286   0.0000       1.557985        42.3949 
 287   0.0000       1.576732        42.9050 
 288   0.0000       1.587436        43.1963 
 289   0.0000       1.593860        43.3711 
 290   0.0000       1.596992        43.4564 
 291   0.0000       1.597180        43.4615 
 292   0.0000       1.613243        43.8986 
 293   0.0000       1.626018        44.2462 
 294   0.0000       1.630253        44.3614 
 295   0.0000       1.631223        44.3878 
 296   0.0000       1.633297        44.4443 
 297   0.0000       1.638578        44.5880 
 298   0.0000       1.640351        44.6362 
 299   0.0000       1.645254        44.7696 
 300   0.0000       1.647173        44.8218 
 301   0.0000       1.651291        44.9339 
 302   0.0000       1.658282        45.1241 
 303   0.0000       1.665171        45.3116 
 304   0.0000       1.673345        45.5340 
 305   0.0000       1.679037        45.6889 
 306   0.0000       1.681680        45.7608 
 307   0.0000       1.689723        45.9797 
 308   0.0000       1.690676        46.0056 
 309   0.0000       1.693791        46.0904 
 310   0.0000       1.695657        46.1412 
 311   0.0000       1.701584        46.3025 
 312   0.0000       1.704799        46.3900 
 313   0.0000       1.707412        46.4611 
 314   0.0000       1.713055        46.6146 
 315   0.0000       1.717046        46.7232 
 316   0.0000       1.720514        46.8176 
 317   0.0000       1.726952        46.9928 
 318   0.0000       1.732241        47.1367 
 319   0.0000       1.733261        47.1644 
 320   0.0000       1.739608        47.3372 
 321   0.0000       1.754586        47.7447 
 322   0.0000       1.756554        47.7983 
 323   0.0000       1.765964        48.0543 
 324   0.0000       1.772327        48.2275 
 325   0.0000       1.778527        48.3962 
 326   0.0000       1.784317        48.5537 
 327   0.0000       1.788926        48.6792 
 328   0.0000       1.797726        48.9186 
 329   0.0000       1.798177        48.9309 
 330   0.0000       1.804972        49.1158 
 331   0.0000       1.807174        49.1757 
 332   0.0000       1.811556        49.2949 
 333   0.0000       1.813029        49.3350 
 334   0.0000       1.831668        49.8422 
 335   0.0000       1.837964        50.0135 
 336   0.0000       1.853287        50.4305 
 337   0.0000       1.856881        50.5283 
 338   0.0000       1.874112        50.9972 
 339   0.0000       1.881488        51.1979 
 340   0.0000       1.885767        51.3143 
 341   0.0000       1.902718        51.7756 
 342   0.0000       1.903140        51.7871 
 343   0.0000       1.913636        52.0727 
 344   0.0000       1.920528        52.2602 
 345   0.0000       1.928610        52.4802 
 346   0.0000       1.952966        53.1429 
 347   0.0000       1.967441        53.5368 
 348   0.0000       1.973192        53.6933 
 349   0.0000       1.974945        53.7410 
 350   0.0000       1.983026        53.9609 
 351   0.0000       1.996695        54.3328 
 352   0.0000       2.017888        54.9095 
 353   0.0000       2.023681        55.0671 
 354   0.0000       2.031131        55.2699 
 355   0.0000       2.033736        55.3408 
 356   0.0000       2.046056        55.6760 
 357   0.0000       2.052064        55.8395 
 358   0.0000       2.066610        56.2353 
 359   0.0000       2.079469        56.5852 
 360   0.0000       2.089691        56.8634 
 361   0.0000       2.097538        57.0769 
 362   0.0000       2.101079        57.1733 
 363   0.0000       2.109285        57.3966 
 364   0.0000       2.127668        57.8968 
 365   0.0000       2.140029        58.2331 
 366   0.0000       2.159382        58.7598 
 367   0.0000       2.184260        59.4367 
 368   0.0000       2.187921        59.5363 
 369   0.0000       2.194667        59.7199 
 370   0.0000       2.204100        59.9766 
 371   0.0000       2.205407        60.0122 
 372   0.0000       2.214589        60.2620 
 373   0.0000       2.220905        60.4339 
 374   0.0000       2.231465        60.7213 
 375   0.0000       2.250657        61.2435 
 376   0.0000       2.267358        61.6980 
 377   0.0000       2.271524        61.8113 
 378   0.0000       2.280668        62.0601 
 379   0.0000       2.287933        62.2578 
 380   0.0000       2.294203        62.4284 
 381   0.0000       2.299153        62.5631 
 382   0.0000       2.305453        62.7346 
 383   0.0000       2.320748        63.1508 
 384   0.0000       2.327435        63.3327 
 385   0.0000       2.332484        63.4701 
 386   0.0000       2.338841        63.6431 
 387   0.0000       2.339891        63.6717 
 388   0.0000       2.350337        63.9559 
 389   0.0000       2.352433        64.0130 
 390   0.0000       2.359015        64.1921 
 391   0.0000       2.376884        64.6783 
 392   0.0000       2.409956        65.5782 
 393   0.0000       2.411271        65.6140 
 394   0.0000       2.418604        65.8136 
 395   0.0000       2.423398        65.9440 
 396   0.0000       2.427485        66.0552 
 397   0.0000       2.428897        66.0937 
 398   0.0000       2.446335        66.5681 
 399   0.0000       2.458989        66.9125 
 400   0.0000       2.486797        67.6692 
 401   0.0000       2.489454        67.7415 
 402   0.0000       2.500332        68.0375 
 403   0.0000       2.514085        68.4117 
 404   0.0000       2.536331        69.0171 
 405   0.0000       2.536589        69.0241 
 406   0.0000       2.572512        70.0016 
 407   0.0000       2.573648        70.0325 
 408   0.0000       2.588957        70.4491 
 409   0.0000       2.597063        70.6697 
 410   0.0000       2.607373        70.9502 
 411   0.0000       2.612765        71.0969 
 412   0.0000       2.622894        71.3726 
 413   0.0000       2.647767        72.0494 
 414   0.0000       2.701942        73.5236 
 415   0.0000       2.714102        73.8545 
 416   0.0000       2.724436        74.1357 
 417   0.0000       2.731309        74.3227 
 418   0.0000       2.760391        75.1141 
 419   0.0000       2.765163        75.2439 
 420   0.0000       2.813950        76.5715 
 421   0.0000       2.825357        76.8819 
 422   0.0000       2.832262        77.0698 
 423   0.0000       2.870114        78.0998 
 424   0.0000       2.887124        78.5626 
 425   0.0000       2.950664        80.2917 
 426   0.0000       3.188747        86.7702 
 427   0.0000       3.194515        86.9272 
 428   0.0000       3.384291        92.0912 

                 SPIN DOWN ORBITALS
  NO   OCC          E(Eh)            E(eV) 
   0   1.0000     -10.212661      -277.9006 
   1   1.0000     -10.212630      -277.8998 
   2   1.0000     -10.201845      -277.6063 
   3   1.0000     -10.201774      -277.6044 
   4   1.0000     -10.192433      -277.3502 
   5   1.0000     -10.192378      -277.3487 
   6   1.0000     -10.191998      -277.3384 
   7   1.0000     -10.191988      -277.3381 
   8   1.0000     -10.187371      -277.2125 
   9   1.0000     -10.187159      -277.2067 
  10   1.0000     -10.187155      -277.2066 
  11   1.0000     -10.186991      -277.2021 
  12   1.0000     -10.185018      -277.1484 
  13   1.0000     -10.182777      -277.0874 
  14   1.0000     -10.182030      -277.0671 
  15   1.0000     -10.181768      -277.0600 
  16   1.0000     -10.180576      -277.0276 
  17   1.0000     -10.180209      -277.0176 
  18   1.0000     -10.179475      -276.9976 
  19   1.0000     -10.175687      -276.8945 
  20   1.0000     -10.171937      -276.7925 
  21   1.0000      -0.874850       -23.8059 
  22   1.0000      -0.819182       -22.2911 
  23   1.0000      -0.804692       -21.8968 
  24   1.0000      -0.795344       -21.6424 
  25   1.0000      -0.782568       -21.2948 
  26   1.0000      -0.760350       -20.6902 
  27   1.0000      -0.751481       -20.4488 
  28   1.0000      -0.729744       -19.8574 
  29   1.0000      -0.720368       -19.6022 
  30   1.0000      -0.702804       -19.1243 
  31   1.0000      -0.665340       -18.1048 
  32   1.0000      -0.640908       -17.4400 
  33   1.0000      -0.633846       -17.2478 
  34   1.0000      -0.606371       -16.5002 
  35   1.0000      -0.586551       -15.9609 
  36   1.0000      -0.576406       -15.6848 
  37   1.0000      -0.566225       -15.4078 
  38   1.0000      -0.559364       -15.2211 
  39   1.0000      -0.541868       -14.7450 
  40   1.0000      -0.525162       -14.2904 
  41   1.0000      -0.498895       -13.5756 
  42   1.0000      -0.484325       -13.1792 
  43   1.0000      -0.480429       -13.0731 
  44   1.0000      -0.476088       -12.9550 
  45   1.0000      -0.470464       -12.8020 
  46   1.0000      -0.457882       -12.4596 
  47   1.0000      -0.430240       -11.7074 
  48   1.0000      -0.426883       -11.6161 
  49   1.0000      -0.425627       -11.5819 
  50   1.0000      -0.419991       -11.4285 
  51   1.0000      -0.419119       -11.4048 
  52   1.0000      -0.410916       -11.1816 
  53   1.0000      -0.400123       -10.8879 
  54   1.0000      -0.389874       -10.6090 
  55   1.0000      -0.386559       -10.5188 
  56   1.0000      -0.371974       -10.1219 
  57   1.0000      -0.371813       -10.1175 
  58   1.0000      -0.361391        -9.8339 
  59   1.0000      -0.359093        -9.7714 
  60   1.0000      -0.352948        -9.6042 
  61   1.0000      -0.340699        -9.2709 
  62   1.0000      -0.340369        -9.2619 
  63   1.0000      -0.329633        -8.9698 
  64   1.0000      -0.329230        -8.9588 
  65   1.0000      -0.326934        -8.8963 
  66   1.0000      -0.323619        -8.8061 
  67   1.0000      -0.323091        -8.7917 
  68   1.0000      -0.319970        -8.7068 
  69   1.0000      -0.318802        -8.6750 
  70   1.0000      -0.314218        -8.5503 
  71   1.0000      -0.279311        -7.6004 
  72   1.0000      -0.276042        -7.5115 
  73   1.0000      -0.274942        -7.4815 
  74   1.0000      -0.246215        -6.6998 
  75   1.0000      -0.219232        -5.9656 
  76   0.0000      -0.050724        -1.3803 
  77   0.0000      -0.045008        -1.2247 
  78   0.0000      -0.003007        -0.0818 
  79   0.0000       0.040771         1.1094 
  80   0.0000       0.047800         1.3007 
  81   0.0000       0.050180         1.3655 
  82   0.0000       0.061451         1.6722 
  83   0.0000       0.063010         1.7146 
  84   0.0000       0.075796         2.0625 
  85   0.0000       0.080608         2.1935 
  86   0.0000       0.080879         2.2008 
  87   0.0000       0.085011         2.3133 
  88   0.0000       0.087362         2.3772 
  89   0.0000       0.090914         2.4739 
  90   0.0000       0.094746         2.5782 
  91   0.0000       0.095412         2.5963 
  92   0.0000       0.100726         2.7409 
  93   0.0000       0.109345         2.9754 
  94   0.0000       0.110850         3.0164 
  95   0.0000       0.114733         3.1220 
  96   0.0000       0.124870         3.3979 
  97   0.0000       0.131146         3.5687 
  98   0.0000       0.146021         3.9734 
  99   0.0000       0.146248         3.9796 
 100   0.0000       0.152391         4.1468 
 101   0.0000       0.159058         4.3282 
 102   0.0000       0.160409         4.3649 
 103   0.0000       0.161697         4.4000 
 104   0.0000       0.162074         4.4103 
 105   0.0000       0.168728         4.5913 
 106   0.0000       0.176008         4.7894 
 107   0.0000       0.178154         4.8478 
 108   0.0000       0.184327         5.0158 
 109   0.0000       0.191652         5.2151 
 110   0.0000       0.198747         5.4082 
 111   0.0000       0.199453         5.4274 
 112   0.0000       0.208267         5.6672 
 113   0.0000       0.212314         5.7774 
 114   0.0000       0.216909         5.9024 
 115   0.0000       0.222475         6.0538 
 116   0.0000       0.233937         6.3658 
 117   0.0000       0.248013         6.7488 
 118   0.0000       0.256357         6.9758 
 119   0.0000       0.261240         7.1087 
 120   0.0000       0.276317         7.5190 
 121   0.0000       0.277585         7.5535 
 122   0.0000       0.299216         8.1421 
 123   0.0000       0.318136         8.6569 
 124   0.0000       0.328145         8.9293 
 125   0.0000       0.339193         9.2299 
 126   0.0000       0.351894         9.5755 
 127   0.0000       0.367075         9.9886 
 128   0.0000       0.372819        10.1449 
 129   0.0000       0.378558        10.3011 
 130   0.0000       0.403813        10.9883 
 131   0.0000       0.407349        11.0845 
 132   0.0000       0.411802        11.2057 
 133   0.0000       0.415000        11.2927 
 134   0.0000       0.415426        11.3043 
 135   0.0000       0.419664        11.4196 
 136   0.0000       0.422702        11.5023 
 137   0.0000       0.426457        11.6045 
 138   0.0000       0.440884        11.9971 
 139   0.0000       0.449646        12.2355 
 140   0.0000       0.456374        12.4186 
 141   0.0000       0.462640        12.5891 
 142   0.0000       0.468134        12.7386 
 143   0.0000       0.477622        12.9968 
 144   0.0000       0.479836        13.0570 
 145   0.0000       0.485666        13.2156 
 146   0.0000       0.495362        13.4795 
 147   0.0000       0.495558        13.4848 
 148   0.0000       0.504881        13.7385 
 149   0.0000       0.507397        13.8070 
 150   0.0000       0.515464        14.0265 
 151   0.0000       0.522938        14.2299 
 152   0.0000       0.531018        14.4497 
 153   0.0000       0.534792        14.5524 
 154   0.0000       0.536173        14.5900 
 155   0.0000       0.551143        14.9974 
 156   0.0000       0.554873        15.0989 
 157   0.0000       0.559211        15.2169 
 158   0.0000       0.573320        15.6008 
 159   0.0000       0.582827        15.8595 
 160   0.0000       0.584101        15.8942 
 161   0.0000       0.599558        16.3148 
 162   0.0000       0.601518        16.3681 
 163   0.0000       0.608079        16.5467 
 164   0.0000       0.613906        16.7052 
 165   0.0000       0.614570        16.7233 
 166   0.0000       0.619967        16.8701 
 167   0.0000       0.630665        17.1613 
 168   0.0000       0.632428        17.2092 
 169   0.0000       0.633441        17.2368 
 170   0.0000       0.635657        17.2971 
 171   0.0000       0.641050        17.4439 
 172   0.0000       0.643274        17.5044 
 173   0.0000       0.648601        17.6493 
 174   0.0000       0.651696        17.7335 
 175   0.0000       0.658422        17.9166 
 176   0.0000       0.658647        17.9227 
 177   0.0000       0.659044        17.9335 
 178   0.0000       0.660854        17.9827 
 179   0.0000       0.661274        17.9942 
 180   0.0000       0.664478        18.0814 
 181   0.0000       0.666418        18.1342 
 182   0.0000       0.670746        18.2519 
 183   0.0000       0.672962        18.3122 
 184   0.0000       0.678025        18.4500 
 185   0.0000       0.685029        18.6406 
 186   0.0000       0.687201        18.6997 
 187   0.0000       0.691392        18.8137 
 188   0.0000       0.694561        18.9000 
 189   0.0000       0.695996        18.9390 
 190   0.0000       0.698958        19.0196 
 191   0.0000       0.701867        19.0988 
 192   0.0000       0.704512        19.1707 
 193   0.0000       0.709174        19.2976 
 194   0.0000       0.714017        19.4294 
 195   0.0000       0.720542        19.6069 
 196   0.0000       0.723374        19.6840 
 197   0.0000       0.727657        19.8005 
 198   0.0000       0.733367        19.9559 
 199   0.0000       0.738508        20.0958 
 200   0.0000       0.746556        20.3148 
 201   0.0000       0.749249        20.3881 
 202   0.0000       0.757020        20.5996 
 203   0.0000       0.772638        21.0245 
 204   0.0000       0.772896        21.0316 
 205   0.0000       0.781641        21.2695 
 206   0.0000       0.808221        21.9928 
 207   0.0000       0.826424        22.4882 
[...]
  Z           0.8500436           -0.0555158           -0.5237784

Notes:  (1) The A matrix conforms to the "SAI" spin Hamiltonian convention.
        (2) Tensor is right-handed.

 -----------------------------------------------------------
 Nucleus  45H : A:ISTP=    1 I=  0.5 P=533.5514 MHz/au**3
                Q:ISTP=    2 I=  1.0 Q=  0.0029 barn     
 -----------------------------------------------------------
 Solving for nuclear perturbation:
Forming RHS of the CP-SCF equations         ... 
Calc. nucleus orbit integrals (SHARK)       ... done

------------------------------------------------------------------------------
                           ORCA CP-SCF CALCULATION
------------------------------------------------------------------------------

Input orbitals are from        ... cc-pVDZ_i.gbw
Input Perturbation             ... cc-pVDZ_i.pin.tmp
Wavefunction output            ... cc-pVDZ_i.pout.tmp
Perturbation mode              ... Imaginary perturbation
Solver                         ... POPLE
Max. number of iterations      ... 64
Convergence tolerance          ... 1.000e-03
Integral handling              ... Direct
DFT GridXC                     ... 1
COSX GridX                     ... 1
COSX IntAccX                   ... 3.067
COSX Algorithm                 ... Auto
Number of perturbations        ... 3
Number of operators            ... 2
Orbital ranges used for CP-SCF:
 Operator 0:  Orbitals   0... 76  to  77...428
 Operator 1:  Orbitals   0... 75  to  76...428
Variables per perturbation     ... 53932
DFT calculation                         ... on
XC functional terms                     ... off
Hybrid DFT                              ... on
   Exchange mixing (SCF)                ...  0.200
   Exchange mixing (CP-SCF)             ...  0.200
   GGA exch. scaling(SCF)               ...  0.720
   GGA exch. scaling (CP-SCF)           ...  0.720
   GGA corr. scaling (SCF)              ...  0.810
   GGA corr. scaling (CP-SCF)           ...  0.810

CP-SCF GRID
-----------

General Integration Accuracy     IntAcc      ... 3.467
Radial Grid Type                 RadialGrid  ... OptM3 with GC (2021)
Angular Grid (max. ang.)         AngularGrid ... 1 (Lebedev-50)
Angular grid pruning method      GridPruning ... 4 (adaptive)
Weight generation scheme         WeightScheme... Becke
Basis function cutoff            BFCut       ... 1.0000e-10
Integration weight cutoff        WCut        ... 1.0000e-14
Angular grids for H and He will be reduced by one unit
Partially contracted basis set               ... off
Rotationally invariant grid construction     ... off

Total number of grid points                  ...    29724
Total number of batches                      ...      486
Average number of points per batch           ...       61
Average number of grid points per atom       ...      619

CP-SCF GRIDX
------------

General Integration Accuracy     IntAcc      ... 3.067
Radial Grid Type                 RadialGrid  ... OptM3 with GC (2021)
Angular Grid (max. ang.)         AngularGrid ... 1 (Lebedev-50)
Angular grid pruning method      GridPruning ... 4 (adaptive)
Weight generation scheme         WeightScheme... Becke
Basis function cutoff            BFCut       ... 1.0000e-10
Integration weight cutoff        WCut        ... 1.0000e-14
Angular grids for H and He will be reduced by one unit
Partially contracted basis set               ... on
Rotationally invariant grid construction     ... off

Total number of grid points                  ...    14089
Total number of batches                      ...      249
Average number of points per batch           ...       56
Average number of grid points per atom       ...      294

Memory available               ... 886.0 MB
Memory needed per perturbation ...  11.6 MB
Perturbations treated per batch... 3
Number of batches              ... 1
     CP-SCF ITERATION   0:   1.0100e-01 (   1.6 sec   0/  3 done)
     CP-SCF ITERATION   1:   1.5655e-03 (   1.6 sec   2/  3 done)
     CP-SCF ITERATION   2:   8.4332e-05 (   1.0 sec   3/  3 done)
                    *** THE CP-SCF HAS CONVERGED ***

Forming final perturbed densities           ... done
Transforming perturbed density to AO basis  ... done

 Raw HFC matrix (all values in MHz): 
 -----------------------------------
                 0.0005               0.0651               0.0013
                 0.0651               0.0460               0.0018
                 0.0013               0.0018              -0.0465

 A(FC)          -0.0000              -0.0000              -0.0000
 A(SD)          -0.0457              -0.0466               0.0923
 A(ORB+DIA)      0.0000               0.0000               0.0000    A(PC) =   0.0000
 A(ORB)          0.0000              -0.0000               0.0000    A(PC) =  -0.0000
 A(DIA)          0.0000               0.0000               0.0000    A(PC) =   0.0000
             ----------           ----------           ----------
 A(Tot)         -0.0457              -0.0466               0.0923    A(iso)=    0.0000
 Orientation: 
  X           0.8154757            0.0070562            0.5787484
  Y          -0.5787863            0.0141264            0.8153569
  Z          -0.0024223           -0.9998753            0.0156038

Notes:  (1) The A matrix conforms to the "SAI" spin Hamiltonian convention.
        (2) Tensor is right-handed.

 -----------------------------------------------------------
 Nucleus  46H : A:ISTP=    1 I=  0.5 P=533.5514 MHz/au**3
                Q:ISTP=    2 I=  1.0 Q=  0.0029 barn     
 -----------------------------------------------------------
 Solving for nuclear perturbation:
Forming RHS of the CP-SCF equations         ... 
Calc. nucleus orbit integrals (SHARK)       ... done

------------------------------------------------------------------------------
                           ORCA CP-SCF CALCULATION
------------------------------------------------------------------------------

Input orbitals are from        ... cc-pVDZ_i.gbw
Input Perturbation             ... cc-pVDZ_i.pin.tmp
Wavefunction output            ... cc-pVDZ_i.pout.tmp
Perturbation mode              ... Imaginary perturbation
Solver                         ... POPLE
Max. number of iterations      ... 64
Convergence tolerance          ... 1.000e-03
Integral handling              ... Direct
DFT GridXC                     ... 1
COSX GridX                     ... 1
COSX IntAccX                   ... 3.067
COSX Algorithm                 ... Auto
Number of perturbations        ... 3
Number of operators            ... 2
Orbital ranges used for CP-SCF:
 Operator 0:  Orbitals   0... 76  to  77...428
 Operator 1:  Orbitals   0... 75  to  76...428
Variables per perturbation     ... 53932
DFT calculation                         ... on
XC functional terms                     ... off
Hybrid DFT                              ... on
   Exchange mixing (SCF)                ...  0.200
   Exchange mixing (CP-SCF)             ...  0.200
   GGA exch. scaling(SCF)               ...  0.720
   GGA exch. scaling (CP-SCF)           ...  0.720
   GGA corr. scaling (SCF)              ...  0.810
   GGA corr. scaling (CP-SCF)           ...  0.810

CP-SCF GRID
-----------

General Integration Accuracy     IntAcc      ... 3.467
Radial Grid Type                 RadialGrid  ... OptM3 with GC (2021)
Angular Grid (max. ang.)         AngularGrid ... 1 (Lebedev-50)
Angular grid pruning method      GridPruning ... 4 (adaptive)
Weight generation scheme         WeightScheme... Becke
Basis function cutoff            BFCut       ... 1.0000e-10
Integration weight cutoff        WCut        ... 1.0000e-14
Angular grids for H and He will be reduced by one unit
Partially contracted basis set               ... off
Rotationally invariant grid construction     ... off

Total number of grid points                  ...    29724
Total number of batches                      ...      486
Average number of points per batch           ...       61
Average number of grid points per atom       ...      619

CP-SCF GRIDX
------------

General Integration Accuracy     IntAcc      ... 3.067
Radial Grid Type                 RadialGrid  ... OptM3 with GC (2021)
Angular Grid (max. ang.)         AngularGrid ... 1 (Lebedev-50)
Angular grid pruning method      GridPruning ... 4 (adaptive)
Weight generation scheme         WeightScheme... Becke
Basis function cutoff            BFCut       ... 1.0000e-10
Integration weight cutoff        WCut        ... 1.0000e-14
Angular grids for H and He will be reduced by one unit
Partially contracted basis set               ... on
Rotationally invariant grid construction     ... off

Total number of grid points                  ...    14089
Total number of batches                      ...      249
Average number of points per batch           ...       56
Average number of grid points per atom       ...      294

Memory available               ... 885.5 MB
Memory needed per perturbation ...  11.6 MB
Perturbations treated per batch... 3
Number of batches              ... 1
     CP-SCF ITERATION   0:   1.0101e-01 (   1.6 sec   0/  3 done)
     CP-SCF ITERATION   1:   1.5688e-03 (   1.5 sec   2/  3 done)
     CP-SCF ITERATION   2:   8.4387e-05 (   1.0 sec   3/  3 done)
                    *** THE CP-SCF HAS CONVERGED ***

Forming final perturbed densities           ... done
Transforming perturbed density to AO basis  ... done

 Raw HFC matrix (all values in MHz): 
 -----------------------------------
                -0.0438              -0.0590              -0.0009
                -0.0590               0.1098               0.0026
                -0.0009               0.0026              -0.0653

 A(FC)           0.0002               0.0002               0.0002
 A(SD)          -0.0641              -0.0656               0.1297
 A(ORB+DIA)      0.0000               0.0000               0.0000    A(PC) =   0.0000
 A(ORB)         -0.0000              -0.0000               0.0000    A(PC) =  -0.0000
 A(DIA)          0.0000               0.0000               0.0000    A(PC) =   0.0000
             ----------           ----------           ----------
 A(Tot)         -0.0639              -0.0654               0.1299    A(iso)=    0.0002
 Orientation: 
  X           0.9469256            0.0036846           -0.3214317
  Y           0.3213350            0.0162289            0.9468265
  Z           0.0087051           -0.9998615            0.0141836

Notes:  (1) The A matrix conforms to the "SAI" spin Hamiltonian convention.
        (2) Tensor is right-handed.

 -----------------------------------------------------------
 Nucleus  47H : A:ISTP=    1 I=  0.5 P=533.5514 MHz/au**3
                Q:ISTP=    2 I=  1.0 Q=  0.0029 barn     
 -----------------------------------------------------------
 Solving for nuclear perturbation:
Forming RHS of the CP-SCF equations         ... 
Calc. nucleus orbit integrals (SHARK)       ... done

------------------------------------------------------------------------------
                           ORCA CP-SCF CALCULATION
------------------------------------------------------------------------------

Input orbitals are from        ... cc-pVDZ_i.gbw
Input Perturbation             ... cc-pVDZ_i.pin.tmp
Wavefunction output            ... cc-pVDZ_i.pout.tmp
Perturbation mode              ... Imaginary perturbation
Solver                         ... POPLE
Max. number of iterations      ... 64
Convergence tolerance          ... 1.000e-03
Integral handling              ... Direct
DFT GridXC                     ... 1
COSX GridX                     ... 1
COSX IntAccX                   ... 3.067
COSX Algorithm                 ... Auto
Number of perturbations        ... 3
Number of operators            ... 2
Orbital ranges used for CP-SCF:
 Operator 0:  Orbitals   0... 76  to  77...428
 Operator 1:  Orbitals   0... 75  to  76...428
Variables per perturbation     ... 53932
DFT calculation                         ... on
XC functional terms                     ... off
Hybrid DFT                              ... on
   Exchange mixing (SCF)                ...  0.200
   Exchange mixing (CP-SCF)             ...  0.200
   GGA exch. scaling(SCF)               ...  0.720
   GGA exch. scaling (CP-SCF)           ...  0.720
   GGA corr. scaling (SCF)              ...  0.810
   GGA corr. scaling (CP-SCF)           ...  0.810

CP-SCF GRID
-----------

General Integration Accuracy     IntAcc      ... 3.467
Radial Grid Type                 RadialGrid  ... OptM3 with GC (2021)
Angular Grid (max. ang.)         AngularGrid ... 1 (Lebedev-50)
Angular grid pruning method      GridPruning ... 4 (adaptive)
Weight generation scheme         WeightScheme... Becke
Basis function cutoff            BFCut       ... 1.0000e-10
Integration weight cutoff        WCut        ... 1.0000e-14
Angular grids for H and He will be reduced by one unit
Partially contracted basis set               ... off
Rotationally invariant grid construction     ... off

Total number of grid points                  ...    29724
Total number of batches                      ...      486
Average number of points per batch           ...       61
Average number of grid points per atom       ...      619

CP-SCF GRIDX
------------

General Integration Accuracy     IntAcc      ... 3.067
Radial Grid Type                 RadialGrid  ... OptM3 with GC (2021)
Angular Grid (max. ang.)         AngularGrid ... 1 (Lebedev-50)
Angular grid pruning method      GridPruning ... 4 (adaptive)
Weight generation scheme         WeightScheme... Becke
Basis function cutoff            BFCut       ... 1.0000e-10
Integration weight cutoff        WCut        ... 1.0000e-14
Angular grids for H and He will be reduced by one unit
Partially contracted basis set               ... on
Rotationally invariant grid construction     ... off

Total number of grid points                  ...    14089
Total number of batches                      ...      249
Average number of points per batch           ...       56
Average number of grid points per atom       ...      294

Memory available               ... 885.0 MB
Memory needed per perturbation ...  11.6 MB
Perturbations treated per batch... 3
Number of batches              ... 1
     CP-SCF ITERATION   0:   3.6635e-02 (   1.6 sec   0/  3 done)
     CP-SCF ITERATION   1:   6.3007e-04 (   1.6 sec   3/  3 done)
                    *** THE CP-SCF HAS CONVERGED ***

Forming final perturbed densities           ... done
Transforming perturbed density to AO basis  ... done

 Raw HFC matrix (all values in MHz): 
 -----------------------------------
                -0.0130               0.0081               0.0002
                 0.0081               0.0277               0.0008
                 0.0002               0.0008              -0.0146

 A(FC)           0.0000               0.0000               0.0000
 A(SD)          -0.0146              -0.0147               0.0293
 A(ORB+DIA)      0.0000               0.0000               0.0000    A(PC) =   0.0000
 A(ORB)         -0.0000              -0.0000               0.0000    A(PC) =  -0.0000
 A(DIA)          0.0000               0.0000               0.0000    A(PC) =   0.0000
             ----------           ----------           ----------
 A(Tot)         -0.0146              -0.0146               0.0293    A(iso)=    0.0000
 Orientation: 
  X           0.9821092            0.0107246            0.1880065
  Y          -0.1881681            0.0168515            0.9819923
  Z           0.0073633           -0.9998005            0.0185680

Notes:  (1) The A matrix conforms to the "SAI" spin Hamiltonian convention.
        (2) Tensor is right-handed.


--------------------------------------------------------------------------------
----------------------------------------------------------------------------
                           ORCA EULER ANGLE PROGRAM
----------------------------------------------------------------------------

Only g-tensor available        -->  using g-tensor as reference tensor

Reference tensor               ...  g

g-tensor ordering              ...  |g_min> --> |gx>
                                    |g_mid> --> |gy>
                                    |g_max> --> |gz>

A- and EFG-tensor ordering     ...  the axes |Ax>, |Qx>, |Ay>, etc. are assigned
                                    such that the Euler rotation is minimal. You
                                    can find the respective eigenvalues as Ax,
                                    EFGx, Ay, etc. in the tables below.
                                    The relation of |Ax>, |Ay>,  etc. to Amin, Amid, etc.
                                    (as printed in the ORCA EPR/NMR CALCULATION Output)
                                    is obtained in the detailed printout.

Euler rotation around          ...  z - y - z
   First rotation              -->  by alpha around z
   Second rotation             -->  by beta around y'
   Third rotation              -->  by gamma around z''
   Positive / Negative angle   -->  clockwise / counterclockwise rotation

Plot EFG-tensors                    (-)
Plot HFC-tensors                    (-)
Detailed Printout                   (-)

-------------------------------------------------------------------------
          Euler rotation of hyperfine tensor to g-tensor
-------------------------------------------------------------------------

-------------------------------------------------------------------
 Atom  |   Alpha    Beta    Gamma   |   Ax       Ay       Az 
       |          [degrees]         |           [MHz]         
-------------------------------------------------------------------
  9H     -128.3      0.8     96.5      -0.04     0.10    -0.04
 10H     -116.1      1.1    104.6      -0.14     0.28    -0.15
 12H       35.2      5.4    -51.4      -0.04     0.07    -0.04
 13H     -135.3      6.7    119.1      -0.04     0.07    -0.04
 15H       42.9      4.5    -69.3      -0.03     0.06    -0.03
 16H     -131.2      5.9    104.7      -0.03     0.06    -0.03
 18H     -144.0      6.9    125.2      -0.02     0.04    -0.02
 19H       26.3      5.8    -45.1      -0.02     0.04    -0.02
 21H     -111.6      4.0     84.3      -0.02     0.03    -0.02
 22H       71.8      2.6    -99.2      -0.02     0.03    -0.02
 24H      -16.5     33.7    -26.3      -0.19     0.38    -0.22
 25H      166.4     34.2    151.3      -0.19     0.38    -0.22
 27H       17.0     41.6    -27.2      -0.35     0.58    -0.47
 28H     -160.7     42.3    151.0      -0.35     0.58    -0.47
 30H       61.8     33.5    -20.8       1.52    -0.36    -0.59
 31H     -115.3     34.1    156.7       1.52    -0.36    -0.59
 33H     -153.2     43.8    156.7      -1.28     1.85    -2.16
 34H       24.4     43.2    -21.5      -1.28     1.85    -2.16
 36H     -137.6     41.2    160.3       4.15    -5.54    -8.96
 37H       39.9     40.7    -17.8       4.15    -5.54    -8.96
 39H      140.4     36.4   -135.5      23.99    37.85    23.54
 40H      -41.4     37.7     45.9      24.14    38.01    23.70
 42H      -96.1     31.6    101.6     -59.36   -96.44   -18.21
 43H       83.1     30.0    -77.8     -59.37   -96.45   -18.21
 45H      -92.3      1.0     93.5      -0.05     0.09    -0.05
 46H      -69.4      1.0    106.5       0.13    -0.06    -0.07
 47H     -111.0      0.7     87.7      -0.01     0.03    -0.01
-------------------------------------------------------------------


Maximum memory used throughout the entire EPRNMR-calculation: 199.5 MB

Timings for individual modules:

Sum of individual times         ...     4143.929 sec (=  69.065 min)
GTO integral calculation        ...        4.524 sec (=   0.075 min)   0.1 %
Spin-Orbit-Coupling Matrices    ...        8.501 sec (=   0.142 min)   0.2 %
SCF iterations                  ...       75.634 sec (=   1.261 min)   1.8 %
EPR/NMR calculation             ...     4055.270 sec (=  67.588 min)  97.9 %
                             ****ORCA TERMINATED NORMALLY****
TOTAL RUN TIME: 0 days 1 hours 9 minutes 8 seconds 48 msec
