
                                 *****************
                                 * O   R   C   A *
                                 *****************

                                            #,                                       
                                            ###                                      
                                            ####                                     
                                            #####                                    
                                            ######                                   
                                           ########,                                 
                                     ,,################,,,,,                         
                               ,,#################################,,                 
                          ,,##########################################,,             
                       ,#########################################, ''#####,          
                    ,#############################################,,   '####,        
                  ,##################################################,,,,####,       
                ,###########''''           ''''###############################       
              ,#####''   ,,,,##########,,,,          '''####'''          '####       
            ,##' ,,,,###########################,,,                        '##       
           ' ,,###''''                  '''############,,,                           
         ,,##''                                '''############,,,,        ,,,,,,###''
      ,#''                                            '''#######################'''  
     '                                                          ''''####''''         
             ,#######,   #######,   ,#######,      ##                                
            ,#'     '#,  ##    ##  ,#'     '#,    #''#        ######   ,####,        
            ##       ##  ##   ,#'  ##            #'  '#       #        #'  '#        
            ##       ##  #######   ##           ,######,      #####,   #    #        
            '#,     ,#'  ##    ##  '#,     ,#' ,#      #,         ##   #,  ,#        
             '#######'   ##     ##  '#######'  #'      '#     #####' # '####'        



                  #######################################################
                  #                        -***-                        #
                  #          Department of theory and spectroscopy      #
                  #    Directorship and core code : Frank Neese         #
                  #        Max Planck Institute fuer Kohlenforschung    #
                  #                Kaiser Wilhelm Platz 1               #
                  #                 D-45470 Muelheim/Ruhr               #
                  #                      Germany                        #
                  #                                                     #
                  #                  All rights reserved                #
                  #                        -***-                        #
                  #######################################################


                         Program Version 5.0.4 -  RELEASE  -


 With contributions from (in alphabetic order):
   Daniel Aravena         : Magnetic Suceptibility
   Michael Atanasov       : Ab Initio Ligand Field Theory (pilot matlab implementation)
   Alexander A. Auer      : GIAO ZORA, VPT2 properties, NMR spectrum
   Ute Becker             : Parallelization
   Giovanni Bistoni       : ED, misc. LED, open-shell LED, HFLD
   Martin Brehm           : Molecular dynamics
   Dmytro Bykov           : SCF Hessian
   Vijay G. Chilkuri      : MRCI spin determinant printing, contributions to CSF-ICE
   Dipayan Datta          : RHF DLPNO-CCSD density
   Achintya Kumar Dutta   : EOM-CC, STEOM-CC
   Dmitry Ganyushin       : Spin-Orbit,Spin-Spin,Magnetic field MRCI
   Miquel Garcia          : C-PCM and meta-GGA Hessian, CC/C-PCM, Gaussian charge scheme
   Yang Guo               : DLPNO-NEVPT2, F12-NEVPT2, CIM, IAO-localization
   Andreas Hansen         : Spin unrestricted coupled pair/coupled cluster methods
   Benjamin Helmich-Paris : MC-RPA, TRAH-SCF, COSX integrals
   Lee Huntington         : MR-EOM, pCC
   Robert Izsak           : Overlap fitted RIJCOSX, COSX-SCS-MP3, EOM
   Marcus Kettner         : VPT2
   Christian Kollmar      : KDIIS, OOCD, Brueckner-CCSD(T), CCSD density, CASPT2, CASPT2-K
   Simone Kossmann        : Meta GGA functionals, TD-DFT gradient, OOMP2, MP2 Hessian
   Martin Krupicka        : Initial AUTO-CI
   Lucas Lang             : DCDCAS
   Marvin Lechner         : AUTO-CI (C++ implementation), FIC-MRCC
   Dagmar Lenk            : GEPOL surface, SMD
   Dimitrios Liakos       : Extrapolation schemes; Compound Job, initial MDCI parallelization
   Dimitrios Manganas     : Further ROCIS development; embedding schemes
   Dimitrios Pantazis     : SARC Basis sets
   Anastasios Papadopoulos: AUTO-CI, single reference methods and gradients
   Taras Petrenko         : DFT Hessian,TD-DFT gradient, ASA, ECA, R-Raman, ABS, FL, XAS/XES, NRVS
   Peter Pinski           : DLPNO-MP2, DLPNO-MP2 Gradient
   Christoph Reimann      : Effective Core Potentials
   Marius Retegan         : Local ZFS, SOC
   Christoph Riplinger    : Optimizer, TS searches, QM/MM, DLPNO-CCSD(T), (RO)-DLPNO pert. Triples
   Tobias Risthaus        : Range-separated hybrids, TD-DFT gradient, RPA, STAB
   Michael Roemelt        : Original ROCIS implementation
   Masaaki Saitow         : Open-shell DLPNO-CCSD energy and density
   Barbara Sandhoefer     : DKH picture change effects
   Avijit Sen             : IP-ROCIS
   Kantharuban Sivalingam : CASSCF convergence, NEVPT2, FIC-MRCI
   Bernardo de Souza      : ESD, SOC TD-DFT
   Georgi Stoychev        : AutoAux, RI-MP2 NMR, DLPNO-MP2 response
   Willem Van den Heuvel  : Paramagnetic NMR
   Boris Wezisla          : Elementary symmetry handling
   Frank Wennmohs         : Technical directorship


 We gratefully acknowledge several colleagues who have allowed us to
 interface, adapt or use parts of their codes:
   Stefan Grimme, W. Hujo, H. Kruse, P. Pracht,  : VdW corrections, initial TS optimization,
                  C. Bannwarth, S. Ehlert          DFT functionals, gCP, sTDA/sTD-DF
   Ed Valeev, F. Pavosevic, A. Kumar             : LibInt (2-el integral package), F12 methods
   Garnet Chan, S. Sharma, J. Yang, R. Olivares  : DMRG
   Ulf Ekstrom                                   : XCFun DFT Library
   Mihaly Kallay                                 : mrcc  (arbitrary order and MRCC methods)
   Jiri Pittner, Ondrej Demel                    : Mk-CCSD
   Frank Weinhold                                : gennbo (NPA and NBO analysis)
   Christopher J. Cramer and Donald G. Truhlar   : smd solvation model
   Lars Goerigk                                  : TD-DFT with DH, B97 family of functionals
   V. Asgeirsson, H. Jonsson                     : NEB implementation
   FAccTs GmbH                                   : IRC, NEB, NEB-TS, DLPNO-Multilevel, CI-OPT
                                                   MM, QMMM, 2- and 3-layer-ONIOM, Crystal-QMMM,
                                                   LR-CPCM, SF, NACMEs, symmetry and pop. for TD-DFT,
                                                   nearIR, NL-DFT gradient (VV10), updates on ESD,
                                                   ML-optimized integration grids
   S Lehtola, MJT Oliveira, MAL Marques          : LibXC Library
   Liviu Ungur et al                             : ANISO software


 Your calculation uses the libint2 library for the computation of 2-el integrals
 For citations please refer to: http://libint.valeyev.net

 Your ORCA version has been built with support for libXC version: 5.1.0
 For citations please refer to: https://tddft.org/programs/libxc/

 This ORCA versions uses:
   CBLAS   interface :  Fast vector & matrix operations
   LAPACKE interface :  Fast linear algebra routines
   SCALAPACK package :  Parallel linear algebra routines
   Shared memory     :  Shared parallel matrices
   BLAS/LAPACK       :  OpenBLAS 0.3.15  USE64BITINT DYNAMIC_ARCH NO_AFFINITY SkylakeX SINGLE_THREADED
        Core in use  :  SkylakeX
   Copyright (c) 2011-2014, The OpenBLAS Project




***************************************
The coordinates will be read from file: opt.xyz
***************************************


================================================================================

----- Orbital basis set information -----
Your calculation utilizes the basis: cc-pVDZ 
       H, B-Ne : Obtained from the ccRepo (grant-hill.group.shef.ac.uk/ccrepo) Feb. 2017
                 T. H. Dunning, Jr., J. Chem. Phys. 90, 1007 (1989)
            He : Obtained from the ccRepo (grant-hill.group.shef.ac.uk/ccrepo) Feb. 2017
                 D. E. Woon, T. H. Dunning, Jr., J. Chem. Phys. 100, 2975 (1994)
  Li-Be, Na-Mg : Obtained from the ccRepo (grant-hill.group.shef.ac.uk/ccrepo) Feb. 2017
                 B. P. Prascher, D. E. Woon, K. A. Peterson, T. H. Dunning, Jr., A. K. Wilson, Theor. Chem. Acc. 128, 69 (2011)
         Al-Ar : Obtained from the ccRepo (grant-hill.group.shef.ac.uk/ccrepo) Feb. 2017
                 D. E. Woon, T. H. Dunning, Jr., J. Chem. Phys. 98, 1358 (1993)
            Ca : Obtained from the Peterson Research Group Website (tyr0.chem.wsu.edu/~kipeters) Feb. 2017
                 J. Koput, K. A. Peterson, J. Phys. Chem. 106, 9595 (2002)
         Sc-Zn : Obtained from the ccRepo (grant-hill.group.shef.ac.uk/ccrepo) Feb. 2017
                 N. B. Balabanov, K. A. Peterson, J. Chem. Phys. 123, 064107 (2005)
                 N. B. Balabanov, K. A. Peterson, J. Chem. Phys. 125, 074110 (2006)
         Ga-Kr : Obtained from the ccRepo (grant-hill.group.shef.ac.uk/ccrepo) Feb. 2017
                 A. K. Wilson, D. E. Woon, K. A. Peterson, T. H. Dunning, Jr., J. Chem. Phys. 110, 7667 (1999)

----- AuxJ basis set information -----
Your calculation utilizes the AutoAux generation procedure.
  G. L. Stoychev, A. A. Auer, F. Neese, J. Chem. Theory Comput. 13, 554 (2017)

----- AuxC basis set information -----
Your calculation utilizes the AutoAux generation procedure.
  G. L. Stoychev, A. A. Auer, F. Neese, J. Chem. Theory Comput. 13, 554 (2017)

----- AuxJK basis set information -----
Your calculation utilizes the AutoAux generation procedure.
  G. L. Stoychev, A. A. Auer, F. Neese, J. Chem. Theory Comput. 13, 554 (2017)

================================================================================
                                        WARNINGS
                       Please study these warnings very carefully!
================================================================================

WARNING: Old DensityContainer found on disk!
         Will remove this file - 
         If you want to keep old densities, please start your calculation with a different basename. 


WARNING: your system is open-shell and RHF/RKS was chosen
  ===> : WILL SWITCH to UHF/UKS


INFO   : the flag for use of the SHARK integral package has been found!

================================================================================
                                       INPUT FILE
================================================================================
NAME = cc-pVDZ.inp
|  1> ! B3LYP cc-pVDZ AUTOAUX
|  2> %pal nprocs 16 end
|  3> *XYZFile 0 2 opt.xyz
|  4> %EPRNMR
|  5>         GTENSOR   TRUE
|  6>         NUCLEI    = ALL H {SHIFT, AISO, ADIP, AORB}
|  7>         ORI       CenterOfElCharge
|  8> END
|  9> 
| 10>                          ****END OF INPUT****
================================================================================

                       ****************************
                       * Single Point Calculation *
                       ****************************

---------------------------------
CARTESIAN COORDINATES (ANGSTROEM)
---------------------------------
  C     -4.033095    0.125995   -0.120550
  C     -2.818554    0.064283   -0.113733
  C      2.844701   -0.087698   -0.094014
  C     -1.387308    0.001670   -0.109120
  C     -0.717415   -1.248577   -0.131387
  C      0.677891   -1.227304   -0.125201
  C      1.413450   -0.025455   -0.098238
  C      0.743520    1.224786   -0.076040
  C     -0.651774    1.203497   -0.082207
  H      1.237515   -2.162251   -0.141592
  H     -1.211574    2.138326   -0.066066
  C     -1.519082   -2.535740   -0.160319
  H     -2.193391   -2.502424   -1.035822
  H     -2.198917   -2.538057    0.711570
  C     -0.725170   -3.844428   -0.184263
  H     -0.057419   -3.863303   -1.065313
  H     -0.067448   -3.901298    0.702698
  C     -1.630154   -5.082043   -0.216172
  H     -2.302557   -5.063679    0.661573
  H     -2.289170   -5.027876   -1.102556
  C     -0.849650   -6.398680   -0.237162
  H     -0.209987   -6.499597    0.656655
  H     -0.192325   -6.460562   -1.121673
  C      1.544976    2.512262   -0.046310
  H      2.211265    2.483799    0.835489
  H      2.232417    2.510877   -0.912033
  C      0.748806    3.819980   -0.035637
  H      0.094974    3.867835   -0.925718
  H      0.077234    3.843479    0.842094
  C      1.650750    5.059985   -0.009203
  H      2.308780    5.015134    0.879125
  H      2.325397    5.040432   -0.885895
  C      0.871144    6.379748    0.002295
  H      0.196174    6.397851    0.879166
  H      0.212832    6.422731   -0.886310
  C      1.768137    7.622332    0.028249
  H      2.440869    7.614214   -0.849002
  H      2.424364    7.589422    0.917345
  C      0.965992    8.948773    0.039424
  H      0.313046    8.962787   -0.853435
  H      0.295262    8.937141    0.919053
  C      1.821040   10.171631    0.065838
  H      2.200965   10.570215    1.010891
  H      2.218733   10.598274   -0.859437
  C      4.059287   -0.148837   -0.092234
  H     -5.104117    0.181270   -0.124553
  H      5.130370   -0.203000   -0.089533
  H     -1.525743   -7.268664   -0.263008

----------------------------
CARTESIAN COORDINATES (A.U.)
----------------------------
  NO LB      ZA    FRAG     MASS         X           Y           Z
   0 C     6.0000    0    12.011   -7.621445    0.238096   -0.227806
   1 C     6.0000    0    12.011   -5.326295    0.121477   -0.214924
   2 C     6.0000    0    12.011    5.375707   -0.165726   -0.177661
   3 C     6.0000    0    12.011   -2.621633    0.003156   -0.206208
   4 C     6.0000    0    12.011   -1.355718   -2.359469   -0.248285
   5 C     6.0000    0    12.011    1.281028   -2.319269   -0.236597
   6 C     6.0000    0    12.011    2.671033   -0.048104   -0.185643
   7 C     6.0000    0    12.011    1.405050    2.314511   -0.143695
   8 C     6.0000    0    12.011   -1.231674    2.274280   -0.155348
   9 H     1.0000    0     1.008    2.338565   -4.086062   -0.267571
  10 H     1.0000    0     1.008   -2.289542    4.040851   -0.124848
  11 C     6.0000    0    12.011   -2.870649   -4.791855   -0.302959
  12 H     1.0000    0     1.008   -4.144908   -4.728896   -1.957419
  13 H     1.0000    0     1.008   -4.155351   -4.796233    1.344672
  14 C     6.0000    0    12.011   -1.370372   -7.264916   -0.348206
  15 H     1.0000    0     1.008   -0.108507   -7.300585   -2.013149
  16 H     1.0000    0     1.008   -0.127457   -7.372384    1.327906
  17 C     6.0000    0    12.011   -3.080545   -9.603669   -0.408505
  18 H     1.0000    0     1.008   -4.351202   -9.568967    1.250192
  19 H     1.0000    0     1.008   -4.325904   -9.501309   -2.083529
  20 C     6.0000    0    12.011   -1.605605  -12.091753   -0.448172
  21 H     1.0000    0     1.008   -0.396818  -12.282458    1.240898
  22 H     1.0000    0     1.008   -0.363442  -12.208692   -2.119655
  23 C     6.0000    0    12.011    2.919582    4.747487   -0.087513
  24 H     1.0000    0     1.008    4.178684    4.693700    1.578845
  25 H     1.0000    0     1.008    4.218658    4.744871   -1.723493
  26 C     6.0000    0    12.011    1.415038    7.218715   -0.067345
  27 H     1.0000    0     1.008    0.179475    7.309149   -1.749353
  28 H     1.0000    0     1.008    0.145950    7.263122    1.591328
  29 C     6.0000    0    12.011    3.119466    9.561986   -0.017391
  30 H     1.0000    0     1.008    4.362961    9.477230    1.661306
  31 H     1.0000    0     1.008    4.394363    9.525036   -1.674099
  32 C     6.0000    0    12.011    1.646224   12.055976    0.004337
  33 H     1.0000    0     1.008    0.370715   12.090187    1.661383
  34 H     1.0000    0     1.008    0.402194   12.137203   -1.674883
  35 C     6.0000    0    12.011    3.341295   14.404120    0.053382
  36 H     1.0000    0     1.008    4.612574   14.388779   -1.604382
  37 H     1.0000    0     1.008    4.581384   14.341929    1.733531
  38 C     6.0000    0    12.011    1.825460   16.910729    0.074500
  39 H     1.0000    0     1.008    0.591572   16.937213   -1.612758
  40 H     1.0000    0     1.008    0.557964   16.888749    1.736758
  41 C     6.0000    0    12.011    3.441267   19.221597    0.124417
  42 H     1.0000    0     1.008    4.159221   19.974812    1.910308
  43 H     1.0000    0     1.008    4.192798   20.027834   -1.624101
  44 C     6.0000    0    12.011    7.670940   -0.281260   -0.174296
  45 H     1.0000    0     1.008   -9.645384    0.342550   -0.235371
  46 H     1.0000    0     1.008    9.694995   -0.383615   -0.169193
  47 H     1.0000    0     1.008   -2.883236  -13.735785   -0.497013

--------------------------------
INTERNAL COORDINATES (ANGSTROEM)
--------------------------------
 C      0   0   0     0.000000000000     0.00000000     0.00000000
 C      1   0   0     1.216126533425     0.00000000     0.00000000
 C      2   1   0     5.665328879189   178.62311323     0.00000000
 C      2   1   3     1.432622014091   179.57366667   346.36765878
 C      4   2   1     1.418580903656   120.67998894   199.85893781
 C      5   4   2     1.395481891878   117.30089220   180.00194210
 C      6   5   4     1.409331062043   122.33981991     0.00000000
 C      7   6   5     1.418591952718   120.35786033     0.00000000
 C      8   7   6     1.395469875603   117.30166258     0.00000000
 H      6   5   4     1.089758597975   120.02119069   179.99891363
 H      9   8   7     1.089744037995   120.03182786   180.01309598
 C      5   4   2     1.516672751091   119.91158003     0.00000000
 H     12   5   4     1.105579850259   108.17458873    56.23773308
 H     12   5   4     1.105608617036   108.16474260   303.64915849
 C     12   5   4     1.530860730586   116.85196988   179.95762620
 H     15  12   5     1.105665231667   109.89277517   301.89163176
 H     15  12   5     1.105681392118   109.87190177    58.40315050
 C     15  12   5     1.533526994534   112.59361507   180.14702054
 H     18  15  12     1.105847616516   109.20256463   302.48799365
 H     18  15  12     1.105854061265   109.19764228    57.79198366
 C     18  15  12     1.530739018735   113.17514602   180.13028485
 H     21  18  15     1.103748723839   111.28677580    60.02761689
 H     21  18  15     1.103750210883   111.27649423   300.30992875
 C      8   7   6     1.516841639996   119.92338399   179.96555595
 H     24   8   7     1.105585561708   108.19229282   303.17569237
 H     24   8   7     1.105465601363   108.18939608    55.80527247
 C     24   8   7     1.531054090402   116.76610637   179.49268478
 H     27  24   8     1.105454019405   109.81171929   301.92355081
 H     27  24   8     1.105429445798   109.85323597    58.37606105
 C     27  24   8     1.533563296303   112.63818716   180.15281981
 H     30  27  24     1.106409320032   109.32050156   302.31893984
 H     30  27  24     1.106399094548   109.30995567    57.73499914
 C     30  27  24     1.532869910717   113.40155910   180.02000813
 H     33  30  27     1.106713810006   109.28156324    57.69433825
 H     33  30  27     1.106725444466   109.26524721   302.33004611
 C     33  30  27     1.532737960493   113.60794831   180.01918290
 H     36  33  30     1.105532988879   109.67754542    58.04715616
 H     36  33  30     1.105535900967   109.68583839   301.93781246
 C     36  33  30     1.550163098883   113.01602217   179.99164143
 H     39  36  33     1.106223899969   108.08638156   302.50867140
 H     39  36  33     1.106237562865   108.08810700    57.40717091
 C     39  36  33     1.492376628128   113.87849646   179.95243980
 H     42  39  36     1.093772115972   120.85769729   275.06607383
 H     42  39  36     1.093763237714   120.86205473    85.02102555
 C      3   2   1     1.216124220326   178.65063847   189.98545716
 H      1   2   4     1.072455534972   179.88341160   274.34196710
 H     45   3   7     1.072455866565   179.93817679   270.13232413
 H     21  18  15     1.102108103087   111.50000175   180.17420782

---------------------------
INTERNAL COORDINATES (A.U.)
---------------------------
 C      0   0   0     0.000000000000     0.00000000     0.00000000
 C      1   0   0     2.298146092369     0.00000000     0.00000000
 C      2   1   0    10.705920040262   178.62311323     0.00000000
 C      2   1   3     2.707263260058   179.57366667   346.36765878
 C      4   2   1     2.680729406720   120.67998894   199.85893781
 C      5   4   2     2.637078600496   117.30089220   180.00194210
 C      6   5   4     2.663249739289   122.33981991     0.00000000
 C      7   6   5     2.680750286421   120.35786033     0.00000000
 C      8   7   6     2.637055893027   117.30166258     0.00000000
 H      6   5   4     2.059345302259   120.02119069   179.99891363
 H      9   8   7     2.059317787884   120.03182786   180.01309598
 C      5   4   2     2.866096134343   119.91158003     0.00000000
 H     12   5   4     2.089243136171   108.17458873    56.23773308
 H     12   5   4     2.089297497502   108.16474260   303.64915849
 C     12   5   4     2.892907529982   116.85196988   179.95762620
 H     15  12   5     2.089404483649   109.89277517   301.89163176
 H     15  12   5     2.089435022476   109.87190177    58.40315050
 C     15  12   5     2.897946038645   112.59361507   180.14702054
 H     18  15  12     2.089749141065   109.20256463   302.48799365
 H     18  15  12     2.089761319875   109.19764228    57.79198366
 C     18  15  12     2.892677527916   113.17514602   180.13028485
 H     21  18  15     2.085782808721   111.28677580    60.02761689
 H     21  18  15     2.085785618826   111.27649423   300.30992875
 C      8   7   6     2.866415288121   119.92338399   179.96555595
 H     24   8   7     2.089253929245   108.19229282   303.17569237
 H     24   8   7     2.089027237047   108.18939608    55.80527247
 C     24   8   7     2.893272927080   116.76610637   179.49268478
 H     27  24   8     2.089005350317   109.81171929   301.92355081
 H     27  24   8     2.088958912930   109.85323597    58.37606105
 C     27  24   8     2.898014639047   112.63818716   180.15281981
 H     30  27  24     2.090810606878   109.32050156   302.31893984
 H     30  27  24     2.090791283514   109.30995567    57.73499914
 C     30  27  24     2.896704330183   113.40155910   180.02000813
 H     33  30  27     2.091386009539   109.28156324    57.69433825
 H     33  30  27     2.091407995484   109.26524721   302.33004611
 C     33  30  27     2.896454980396   113.60794831   180.01918290
 H     36  33  30     2.089154580996   109.67754542    58.04715616
 H     36  33  30     2.089160084045   109.68583839   301.93781246
 C     36  33  30     2.929383719800   113.01602217   179.99164143
 H     39  36  33     2.090460213740   108.08638156   302.50867140
 H     39  36  33     2.090486032872   108.08810700    57.40717091
 C     39  36  33     2.820183115826   113.87849646   179.95243980
 H     42  39  36     2.066929752106   120.85769729   275.06607383
 H     42  39  36     2.066912974631   120.86205473    85.02102555
 C      3   2   1     2.298141721245   178.65063847   189.98545716
 H      1   2   4     2.026647251906   179.88341160   274.34196710
 H     45   3   7     2.026647878524   179.93817679   270.13232413
 H     21  18  15     2.082682484811   111.50000175   180.17420782

---------------------
BASIS SET INFORMATION
---------------------
There are 2 groups of distinct atoms

 Group   1 Type C   : 17s4p1d contracted to 3s2p1d pattern {881/31/1}
 Group   2 Type H   : 4s1p contracted to 2s1p pattern {31/1}

Atom   0C    basis set group =>   1
Atom   1C    basis set group =>   1
Atom   2C    basis set group =>   1
Atom   3C    basis set group =>   1
Atom   4C    basis set group =>   1
Atom   5C    basis set group =>   1
Atom   6C    basis set group =>   1
Atom   7C    basis set group =>   1
Atom   8C    basis set group =>   1
Atom   9H    basis set group =>   2
Atom  10H    basis set group =>   2
Atom  11C    basis set group =>   1
Atom  12H    basis set group =>   2
Atom  13H    basis set group =>   2
Atom  14C    basis set group =>   1
Atom  15H    basis set group =>   2
Atom  16H    basis set group =>   2
Atom  17C    basis set group =>   1
Atom  18H    basis set group =>   2
Atom  19H    basis set group =>   2
Atom  20C    basis set group =>   1
Atom  21H    basis set group =>   2
Atom  22H    basis set group =>   2
Atom  23C    basis set group =>   1
Atom  24H    basis set group =>   2
Atom  25H    basis set group =>   2
Atom  26C    basis set group =>   1
Atom  27H    basis set group =>   2
Atom  28H    basis set group =>   2
Atom  29C    basis set group =>   1
Atom  30H    basis set group =>   2
Atom  31H    basis set group =>   2
Atom  32C    basis set group =>   1
Atom  33H    basis set group =>   2
Atom  34H    basis set group =>   2
Atom  35C    basis set group =>   1
Atom  36H    basis set group =>   2
Atom  37H    basis set group =>   2
Atom  38C    basis set group =>   1
Atom  39H    basis set group =>   2
Atom  40H    basis set group =>   2
Atom  41C    basis set group =>   1
Atom  42H    basis set group =>   2
Atom  43H    basis set group =>   2
Atom  44C    basis set group =>   1
Atom  45H    basis set group =>   2
Atom  46H    basis set group =>   2
Atom  47H    basis set group =>   2
---------------------------------
AUXILIARY/J BASIS SET INFORMATION
---------------------------------
There are 2 groups of distinct atoms

 Group   1 Type C   : 14s11p10d2f contracted to 14s11p10d2f pattern {11111111111111/11111111111/1111111111/11}
 Group   2 Type H   : 9s2p1d contracted to 9s2p1d pattern {111111111/11/1}

Atom   0C    basis set group =>   1
Atom   1C    basis set group =>   1
Atom   2C    basis set group =>   1
Atom   3C    basis set group =>   1
Atom   4C    basis set group =>   1
Atom   5C    basis set group =>   1
Atom   6C    basis set group =>   1
Atom   7C    basis set group =>   1
Atom   8C    basis set group =>   1
Atom   9H    basis set group =>   2
Atom  10H    basis set group =>   2
Atom  11C    basis set group =>   1
Atom  12H    basis set group =>   2
Atom  13H    basis set group =>   2
Atom  14C    basis set group =>   1
Atom  15H    basis set group =>   2
Atom  16H    basis set group =>   2
Atom  17C    basis set group =>   1
Atom  18H    basis set group =>   2
Atom  19H    basis set group =>   2
Atom  20C    basis set group =>   1
Atom  21H    basis set group =>   2
Atom  22H    basis set group =>   2
Atom  23C    basis set group =>   1
Atom  24H    basis set group =>   2
Atom  25H    basis set group =>   2
Atom  26C    basis set group =>   1
Atom  27H    basis set group =>   2
Atom  28H    basis set group =>   2
Atom  29C    basis set group =>   1
Atom  30H    basis set group =>   2
Atom  31H    basis set group =>   2
Atom  32C    basis set group =>   1
Atom  33H    basis set group =>   2
Atom  34H    basis set group =>   2
Atom  35C    basis set group =>   1
Atom  36H    basis set group =>   2
Atom  37H    basis set group =>   2
Atom  38C    basis set group =>   1
Atom  39H    basis set group =>   2
Atom  40H    basis set group =>   2
Atom  41C    basis set group =>   1
Atom  42H    basis set group =>   2
Atom  43H    basis set group =>   2
Atom  44C    basis set group =>   1
Atom  45H    basis set group =>   2
Atom  46H    basis set group =>   2
Atom  47H    basis set group =>   2
---------------------------------
AUXILIARY/C BASIS SET INFORMATION
---------------------------------
There are 2 groups of distinct atoms

 Group   1 Type C   : 14s11p10d2f contracted to 14s11p10d2f pattern {11111111111111/11111111111/1111111111/11}
 Group   2 Type H   : 9s2p1d contracted to 9s2p1d pattern {111111111/11/1}

Atom   0C    basis set group =>   1
Atom   1C    basis set group =>   1
Atom   2C    basis set group =>   1
Atom   3C    basis set group =>   1
Atom   4C    basis set group =>   1
Atom   5C    basis set group =>   1
Atom   6C    basis set group =>   1
Atom   7C    basis set group =>   1
Atom   8C    basis set group =>   1
Atom   9H    basis set group =>   2
Atom  10H    basis set group =>   2
Atom  11C    basis set group =>   1
Atom  12H    basis set group =>   2
Atom  13H    basis set group =>   2
Atom  14C    basis set group =>   1
Atom  15H    basis set group =>   2
Atom  16H    basis set group =>   2
Atom  17C    basis set group =>   1
Atom  18H    basis set group =>   2
Atom  19H    basis set group =>   2
Atom  20C    basis set group =>   1
Atom  21H    basis set group =>   2
Atom  22H    basis set group =>   2
Atom  23C    basis set group =>   1
Atom  24H    basis set group =>   2
Atom  25H    basis set group =>   2
Atom  26C    basis set group =>   1
Atom  27H    basis set group =>   2
Atom  28H    basis set group =>   2
Atom  29C    basis set group =>   1
Atom  30H    basis set group =>   2
Atom  31H    basis set group =>   2
Atom  32C    basis set group =>   1
Atom  33H    basis set group =>   2
Atom  34H    basis set group =>   2
Atom  35C    basis set group =>   1
Atom  36H    basis set group =>   2
Atom  37H    basis set group =>   2
Atom  38C    basis set group =>   1
Atom  39H    basis set group =>   2
Atom  40H    basis set group =>   2
Atom  41C    basis set group =>   1
Atom  42H    basis set group =>   2
Atom  43H    basis set group =>   2
Atom  44C    basis set group =>   1
Atom  45H    basis set group =>   2
Atom  46H    basis set group =>   2
Atom  47H    basis set group =>   2
----------------------------------
AUXILIARY/JK BASIS SET INFORMATION
----------------------------------
There are 2 groups of distinct atoms

 Group   1 Type C   : 14s11p10d2f contracted to 14s11p10d2f pattern {11111111111111/11111111111/1111111111/11}
 Group   2 Type H   : 9s2p1d contracted to 9s2p1d pattern {111111111/11/1}

Atom   0C    basis set group =>   1
Atom   1C    basis set group =>   1
Atom   2C    basis set group =>   1
Atom   3C    basis set group =>   1
Atom   4C    basis set group =>   1
Atom   5C    basis set group =>   1
Atom   6C    basis set group =>   1
Atom   7C    basis set group =>   1
Atom   8C    basis set group =>   1
Atom   9H    basis set group =>   2
Atom  10H    basis set group =>   2
Atom  11C    basis set group =>   1
Atom  12H    basis set group =>   2
Atom  13H    basis set group =>   2
Atom  14C    basis set group =>   1
Atom  15H    basis set group =>   2
Atom  16H    basis set group =>   2
Atom  17C    basis set group =>   1
Atom  18H    basis set group =>   2
Atom  19H    basis set group =>   2
Atom  20C    basis set group =>   1
Atom  21H    basis set group =>   2
Atom  22H    basis set group =>   2
Atom  23C    basis set group =>   1
Atom  24H    basis set group =>   2
Atom  25H    basis set group =>   2
Atom  26C    basis set group =>   1
Atom  27H    basis set group =>   2
Atom  28H    basis set group =>   2
Atom  29C    basis set group =>   1
Atom  30H    basis set group =>   2
Atom  31H    basis set group =>   2
Atom  32C    basis set group =>   1
Atom  33H    basis set group =>   2
Atom  34H    basis set group =>   2
Atom  35C    basis set group =>   1
Atom  36H    basis set group =>   2
Atom  37H    basis set group =>   2
Atom  38C    basis set group =>   1
Atom  39H    basis set group =>   2
Atom  40H    basis set group =>   2
Atom  41C    basis set group =>   1
Atom  42H    basis set group =>   2
Atom  43H    basis set group =>   2
Atom  44C    basis set group =>   1
Atom  45H    basis set group =>   2
Atom  46H    basis set group =>   2
Atom  47H    basis set group =>   2

Checking for AutoStart:
The File: cc-pVDZ.gbw exists
Trying to determine its content:
     ... Fine, the file contains calculation information
     ... Fine, the calculation information was read
     ... Fine, the file contains a basis set
     ... Fine, the basis set was read
     ... Fine, the file contains a geometry
     ... Fine, the geometry was read
     ... Fine, the file contains a set of orbitals
     ... Fine, the orbitals can be read
     => possible old guess file was deleted
     => GBW file was renamed to GES file
     => GES file is set as startup file
     => Guess is set to MORead
     ... now leaving AutoStart



           ************************************************************
           *        Program running with 16 parallel MPI-processes    *
           *              working on a common directory               *
           ************************************************************
------------------------------------------------------------------------------
                           ORCA GTO INTEGRAL CALCULATION
                           -- RI-GTO INTEGRALS CHOSEN --
------------------------------------------------------------------------------
------------------------------------------------------------------------------
                   ___                                                        
                  /   \      - P O W E R E D   B Y -                         
                 /     \                                                     
                 |  |  |   _    _      __       _____    __    __             
                 |  |  |  | |  | |    /  \     |  _  \  |  |  /  |          
                  \  \/   | |  | |   /    \    | | | |  |  | /  /          
                 / \  \   | |__| |  /  /\  \   | |_| |  |  |/  /          
                |  |  |   |  __  | /  /__\  \  |    /   |      \           
                |  |  |   | |  | | |   __   |  |    \   |  |\   \          
                \     /   | |  | | |  |  |  |  | |\  \  |  | \   \       
                 \___/    |_|  |_| |__|  |__|  |_| \__\ |__|  \__/        
                                                                              
                      - O R C A' S   B I G   F R I E N D -                    
                                      &                                       
                       - I N T E G R A L  F E E D E R -                       
                                                                              
 v1 FN, 2020, v2 2021                                                         
------------------------------------------------------------------------------


Reading SHARK input file cc-pVDZ.SHARKINP.tmp ... ok
----------------------
SHARK INTEGRAL PACKAGE
----------------------

Number of atoms                             ...     48
Number of basis functions                   ...    555
Number of shells                            ...    333
Maximum angular momentum                    ...      2
Integral batch strategy                     ... SHARK/LIBINT Hybrid
RI-J (if used) integral strategy            ... SPLIT-RIJ (Revised 2003 algorithm where possible)
Printlevel                                  ...      1
Contraction scheme used                     ... PARTIAL GENERAL contraction
Coulomb Range Separation                    ... NOT USED
Exchange Range Separation                   ... NOT USED
Finite Nucleus Model                        ... NOT USED
Auxiliary Coulomb fitting basis             ... AVAILABLE
   # of basis functions in Aux-J            ...   2871
   # of shells in Aux-J                     ...   1101
   Maximum angular momentum in Aux-J        ...      3
Auxiliary J/K fitting basis                 ... AVAILABLE
   # of basis functions in Aux-JK           ...   2871
   # of shells in Aux-JK                    ...   1101
   Maximum angular momentum in Aux-JK       ...      3
Auxiliary Correlation fitting basis         ... AVAILABLE
   # of basis functions in Aux-C            ...   2871
   # of shells in Aux-C                     ...   1101
   Maximum angular momentum in Aux-C        ...      3
Auxiliary 'external' fitting basis          ... NOT available
Integral threshold                          ...     1.000000e-10
Primitive cut-off                           ...     1.000000e-11
Primitive pair pre-selection threshold      ...     1.000000e-11

Calculating pre-screening integrals         ... done (  0.0 sec) Dimension = 333
Calculating pre-screening integrals (ORCA)  ... done (  0.1 sec) Dimension = 207
Organizing shell pair data                  ... done (  0.1 sec)
Shell pair information
Total number of shell pairs                 ...     55611
Shell pairs after pre-screening             ...     22874
Total number of primitive shell pairs       ...     92379
Primitive shell pairs kept                  ...     31631
          la=0 lb=0:  10129 shell pairs
          la=1 lb=0:   8049 shell pairs
          la=1 lb=1:   1428 shell pairs
          la=2 lb=0:   2303 shell pairs
          la=2 lb=1:    830 shell pairs
          la=2 lb=2:    135 shell pairs

Calculating one electron integrals          ... done (  0.0 sec)
Calculating RI/J V-Matrix + Cholesky decomp.... done (  0.7 sec)
Calculating RI/JK V-Matrix + Cholesky decomp... done (  0.5 sec)
Calculating RI/C V-Matrix + Cholesky decomp.... done (  0.5 sec)
Calculating Nuclear repulsion               ... done (  0.0 sec) ENN=   1441.284606657862 Eh

SHARK setup successfully completed in   2.6 seconds

Maximum memory used throughout the entire GTOINT-calculation: 36.6 MB


           ************************************************************
           *        Program running with 16 parallel MPI-processes    *
           *              working on a common directory               *
           ************************************************************
-------------------------------------------------------------------------------
                                 ORCA SCF
-------------------------------------------------------------------------------

------------
SCF SETTINGS
------------
Hamiltonian:
 Density Functional     Method          .... DFT(GTOs)
 Exchange Functional    Exchange        .... B88
   X-Alpha parameter    XAlpha          ....  0.666667
   Becke's b parameter  XBeta           ....  0.004200
 Correlation Functional Correlation     .... LYP
 LDA part of GGA corr.  LDAOpt          .... VWN-5
 Gradients option       PostSCFGGA      .... off
 Hybrid DFT is turned on
   Fraction HF Exchange ScalHFX         ....  0.200000
   Scaling of DF-GGA-X  ScalDFX         ....  0.720000
   Scaling of DF-GGA-C  ScalDFC         ....  0.810000
   Scaling of DF-LDA-C  ScalLDAC        ....  1.000000
   Perturbative correction              ....  0.000000
   Density functional embedding theory  .... OFF
   NL short-range parameter             ....  4.800000
 RI-approximation to the Coulomb term is turned on
   Number of AuxJ basis functions       .... 2871
   RIJ-COSX (HFX calculated with COS-X)).... on


General Settings:
 Integral files         IntName         .... cc-pVDZ
 Hartree-Fock type      HFTyp           .... UHF
 Total Charge           Charge          ....    0
 Multiplicity           Mult            ....    2
 Number of Electrons    NEL             ....  153
 Basis Dimension        Dim             ....  429
 Nuclear Repulsion      ENuc            ....   1441.2846066579 Eh

Convergence Acceleration:
 DIIS                   CNVDIIS         .... on
   Start iteration      DIISMaxIt       ....    12
   Startup error        DIISStart       ....  0.200000
   # of expansion vecs  DIISMaxEq       ....     5
   Bias factor          DIISBfac        ....   1.050
   Max. coefficient     DIISMaxC        ....  10.000
 Trust-Rad. Augm. Hess. CNVTRAH         .... auto
   Auto Start mean grad. ratio tolernc. ....  1.125000
   Auto Start start iteration           ....     1
   Auto Start num. interpolation iter.  ....    10
   Max. Number of Micro iterations      ....    16
   Max. Number of Macro iterations      .... Maxiter - #DIIS iter
   Number of Davidson start vectors     ....     2
   Converg. threshold I  (grad. norm)   ....   5.000e-05
   Converg. threshold II (energy diff.) ....   1.000e-06
   Grad. Scal. Fac. for Micro threshold ....   0.100
   Minimum threshold for Micro iter.    ....   0.010
   NR start threshold (gradient norm)   ....   0.001
   Initial trust radius                 ....   0.400
   Minimum AH scaling param. (alpha)    ....   1.000
   Maximum AH scaling param. (alpha)    .... 1000.000
   Orbital update algorithm             .... Taylor
   White noise on init. David. guess    .... on
   Maximum white noise                  ....   0.010
   Quad. conv. algorithm                .... NR
 SOSCF                  CNVSOSCF        .... off
 Level Shifting         CNVShift        .... on
   Level shift para.    LevelShift      ....    0.2500
   Turn off err/grad.   ShiftErr        ....    0.0010
 Zerner damping         CNVZerner       .... off
 Static damping         CNVDamp         .... on
   Fraction old density DampFac         ....    0.7000
   Max. Damping (<1)    DampMax         ....    0.9800
   Min. Damping (>=0)   DampMin         ....    0.0000
   Turn off err/grad.   DampErr         ....    0.1000
 Fernandez-Rico         CNVRico         .... off

SCF Procedure:
 Maximum # iterations   MaxIter         ....   125
 SCF integral mode      SCFMode         .... Direct
   Integral package                     .... SHARK and LIBINT hybrid scheme
 Reset frequency        DirectResetFreq ....    20
 Integral Threshold     Thresh          ....  1.000e-10 Eh
 Primitive CutOff       TCut            ....  1.000e-11 Eh

Convergence Tolerance:
 Convergence Check Mode ConvCheckMode   .... Total+1el-Energy
 Convergence forced     ConvForced      .... 0
 Energy Change          TolE            ....  1.000e-06 Eh
 1-El. energy change                    ....  1.000e-03 Eh
 DIIS Error             TolErr          ....  1.000e-06


Diagonalization of the overlap matrix:
Smallest eigenvalue                        ... 1.271e-04
Time for diagonalization                   ...    0.067 sec
Threshold for overlap eigenvalues          ... 1.000e-08
Number of eigenvalues below threshold      ... 0
Time for construction of square roots      ...    0.041 sec
Total time needed                          ...    0.109 sec

---------------------
INITIAL GUESS: MOREAD
---------------------
Guess MOs are being read from file: cc-pVDZ.ges
Input Geometry matches current geometry (good)
Input basis set matches current basis set (good)
MOs were renormalized
MOs were reorthogonalized (Cholesky)
                      ------------------
                      INITIAL GUESS DONE (   0.1 sec)
                      ------------------
-------------------
DFT GRID GENERATION
-------------------

General Integration Accuracy     IntAcc      ... 4.388
Radial Grid Type                 RadialGrid  ... OptM3 with GC (2021)
Angular Grid (max. ang.)         AngularGrid ... 4 (Lebedev-302)
Angular grid pruning method      GridPruning ... 4 (adaptive)
Weight generation scheme         WeightScheme... Becke
Basis function cutoff            BFCut       ... 1.0000e-10
Integration weight cutoff        WCut        ... 1.0000e-14
Angular grids for H and He will be reduced by one unit
Partially contracted basis set               ... off
Rotationally invariant grid construction     ... off

Total number of grid points                  ...   211461
Total number of batches                      ...     3328
Average number of points per batch           ...       63
Average number of grid points per atom       ...     4405
Time for grid setup =    1.189 sec

--------------------
COSX GRID GENERATION
--------------------

GRIDX 1
-------
General Integration Accuracy     IntAcc      ... 3.816
Radial Grid Type                 RadialGrid  ... OptM3 with GC (2021)
Angular Grid (max. ang.)         AngularGrid ... 1 (Lebedev-50)
Angular grid pruning method      GridPruning ... 4 (adaptive)
Weight generation scheme         WeightScheme... Becke
Basis function cutoff            BFCut       ... 1.0000e-10
Integration weight cutoff        WCut        ... 1.0000e-14
Angular grids for H and He will be reduced by one unit
Partially contracted basis set               ... on
Rotationally invariant grid construction     ... off

Total number of grid points                  ...    26948
Total number of batches                      ...      452
Average number of points per batch           ...       59
Average number of grid points per atom       ...      561
UseSFitting                                  ... on

GRIDX 2
-------
General Integration Accuracy     IntAcc      ... 4.020
Radial Grid Type                 RadialGrid  ... OptM3 with GC (2021)
Angular Grid (max. ang.)         AngularGrid ... 2 (Lebedev-110)
Angular grid pruning method      GridPruning ... 4 (adaptive)
Weight generation scheme         WeightScheme... Becke
Basis function cutoff            BFCut       ... 1.0000e-10
Integration weight cutoff        WCut        ... 1.0000e-14
Angular grids for H and He will be reduced by one unit
Partially contracted basis set               ... on
Rotationally invariant grid construction     ... off

Total number of grid points                  ...    56897
Total number of batches                      ...      915
Average number of points per batch           ...       62
Average number of grid points per atom       ...     1185
UseSFitting                                  ... on

GRIDX 3
-------
General Integration Accuracy     IntAcc      ... 4.338
Radial Grid Type                 RadialGrid  ... OptM3 with GC (2021)
Angular Grid (max. ang.)         AngularGrid ... 3 (Lebedev-194)
Angular grid pruning method      GridPruning ... 4 (adaptive)
Weight generation scheme         WeightScheme... Becke
Basis function cutoff            BFCut       ... 1.0000e-10
Integration weight cutoff        WCut        ... 1.0000e-14
Angular grids for H and He will be reduced by one unit
Partially contracted basis set               ... on
Rotationally invariant grid construction     ... off

Total number of grid points                  ...   124299
Total number of batches                      ...     1965
Average number of points per batch           ...       63
Average number of grid points per atom       ...     2590
UseSFitting                                  ... on

Time for X-Grid setup             =    2.081 sec

 re-compute Schwartz prescreening matrix in partically contracted basis (1) ...done (   0.323 sec)
--------------
SCF ITERATIONS
--------------
ITER       Energy         Delta-E        Max-DP      RMS-DP      [F,P]     Damp
               ***  Starting incremental Fock matrix formation  ***
  0   -815.7960270446   0.000000000000 0.00000297  0.00000004  0.0000065 0.7000
                 **** Energy Check signals convergence ****

               *****************************************************
               *                     SUCCESS                       *
               *           SCF CONVERGED AFTER   1 CYCLES          *
               *****************************************************

Old exchange energy                            =    -23.670417929 Eh
New exchange energy                            =    -23.670509973 Eh
Exchange energy change after final integration =     -0.000092044 Eh
Total energy after final integration           =   -815.796119087 Eh
Final COS-X integration done in                =     6.183 sec

----------------
TOTAL SCF ENERGY
----------------

Total Energy       :         -815.79611909 Eh          -22198.94097 eV

Components:
Nuclear Repulsion  :         1441.28460666 Eh           39219.34802 eV
Electronic Energy  :        -2257.08072575 Eh          -61418.28899 eV
One Electron Energy:        -3961.16751163 Eh         -107788.84787 eV
Two Electron Energy:         1704.08678588 Eh           46370.55888 eV
Max COSX asymmetry :            0.00000046 Eh               0.00001 eV

Virial components:
Potential Energy   :        -1625.72907011 Eh          -44238.33703 eV
Kinetic Energy     :          809.93295103 Eh           22039.39606 eV
Virial Ratio       :            2.00723908


DFT components:
N(Alpha)           :       77.000203693237 electrons
N(Beta)            :       76.000200851581 electrons
N(Total)           :      153.000404544818 electrons
E(X)               :      -93.827025402970 Eh       
E(C)               :       -5.896409037189 Eh       
E(XC)              :      -99.723434440159 Eh       
DFET-embed. en.    :        0.000000000000 Eh       

---------------
SCF CONVERGENCE
---------------

  Last Energy change         ...    1.0149e-09  Tolerance :   1.0000e-06
  Last MAX-Density change    ...    1.2193e-06  Tolerance :   1.0000e-05
  Last RMS-Density change    ...    1.5472e-08  Tolerance :   1.0000e-06
  Last DIIS Error            ...    4.5243e-06  Tolerance :   1.0000e-06

             **** THE GBW FILE WAS UPDATED (cc-pVDZ.gbw) ****
             **** DENSITY cc-pVDZ.scfp WAS UPDATED ****
             **** ENERGY FILE WAS UPDATED (cc-pVDZ.en.tmp) ****
----------------------
UHF SPIN CONTAMINATION
----------------------

Warning: in a DFT calculation there is little theoretical justification to 
         calculate <S**2> as in Hartree-Fock theory. We will do it anyways
         but you should keep in mind that the values have only limited relevance

Expectation value of <S**2>     :     0.753915
Ideal value S*(S+1) for S=0.5   :     0.750000
Deviation                       :     0.003915

             **** THE GBW FILE WAS UPDATED (cc-pVDZ.gbw) ****
             **** DENSITY cc-pVDZ.scfp WAS UPDATED ****
----------------
ORBITAL ENERGIES
----------------
                 SPIN UP ORBITALS
  NO   OCC          E(Eh)            E(eV) 
   0   1.0000     -10.212660      -277.9006 
   1   1.0000     -10.212630      -277.8998 
   2   1.0000     -10.201843      -277.6063 
   3   1.0000     -10.201764      -277.6041 
   4   1.0000     -10.192431      -277.3501 
   5   1.0000     -10.192371      -277.3485 
   6   1.0000     -10.191999      -277.3384 
   7   1.0000     -10.191989      -277.3381 
   8   1.0000     -10.187374      -277.2126 
   9   1.0000     -10.187160      -277.2067 
  10   1.0000     -10.187156      -277.2066 
  11   1.0000     -10.186986      -277.2020 
  12   1.0000     -10.185995      -277.1750 
  13   1.0000     -10.184126      -277.1242 
  14   1.0000     -10.182810      -277.0884 
  15   1.0000     -10.182028      -277.0671 
  16   1.0000     -10.181771      -277.0601 
  17   1.0000     -10.181768      -277.0600 
  18   1.0000     -10.180610      -277.0285 
  19   1.0000     -10.179663      -277.0027 
  20   1.0000     -10.175686      -276.8945 
  21   1.0000      -0.874848       -23.8058 
  22   1.0000      -0.819352       -22.2957 
  23   1.0000      -0.806455       -21.9448 
  24   1.0000      -0.795342       -21.6424 
  25   1.0000      -0.785565       -21.3763 
  26   1.0000      -0.762986       -20.7619 
  27   1.0000      -0.752003       -20.4630 
  28   1.0000      -0.733474       -19.9588 
  29   1.0000      -0.720463       -19.6048 
  30   1.0000      -0.706531       -19.2257 
  31   1.0000      -0.670968       -18.2580 
  32   1.0000      -0.642029       -17.4705 
  33   1.0000      -0.636774       -17.3275 
  34   1.0000      -0.611133       -16.6298 
  35   1.0000      -0.589676       -16.0459 
  36   1.0000      -0.578026       -15.7289 
  37   1.0000      -0.571459       -15.5502 
  38   1.0000      -0.563400       -15.3309 
  39   1.0000      -0.541873       -14.7451 
  40   1.0000      -0.525188       -14.2911 
  41   1.0000      -0.498921       -13.5763 
  42   1.0000      -0.484330       -13.1793 
  43   1.0000      -0.481200       -13.0941 
  44   1.0000      -0.476138       -12.9564 
  45   1.0000      -0.470469       -12.8021 
  46   1.0000      -0.460081       -12.5194 
  47   1.0000      -0.430511       -11.7148 
  48   1.0000      -0.427989       -11.6462 
  49   1.0000      -0.427637       -11.6366 
  50   1.0000      -0.421288       -11.4638 
  51   1.0000      -0.419639       -11.4190 
  52   1.0000      -0.412940       -11.2367 
  53   1.0000      -0.403140       -10.9700 
  54   1.0000      -0.391827       -10.6621 
  55   1.0000      -0.389210       -10.5909 
  56   1.0000      -0.374819       -10.1993 
  57   1.0000      -0.372842       -10.1455 
  58   1.0000      -0.363405        -9.8887 
  59   1.0000      -0.359698        -9.7879 
  60   1.0000      -0.353762        -9.6264 
  61   1.0000      -0.343038        -9.3345 
  62   1.0000      -0.341152        -9.2832 
  63   1.0000      -0.330297        -8.9878 
  64   1.0000      -0.329660        -8.9705 
  65   1.0000      -0.327323        -8.9069 
  66   1.0000      -0.324279        -8.8241 
  67   1.0000      -0.323504        -8.8030 
  68   1.0000      -0.320315        -8.7162 
  69   1.0000      -0.319143        -8.6843 
  70   1.0000      -0.317890        -8.6502 
  71   1.0000      -0.279311        -7.6004 
  72   1.0000      -0.276043        -7.5115 
  73   1.0000      -0.274955        -7.4819 
  74   1.0000      -0.246211        -6.6997 
  75   1.0000      -0.219230        -5.9656 
  76   1.0000      -0.198820        -5.4102 
  77   0.0000      -0.050723        -1.3802 
  78   0.0000      -0.003004        -0.0817 
  79   0.0000       0.040770         1.1094 
  80   0.0000       0.047800         1.3007 
  81   0.0000       0.050179         1.3654 
  82   0.0000       0.060786         1.6541 
  83   0.0000       0.062946         1.7129 
  84   0.0000       0.074042         2.0148 
  85   0.0000       0.080142         2.1808 
  86   0.0000       0.080552         2.1919 
  87   0.0000       0.084989         2.3127 
  88   0.0000       0.087067         2.3692 
  89   0.0000       0.090906         2.4737 
  90   0.0000       0.094746         2.5782 
  91   0.0000       0.095351         2.5946 
  92   0.0000       0.096396         2.6231 
  93   0.0000       0.108664         2.9569 
  94   0.0000       0.109932         2.9914 
  95   0.0000       0.114692         3.1209 
  96   0.0000       0.122291         3.3277 
  97   0.0000       0.130148         3.5415 
  98   0.0000       0.145055         3.9471 
  99   0.0000       0.145982         3.9724 
 100   0.0000       0.152255         4.1431 
 101   0.0000       0.158784         4.3207 
 102   0.0000       0.159932         4.3520 
 103   0.0000       0.160995         4.3809 
 104   0.0000       0.162038         4.4093 
 105   0.0000       0.167666         4.5624 
 106   0.0000       0.175957         4.7880 
 107   0.0000       0.177628         4.8335 
 108   0.0000       0.184049         5.0082 
 109   0.0000       0.190523         5.1844 
 110   0.0000       0.197285         5.3684 
 111   0.0000       0.199391         5.4257 
 112   0.0000       0.207956         5.6588 
 113   0.0000       0.211888         5.7658 
 114   0.0000       0.216482         5.8908 
 115   0.0000       0.221791         6.0352 
 116   0.0000       0.233195         6.3455 
 117   0.0000       0.245931         6.6921 
 118   0.0000       0.255054         6.9404 
 119   0.0000       0.260679         7.0934 
 120   0.0000       0.273029         7.4295 
 121   0.0000       0.276185         7.5154 
 122   0.0000       0.297194         8.0870 
 123   0.0000       0.316168         8.6034 
 124   0.0000       0.327585         8.9140 
 125   0.0000       0.337934         9.1956 
 126   0.0000       0.351178         9.5560 
 127   0.0000       0.366859         9.9828 
 128   0.0000       0.372679        10.1411 
 129   0.0000       0.377748        10.2791 
 130   0.0000       0.401928        10.9370 
 131   0.0000       0.406499        11.0614 
 132   0.0000       0.411802        11.2057 
 133   0.0000       0.414509        11.2794 
 134   0.0000       0.415266        11.3000 
 135   0.0000       0.419663        11.4196 
 136   0.0000       0.422154        11.4874 
 137   0.0000       0.426169        11.5967 
 138   0.0000       0.438953        11.9445 
 139   0.0000       0.445344        12.1184 
 140   0.0000       0.456228        12.4146 
 141   0.0000       0.461850        12.5676 
 142   0.0000       0.468116        12.7381 
 143   0.0000       0.473244        12.8776 
 144   0.0000       0.478308        13.0154 
 145   0.0000       0.484333        13.1794 
 146   0.0000       0.493198        13.4206 
 147   0.0000       0.495193        13.4749 
 148   0.0000       0.497308        13.5324 
 149   0.0000       0.504874        13.7383 
 150   0.0000       0.513948        13.9852 
 151   0.0000       0.517564        14.0836 
 152   0.0000       0.524459        14.2713 
 153   0.0000       0.530371        14.4321 
 154   0.0000       0.534670        14.5491 
 155   0.0000       0.536121        14.5886 
 156   0.0000       0.551728        15.0133 
 157   0.0000       0.554874        15.0989 
 158   0.0000       0.561215        15.2714 
 159   0.0000       0.581437        15.8217 
 160   0.0000       0.583895        15.8886 
 161   0.0000       0.595932        16.2161 
 162   0.0000       0.601294        16.3620 
 163   0.0000       0.606986        16.5169 
 164   0.0000       0.611683        16.6448 
 165   0.0000       0.614547        16.7227 
 166   0.0000       0.619745        16.8641 
 167   0.0000       0.630340        17.1524 
 168   0.0000       0.630991        17.1701 
 169   0.0000       0.631823        17.1928 
 170   0.0000       0.633583        17.2407 
 171   0.0000       0.641000        17.4425 
 172   0.0000       0.642244        17.4764 
 173   0.0000       0.648045        17.6342 
 174   0.0000       0.651586        17.7306 
 175   0.0000       0.656986        17.8775 
 176   0.0000       0.657379        17.8882 
 177   0.0000       0.658238        17.9116 
 178   0.0000       0.659766        17.9532 
 179   0.0000       0.660473        17.9724 
 180   0.0000       0.663726        18.0609 
 181   0.0000       0.665449        18.1078 
 182   0.0000       0.668176        18.1820 
 183   0.0000       0.672471        18.2989 
 184   0.0000       0.676693        18.4138 
 185   0.0000       0.684888        18.6368 
 186   0.0000       0.686842        18.6899 
 187   0.0000       0.690939        18.8014 
 188   0.0000       0.692525        18.8446 
 189   0.0000       0.695774        18.9330 
 190   0.0000       0.697334        18.9754 
 191   0.0000       0.700335        19.0571 
 192   0.0000       0.704395        19.1676 
 193   0.0000       0.708573        19.2812 
 194   0.0000       0.709895        19.3172 
 195   0.0000       0.720400        19.6031 
 196   0.0000       0.723277        19.6814 
 197   0.0000       0.726218        19.7614 
 198   0.0000       0.732981        19.9454 
 199   0.0000       0.736089        20.0300 
 200   0.0000       0.746399        20.3105 
 201   0.0000       0.748586        20.3701 
 202   0.0000       0.756313        20.5803 
 203   0.0000       0.772033        21.0081 
 204   0.0000       0.772343        21.0165 
 205   0.0000       0.781247        21.2588 
 206   0.0000       0.807837        21.9824 
 207   0.0000       0.824035        22.4231 
 208   0.0000       0.826139        22.4804 
 209   0.0000       0.833509        22.6809 
 210   0.0000       0.842278        22.9195 
 211   0.0000       0.842396        22.9228 
 212   0.0000       0.852075        23.1862 
 213   0.0000       0.865506        23.5516 
 214   0.0000       0.871988        23.7280 
 215   0.0000       0.883974        24.0542 
 216   0.0000       0.890799        24.2399 
 217   0.0000       0.917070        24.9548 
 218   0.0000       0.935484        25.4558 
 219   0.0000       0.956632        26.0313 
 220   0.0000       0.977533        26.6000 
 221   0.0000       0.980170        26.6718 
 222   0.0000       0.986448        26.8426 
 223   0.0000       0.989506        26.9258 
 224   0.0000       1.015166        27.6241 
 225   0.0000       1.023337        27.8464 
 226   0.0000       1.032262        28.0893 
 227   0.0000       1.033804        28.1312 
 228   0.0000       1.045549        28.4508 
 229   0.0000       1.050729        28.5918 
 230   0.0000       1.052261        28.6335 
 231   0.0000       1.060151        28.8482 
 232   0.0000       1.071744        29.1636 
 233   0.0000       1.078814        29.3560 
 234   0.0000       1.088863        29.6295 
 235   0.0000       1.114539        30.3281 
 236   0.0000       1.118328        30.4313 
 237   0.0000       1.151725        31.3400 
 238   0.0000       1.158920        31.5358 
 239   0.0000       1.171256        31.8715 
 240   0.0000       1.176202        32.0061 
 241   0.0000       1.194422        32.5019 
 242   0.0000       1.198725        32.6190 
 243   0.0000       1.202662        32.7261 
 244   0.0000       1.204830        32.7851 
 245   0.0000       1.206575        32.8326 
 246   0.0000       1.213976        33.0340 
 247   0.0000       1.215936        33.0873 
 248   0.0000       1.216853        33.1123 
 249   0.0000       1.222855        33.2756 
 250   0.0000       1.225071        33.3359 
 251   0.0000       1.230962        33.4962 
 252   0.0000       1.239696        33.7338 
 253   0.0000       1.262090        34.3432 
 254   0.0000       1.275139        34.6983 
 255   0.0000       1.305402        35.5218 
 256   0.0000       1.309979        35.6463 
 257   0.0000       1.319230        35.8981 
 258   0.0000       1.321341        35.9555 
 259   0.0000       1.327183        36.1145 
 260   0.0000       1.329877        36.1878 
 261   0.0000       1.333724        36.2925 
 262   0.0000       1.337647        36.3992 
 263   0.0000       1.348812        36.7031 
 264   0.0000       1.367724        37.2177 
 265   0.0000       1.378643        37.5148 
 266   0.0000       1.396068        37.9889 
 267   0.0000       1.398772        38.0625 
 268   0.0000       1.409036        38.3418 
 269   0.0000       1.417594        38.5747 
 270   0.0000       1.426399        38.8143 
 271   0.0000       1.435814        39.0705 
 272   0.0000       1.449793        39.4509 
 273   0.0000       1.463015        39.8107 
 274   0.0000       1.464628        39.8545 
 275   0.0000       1.468330        39.9553 
 276   0.0000       1.473123        40.0857 
 277   0.0000       1.476263        40.1711 
 278   0.0000       1.484462        40.3943 
 279   0.0000       1.494993        40.6808 
 280   0.0000       1.514456        41.2104 
 281   0.0000       1.516101        41.2552 
 282   0.0000       1.529733        41.6262 
 283   0.0000       1.531795        41.6823 
 284   0.0000       1.540960        41.9316 
 285   0.0000       1.554084        42.2888 
 286   0.0000       1.557987        42.3950 
 287   0.0000       1.576734        42.9051 
 288   0.0000       1.587437        43.1964 
 289   0.0000       1.593861        43.3712 
 290   0.0000       1.596993        43.4564 
 291   0.0000       1.597182        43.4615 
 292   0.0000       1.613244        43.8986 
 293   0.0000       1.626020        44.2462 
 294   0.0000       1.630254        44.3615 
 295   0.0000       1.631224        44.3879 
 296   0.0000       1.633298        44.4443 
 297   0.0000       1.638580        44.5880 
 298   0.0000       1.640352        44.6362 
 299   0.0000       1.645255        44.7697 
 300   0.0000       1.647173        44.8219 
 301   0.0000       1.651293        44.9340 
 302   0.0000       1.658284        45.1242 
 303   0.0000       1.665173        45.3117 
 304   0.0000       1.673345        45.5340 
 305   0.0000       1.679039        45.6890 
 306   0.0000       1.681681        45.7609 
 307   0.0000       1.689724        45.9797 
 308   0.0000       1.690678        46.0057 
 309   0.0000       1.693793        46.0904 
 310   0.0000       1.695659        46.1412 
 311   0.0000       1.701585        46.3025 
 312   0.0000       1.704801        46.3900 
 313   0.0000       1.707413        46.4611 
 314   0.0000       1.713055        46.6146 
 315   0.0000       1.717047        46.7232 
 316   0.0000       1.720516        46.8176 
 317   0.0000       1.726954        46.9928 
 318   0.0000       1.732242        47.1367 
 319   0.0000       1.733261        47.1644 
 320   0.0000       1.739609        47.3372 
 321   0.0000       1.754587        47.7447 
 322   0.0000       1.756554        47.7983 
 323   0.0000       1.765960        48.0542 
 324   0.0000       1.772329        48.2275 
 325   0.0000       1.778529        48.3962 
 326   0.0000       1.784319        48.5538 
 327   0.0000       1.788928        48.6792 
 328   0.0000       1.797728        48.9187 
 329   0.0000       1.798178        48.9309 
 330   0.0000       1.804973        49.1158 
 331   0.0000       1.807177        49.1758 
 332   0.0000       1.811557        49.2950 
 333   0.0000       1.813031        49.3351 
 334   0.0000       1.831668        49.8422 
 335   0.0000       1.837967        50.0136 
 336   0.0000       1.853288        50.4305 
 337   0.0000       1.856881        50.5283 
 338   0.0000       1.874115        50.9973 
 339   0.0000       1.881489        51.1979 
 340   0.0000       1.885770        51.3144 
 341   0.0000       1.902717        51.7756 
 342   0.0000       1.903142        51.7871 
 343   0.0000       1.913638        52.0727 
 344   0.0000       1.920530        52.2603 
 345   0.0000       1.928611        52.4802 
 346   0.0000       1.952969        53.1430 
 347   0.0000       1.967442        53.5368 
 348   0.0000       1.973193        53.6933 
 349   0.0000       1.974948        53.7411 
 350   0.0000       1.983027        53.9609 
 351   0.0000       1.996695        54.3328 
 352   0.0000       2.017890        54.9096 
 353   0.0000       2.023681        55.0672 
 354   0.0000       2.031133        55.2699 
 355   0.0000       2.033735        55.3407 
 356   0.0000       2.046056        55.6760 
 357   0.0000       2.052065        55.8395 
 358   0.0000       2.066611        56.2353 
 359   0.0000       2.079468        56.5852 
 360   0.0000       2.089689        56.8633 
 361   0.0000       2.097541        57.0770 
 362   0.0000       2.101082        57.1733 
 363   0.0000       2.109284        57.3965 
 364   0.0000       2.127670        57.8968 
 365   0.0000       2.140025        58.2330 
 366   0.0000       2.159382        58.7598 
 367   0.0000       2.184259        59.4367 
 368   0.0000       2.187923        59.5364 
 369   0.0000       2.194665        59.7199 
 370   0.0000       2.204101        59.9766 
 371   0.0000       2.205410        60.0123 
 372   0.0000       2.214590        60.2621 
 373   0.0000       2.220907        60.4339 
 374   0.0000       2.231466        60.7213 
 375   0.0000       2.250657        61.2435 
 376   0.0000       2.267360        61.6980 
 377   0.0000       2.271526        61.8114 
 378   0.0000       2.280669        62.0602 
 379   0.0000       2.287934        62.2579 
 380   0.0000       2.294203        62.4284 
 381   0.0000       2.299155        62.5632 
 382   0.0000       2.305454        62.7346 
 383   0.0000       2.320750        63.1508 
 384   0.0000       2.327437        63.3328 
 385   0.0000       2.332486        63.4702 
 386   0.0000       2.338842        63.6431 
 387   0.0000       2.339890        63.6717 
 388   0.0000       2.350338        63.9559 
 389   0.0000       2.352434        64.0130 
 390   0.0000       2.359016        64.1921 
 391   0.0000       2.376884        64.6783 
 392   0.0000       2.409957        65.5783 
 393   0.0000       2.411271        65.6140 
 394   0.0000       2.418606        65.8136 
 395   0.0000       2.423398        65.9440 
 396   0.0000       2.427488        66.0553 
 397   0.0000       2.428900        66.0937 
 398   0.0000       2.446336        66.5682 
 399   0.0000       2.458990        66.9125 
 400   0.0000       2.486799        67.6692 
 401   0.0000       2.489456        67.7415 
 402   0.0000       2.500333        68.0375 
 403   0.0000       2.514088        68.4118 
 404   0.0000       2.536333        69.0171 
 405   0.0000       2.536591        69.0241 
 406   0.0000       2.572514        70.0017 
 407   0.0000       2.573650        70.0326 
 408   0.0000       2.588960        70.4492 
 409   0.0000       2.597066        70.6698 
 410   0.0000       2.607375        70.9503 
 411   0.0000       2.612766        71.0970 
 412   0.0000       2.622895        71.3726 
 413   0.0000       2.647768        72.0494 
 414   0.0000       2.701944        73.5236 
 415   0.0000       2.714103        73.8545 
 416   0.0000       2.724438        74.1357 
 417   0.0000       2.731309        74.3227 
 418   0.0000       2.760393        75.1141 
 419   0.0000       2.765158        75.2438 
 420   0.0000       2.813951        76.5715 
 421   0.0000       2.825357        76.8819 
 422   0.0000       2.832261        77.0697 
 423   0.0000       2.870116        78.0998 
 424   0.0000       2.887122        78.5626 
 425   0.0000       2.950666        80.2917 
 426   0.0000       3.188746        86.7702 
 427   0.0000       3.194511        86.9271 
 428   0.0000       3.384295        92.0913 

                 SPIN DOWN ORBITALS
  NO   OCC          E(Eh)            E(eV) 
   0   1.0000     -10.212660      -277.9006 
   1   1.0000     -10.212630      -277.8998 
   2   1.0000     -10.201841      -277.6062 
   3   1.0000     -10.201764      -277.6041 
   4   1.0000     -10.192431      -277.3501 
   5   1.0000     -10.192370      -277.3485 
   6   1.0000     -10.191999      -277.3384 
   7   1.0000     -10.191989      -277.3381 
   8   1.0000     -10.187368      -277.2124 
   9   1.0000     -10.187160      -277.2067 
  10   1.0000     -10.187156      -277.2066 
  11   1.0000     -10.186986      -277.2020 
  12   1.0000     -10.185017      -277.1484 
  13   1.0000     -10.182775      -277.0874 
  14   1.0000     -10.182028      -277.0671 
  15   1.0000     -10.181768      -277.0600 
  16   1.0000     -10.180575      -277.0275 
  17   1.0000     -10.180208      -277.0175 
  18   1.0000     -10.179473      -276.9976 
  19   1.0000     -10.175686      -276.8945 
  20   1.0000     -10.171926      -276.7922 
  21   1.0000      -0.874846       -23.8058 
  22   1.0000      -0.819179       -22.2910 
  23   1.0000      -0.804691       -21.8968 
  24   1.0000      -0.795342       -21.6424 
  25   1.0000      -0.782567       -21.2947 
  26   1.0000      -0.760348       -20.6901 
  27   1.0000      -0.751481       -20.4488 
  28   1.0000      -0.729742       -19.8573 
  29   1.0000      -0.720367       -19.6022 
  30   1.0000      -0.702801       -19.1242 
  31   1.0000      -0.665338       -18.1048 
  32   1.0000      -0.640905       -17.4399 
  33   1.0000      -0.633844       -17.2478 
  34   1.0000      -0.606369       -16.5001 
  35   1.0000      -0.586549       -15.9608 
  36   1.0000      -0.576404       -15.6848 
  37   1.0000      -0.566222       -15.4077 
  38   1.0000      -0.559362       -15.2210 
  39   1.0000      -0.541869       -14.7450 
  40   1.0000      -0.525162       -14.2904 
  41   1.0000      -0.498894       -13.5756 
  42   1.0000      -0.484324       -13.1791 
  43   1.0000      -0.480428       -13.0731 
  44   1.0000      -0.476085       -12.9549 
  45   1.0000      -0.470462       -12.8019 
  46   1.0000      -0.457881       -12.4596 
  47   1.0000      -0.430236       -11.7073 
  48   1.0000      -0.426880       -11.6160 
  49   1.0000      -0.425625       -11.5818 
  50   1.0000      -0.419989       -11.4285 
  51   1.0000      -0.419117       -11.4048 
  52   1.0000      -0.410914       -11.1815 
  53   1.0000      -0.400121       -10.8879 
  54   1.0000      -0.389872       -10.6090 
  55   1.0000      -0.386556       -10.5187 
  56   1.0000      -0.371972       -10.1219 
  57   1.0000      -0.371810       -10.1175 
  58   1.0000      -0.361388        -9.8339 
  59   1.0000      -0.359090        -9.7713 
  60   1.0000      -0.352947        -9.6042 
  61   1.0000      -0.340697        -9.2708 
  62   1.0000      -0.340367        -9.2619 
  63   1.0000      -0.329631        -8.9697 
  64   1.0000      -0.329229        -8.9588 
  65   1.0000      -0.326933        -8.8963 
  66   1.0000      -0.323617        -8.8061 
  67   1.0000      -0.323089        -8.7917 
  68   1.0000      -0.319968        -8.7068 
  69   1.0000      -0.318801        -8.6750 
  70   1.0000      -0.314216        -8.5502 
  71   1.0000      -0.279311        -7.6004 
  72   1.0000      -0.276042        -7.5115 
  73   1.0000      -0.274941        -7.4815 
  74   1.0000      -0.246210        -6.6997 
  75   1.0000      -0.219230        -5.9655 
  76   0.0000      -0.050722        -1.3802 
  77   0.0000      -0.045001        -1.2245 
  78   0.0000      -0.003002        -0.0817 
  79   0.0000       0.040771         1.1094 
  80   0.0000       0.047801         1.3007 
  81   0.0000       0.050180         1.3655 
  82   0.0000       0.061451         1.6722 
  83   0.0000       0.063011         1.7146 
  84   0.0000       0.075796         2.0625 
  85   0.0000       0.080609         2.1935 
  86   0.0000       0.080879         2.2008 
  87   0.0000       0.085011         2.3133 
  88   0.0000       0.087361         2.3772 
  89   0.0000       0.090913         2.4739 
  90   0.0000       0.094747         2.5782 
  91   0.0000       0.095413         2.5963 
  92   0.0000       0.100726         2.7409 
  93   0.0000       0.109345         2.9754 
  94   0.0000       0.110851         3.0164 
  95   0.0000       0.114734         3.1221 
  96   0.0000       0.124871         3.3979 
  97   0.0000       0.131147         3.5687 
  98   0.0000       0.146022         3.9734 
  99   0.0000       0.146249         3.9796 
 100   0.0000       0.152392         4.1468 
 101   0.0000       0.159059         4.3282 
 102   0.0000       0.160410         4.3650 
 103   0.0000       0.161698         4.4000 
 104   0.0000       0.162075         4.4103 
 105   0.0000       0.168729         4.5914 
 106   0.0000       0.176009         4.7895 
 107   0.0000       0.178156         4.8479 
 108   0.0000       0.184328         5.0158 
 109   0.0000       0.191653         5.2151 
 110   0.0000       0.198749         5.4082 
 111   0.0000       0.199456         5.4275 
 112   0.0000       0.208269         5.6673 
 113   0.0000       0.212316         5.7774 
 114   0.0000       0.216911         5.9024 
 115   0.0000       0.222476         6.0539 
 116   0.0000       0.233940         6.3658 
 117   0.0000       0.248014         6.7488 
 118   0.0000       0.256359         6.9759 
 119   0.0000       0.261241         7.1087 
 120   0.0000       0.276319         7.5190 
 121   0.0000       0.277586         7.5535 
 122   0.0000       0.299216         8.1421 
 123   0.0000       0.318137         8.6569 
 124   0.0000       0.328147         8.9293 
 125   0.0000       0.339193         9.2299 
 126   0.0000       0.351894         9.5755 
 127   0.0000       0.367076         9.9886 
 128   0.0000       0.372821        10.1450 
 129   0.0000       0.378560        10.3011 
 130   0.0000       0.403814        10.9883 
 131   0.0000       0.407350        11.0846 
 132   0.0000       0.411803        11.2057 
 133   0.0000       0.415002        11.2928 
 134   0.0000       0.415427        11.3044 
 135   0.0000       0.419667        11.4197 
 136   0.0000       0.422704        11.5024 
 137   0.0000       0.426458        11.6045 
 138   0.0000       0.440886        11.9971 
 139   0.0000       0.449647        12.2355 
 140   0.0000       0.456376        12.4186 
 141   0.0000       0.462643        12.5892 
 142   0.0000       0.468134        12.7386 
 143   0.0000       0.477623        12.9968 
 144   0.0000       0.479838        13.0570 
 145   0.0000       0.485667        13.2157 
 146   0.0000       0.495364        13.4795 
 147   0.0000       0.495559        13.4848 
 148   0.0000       0.504882        13.7385 
 149   0.0000       0.507399        13.8070 
 150   0.0000       0.515466        14.0265 
 151   0.0000       0.522941        14.2299 
 152   0.0000       0.531019        14.4497 
 153   0.0000       0.534794        14.5525 
 154   0.0000       0.536173        14.5900 
 155   0.0000       0.551144        14.9974 
 156   0.0000       0.554875        15.0989 
 157   0.0000       0.559212        15.2169 
 158   0.0000       0.573324        15.6009 
 159   0.0000       0.582829        15.8596 
 160   0.0000       0.584104        15.8943 
 161   0.0000       0.599560        16.3149 
 162   0.0000       0.601520        16.3682 
 163   0.0000       0.608079        16.5467 
 164   0.0000       0.613908        16.7053 
 165   0.0000       0.614571        16.7233 
 166   0.0000       0.619968        16.8702 
 167   0.0000       0.630667        17.1613 
 168   0.0000       0.632429        17.2093 
 169   0.0000       0.633442        17.2368 
 170   0.0000       0.635657        17.2971 
 171   0.0000       0.641051        17.4439 
 172   0.0000       0.643276        17.5044 
 173   0.0000       0.648601        17.6493 
 174   0.0000       0.651695        17.7335 
 175   0.0000       0.658423        17.9166 
 176   0.0000       0.658648        17.9227 
 177   0.0000       0.659045        17.9335 
 178   0.0000       0.660854        17.9828 
 179   0.0000       0.661275        17.9942 
 180   0.0000       0.664479        18.0814 
 181   0.0000       0.666419        18.1342 
 182   0.0000       0.670749        18.2520 
 183   0.0000       0.672963        18.3123 
 184   0.0000       0.678026        18.4500 
 185   0.0000       0.685031        18.6406 
 186   0.0000       0.687203        18.6998 
 187   0.0000       0.691393        18.8138 
 188   0.0000       0.694561        18.9000 
 189   0.0000       0.695997        18.9391 
 190   0.0000       0.698961        19.0197 
 191   0.0000       0.701869        19.0988 
 192   0.0000       0.704513        19.1708 
 193   0.0000       0.709176        19.2977 
 194   0.0000       0.714019        19.4294 
 195   0.0000       0.720543        19.6070 
 196   0.0000       0.723376        19.6841 
 197   0.0000       0.727658        19.8006 
 198   0.0000       0.733369        19.9560 
 199   0.0000       0.738509        20.0959 
 200   0.0000       0.746557        20.3149 
 201   0.0000       0.749251        20.3882 
 202   0.0000       0.757021        20.5996 
 203   0.0000       0.772640        21.0246 
 204   0.0000       0.772898        21.0316 
 205   0.0000       0.781643        21.2696 
 206   0.0000       0.808222        21.9929 
 207   0.0000       0.826426        22.4882 
 208   0.0000       0.827159        22.5081 
 209   0.0000       0.834885        22.7184 
 210   0.0000       0.842919        22.9370 
 211   0.0000       0.843615        22.9559 
 212   0.0000       0.852503        23.1978 
 213   0.0000       0.869095        23.6493 
 214   0.0000       0.872343        23.7377 
 215   0.0000       0.883981        24.0544 
 216   0.0000       0.891599        24.2616 
 217   0.0000       0.917099        24.9555 
 218   0.0000       0.936263        25.4770 
 219   0.0000       0.957869        26.0649 
 220   0.0000       0.977588        26.6015 
 221   0.0000       0.987653        26.8754 
 222   0.0000       0.989507        26.9258 
 223   0.0000       1.012618        27.5547 
 224   0.0000       1.015267        27.6268 
 225   0.0000       1.024753        27.8849 
 226   0.0000       1.032266        28.0894 
 227   0.0000       1.038597        28.2617 
 228   0.0000       1.046413        28.4744 
 229   0.0000       1.051034        28.6001 
 230   0.0000       1.052262        28.6335 
 231   0.0000       1.066829        29.0299 
[...]
 A(ORB)         -0.0000              -0.0000               0.0000    A(PC) =  -0.0000
 A(DIA)          0.0000               0.0000               0.0000    A(PC) =   0.0000
             ----------           ----------           ----------
 A(Tot)         -0.0209              -0.0210               0.0419    A(iso)=    0.0000
 Orientation: 
  X           0.9602804            0.0943752           -0.2625925
  Y          -0.2650938            0.0147983           -0.9641091
  Z          -0.0871021            0.9954267            0.0392288

Notes:  (1) The A matrix conforms to the "SAI" spin Hamiltonian convention.
        (2) Tensor is right-handed.

 -----------------------------------------------------------
 Nucleus  19H : A:ISTP=    1 I=  0.5 P=533.5514 MHz/au**3
                Q:ISTP=    2 I=  1.0 Q=  0.0029 barn     
 -----------------------------------------------------------
 Solving for nuclear perturbation:
Forming RHS of the CP-SCF equations         ... 
Calc. nucleus orbit integrals (SHARK)       ... done

------------------------------------------------------------------------------
                           ORCA CP-SCF CALCULATION
------------------------------------------------------------------------------

Input orbitals are from        ... cc-pVDZ.gbw
Input Perturbation             ... cc-pVDZ.pin.tmp
Wavefunction output            ... cc-pVDZ.pout.tmp
Perturbation mode              ... Imaginary perturbation
Solver                         ... POPLE
Max. number of iterations      ... 64
Convergence tolerance          ... 1.000e-03
Integral handling              ... Direct
DFT GridXC                     ... 1
COSX GridX                     ... 1
COSX IntAccX                   ... 3.067
COSX Algorithm                 ... Auto
Number of perturbations        ... 3
Number of operators            ... 2
Orbital ranges used for CP-SCF:
 Operator 0:  Orbitals   0... 76  to  77...428
 Operator 1:  Orbitals   0... 75  to  76...428
Variables per perturbation     ... 53932
DFT calculation                         ... on
XC functional terms                     ... off
Hybrid DFT                              ... on
   Exchange mixing (SCF)                ...  0.200
   Exchange mixing (CP-SCF)             ...  0.200
   GGA exch. scaling(SCF)               ...  0.720
   GGA exch. scaling (CP-SCF)           ...  0.720
   GGA corr. scaling (SCF)              ...  0.810
   GGA corr. scaling (CP-SCF)           ...  0.810

CP-SCF GRID
-----------

General Integration Accuracy     IntAcc      ... 3.467
Radial Grid Type                 RadialGrid  ... OptM3 with GC (2021)
Angular Grid (max. ang.)         AngularGrid ... 1 (Lebedev-50)
Angular grid pruning method      GridPruning ... 4 (adaptive)
Weight generation scheme         WeightScheme... Becke
Basis function cutoff            BFCut       ... 1.0000e-10
Integration weight cutoff        WCut        ... 1.0000e-14
Angular grids for H and He will be reduced by one unit
Partially contracted basis set               ... off
Rotationally invariant grid construction     ... off

Total number of grid points                  ...    29724
Total number of batches                      ...      486
Average number of points per batch           ...       61
Average number of grid points per atom       ...      619

CP-SCF GRIDX
------------

General Integration Accuracy     IntAcc      ... 3.067
Radial Grid Type                 RadialGrid  ... OptM3 with GC (2021)
Angular Grid (max. ang.)         AngularGrid ... 1 (Lebedev-50)
Angular grid pruning method      GridPruning ... 4 (adaptive)
Weight generation scheme         WeightScheme... Becke
Basis function cutoff            BFCut       ... 1.0000e-10
Integration weight cutoff        WCut        ... 1.0000e-14
Angular grids for H and He will be reduced by one unit
Partially contracted basis set               ... on
Rotationally invariant grid construction     ... off

Total number of grid points                  ...    14089
Total number of batches                      ...      249
Average number of points per batch           ...       56
Average number of grid points per atom       ...      294

Memory available               ... 894.2 MB
Memory needed per perturbation ...  11.6 MB
Perturbations treated per batch... 3
Number of batches              ... 1
     CP-SCF ITERATION   0:   3.7613e-02 (   1.6 sec   0/  3 done)
     CP-SCF ITERATION   1:   7.5734e-04 (   1.6 sec   3/  3 done)
                    *** THE CP-SCF HAS CONVERGED ***

Forming final perturbed densities           ... done
Transforming perturbed density to AO basis  ... done

 Raw HFC matrix (all values in MHz): 
 -----------------------------------
                -0.0166               0.0158               0.0013
                 0.0158               0.0373               0.0046
                 0.0013               0.0046              -0.0206

 A(FC)          -0.0000              -0.0000              -0.0000
 A(SD)          -0.0209              -0.0210               0.0419
 A(ORB+DIA)      0.0000               0.0000               0.0000    A(PC) =   0.0000
 A(ORB)         -0.0000              -0.0000               0.0000    A(PC) =  -0.0000
 A(DIA)          0.0000               0.0000               0.0000    A(PC) =   0.0000
             ----------           ----------           ----------
 A(Tot)         -0.0209              -0.0210               0.0419    A(iso)=    0.0000
 Orientation: 
  X           0.9581102            0.1160799            0.2618210
  Y          -0.2685460            0.0463985            0.9621488
  Z           0.0995381           -0.9921555            0.0756277

Notes:  (1) The A matrix conforms to the "SAI" spin Hamiltonian convention.
        (2) Tensor is right-handed.

 -----------------------------------------------------------
 Nucleus  21H : A:ISTP=    1 I=  0.5 P=533.5514 MHz/au**3
                Q:ISTP=    2 I=  1.0 Q=  0.0029 barn     
 -----------------------------------------------------------
 Solving for nuclear perturbation:
Forming RHS of the CP-SCF equations         ... 
Calc. nucleus orbit integrals (SHARK)       ... done

------------------------------------------------------------------------------
                           ORCA CP-SCF CALCULATION
------------------------------------------------------------------------------

Input orbitals are from        ... cc-pVDZ.gbw
Input Perturbation             ... cc-pVDZ.pin.tmp
Wavefunction output            ... cc-pVDZ.pout.tmp
Perturbation mode              ... Imaginary perturbation
Solver                         ... POPLE
Max. number of iterations      ... 64
Convergence tolerance          ... 1.000e-03
Integral handling              ... Direct
DFT GridXC                     ... 1
COSX GridX                     ... 1
COSX IntAccX                   ... 3.067
COSX Algorithm                 ... Auto
Number of perturbations        ... 3
Number of operators            ... 2
Orbital ranges used for CP-SCF:
 Operator 0:  Orbitals   0... 76  to  77...428
 Operator 1:  Orbitals   0... 75  to  76...428
Variables per perturbation     ... 53932
DFT calculation                         ... on
XC functional terms                     ... off
Hybrid DFT                              ... on
   Exchange mixing (SCF)                ...  0.200
   Exchange mixing (CP-SCF)             ...  0.200
   GGA exch. scaling(SCF)               ...  0.720
   GGA exch. scaling (CP-SCF)           ...  0.720
   GGA corr. scaling (SCF)              ...  0.810
   GGA corr. scaling (CP-SCF)           ...  0.810

CP-SCF GRID
-----------

General Integration Accuracy     IntAcc      ... 3.467
Radial Grid Type                 RadialGrid  ... OptM3 with GC (2021)
Angular Grid (max. ang.)         AngularGrid ... 1 (Lebedev-50)
Angular grid pruning method      GridPruning ... 4 (adaptive)
Weight generation scheme         WeightScheme... Becke
Basis function cutoff            BFCut       ... 1.0000e-10
Integration weight cutoff        WCut        ... 1.0000e-14
Angular grids for H and He will be reduced by one unit
Partially contracted basis set               ... off
Rotationally invariant grid construction     ... off

Total number of grid points                  ...    29724
Total number of batches                      ...      486
Average number of points per batch           ...       61
Average number of grid points per atom       ...      619

CP-SCF GRIDX
------------

General Integration Accuracy     IntAcc      ... 3.067
Radial Grid Type                 RadialGrid  ... OptM3 with GC (2021)
Angular Grid (max. ang.)         AngularGrid ... 1 (Lebedev-50)
Angular grid pruning method      GridPruning ... 4 (adaptive)
Weight generation scheme         WeightScheme... Becke
Basis function cutoff            BFCut       ... 1.0000e-10
Integration weight cutoff        WCut        ... 1.0000e-14
Angular grids for H and He will be reduced by one unit
Partially contracted basis set               ... on
Rotationally invariant grid construction     ... off

Total number of grid points                  ...    14089
Total number of batches                      ...      249
Average number of points per batch           ...       56
Average number of grid points per atom       ...      294

Memory available               ... 893.7 MB
Memory needed per perturbation ...  11.6 MB
Perturbations treated per batch... 3
Number of batches              ... 1
     CP-SCF ITERATION   0:   3.6146e-02 (   1.6 sec   0/  3 done)
     CP-SCF ITERATION   1:   6.1109e-04 (   1.6 sec   3/  3 done)
                    *** THE CP-SCF HAS CONVERGED ***

Forming final perturbed densities           ... done
Transforming perturbed density to AO basis  ... done

 Raw HFC matrix (all values in MHz): 
 -----------------------------------
                -0.0165               0.0061              -0.0002
                 0.0061               0.0339              -0.0019
                -0.0002              -0.0019              -0.0173

 A(FC)           0.0000               0.0000               0.0000
 A(SD)          -0.0173              -0.0174               0.0347
 A(ORB+DIA)      0.0000               0.0000               0.0000    A(PC) =   0.0000
 A(ORB)         -0.0000              -0.0000               0.0000    A(PC) =  -0.0000
 A(DIA)          0.0000               0.0000               0.0000    A(PC) =   0.0000
             ----------           ----------           ----------
 A(Tot)         -0.0173              -0.0174               0.0347    A(iso)=    0.0000
 Orientation: 
  X           0.9927214            0.0163667           -0.1193163
  Y          -0.1198250            0.0347530           -0.9921866
  Z          -0.0120922            0.9992619            0.0364612

Notes:  (1) The A matrix conforms to the "SAI" spin Hamiltonian convention.
        (2) Tensor is right-handed.

 -----------------------------------------------------------
 Nucleus  22H : A:ISTP=    1 I=  0.5 P=533.5514 MHz/au**3
                Q:ISTP=    2 I=  1.0 Q=  0.0029 barn     
 -----------------------------------------------------------
 Solving for nuclear perturbation:
Forming RHS of the CP-SCF equations         ... 
Calc. nucleus orbit integrals (SHARK)       ... done

------------------------------------------------------------------------------
                           ORCA CP-SCF CALCULATION
------------------------------------------------------------------------------

Input orbitals are from        ... cc-pVDZ.gbw
Input Perturbation             ... cc-pVDZ.pin.tmp
Wavefunction output            ... cc-pVDZ.pout.tmp
Perturbation mode              ... Imaginary perturbation
Solver                         ... POPLE
Max. number of iterations      ... 64
Convergence tolerance          ... 1.000e-03
Integral handling              ... Direct
DFT GridXC                     ... 1
COSX GridX                     ... 1
COSX IntAccX                   ... 3.067
COSX Algorithm                 ... Auto
Number of perturbations        ... 3
Number of operators            ... 2
Orbital ranges used for CP-SCF:
 Operator 0:  Orbitals   0... 76  to  77...428
 Operator 1:  Orbitals   0... 75  to  76...428
Variables per perturbation     ... 53932
DFT calculation                         ... on
XC functional terms                     ... off
Hybrid DFT                              ... on
   Exchange mixing (SCF)                ...  0.200
   Exchange mixing (CP-SCF)             ...  0.200
   GGA exch. scaling(SCF)               ...  0.720
   GGA exch. scaling (CP-SCF)           ...  0.720
   GGA corr. scaling (SCF)              ...  0.810
   GGA corr. scaling (CP-SCF)           ...  0.810

CP-SCF GRID
-----------

General Integration Accuracy     IntAcc      ... 3.467
Radial Grid Type                 RadialGrid  ... OptM3 with GC (2021)
Angular Grid (max. ang.)         AngularGrid ... 1 (Lebedev-50)
Angular grid pruning method      GridPruning ... 4 (adaptive)
Weight generation scheme         WeightScheme... Becke
Basis function cutoff            BFCut       ... 1.0000e-10
Integration weight cutoff        WCut        ... 1.0000e-14
Angular grids for H and He will be reduced by one unit
Partially contracted basis set               ... off
Rotationally invariant grid construction     ... off

Total number of grid points                  ...    29724
Total number of batches                      ...      486
Average number of points per batch           ...       61
Average number of grid points per atom       ...      619

CP-SCF GRIDX
------------

General Integration Accuracy     IntAcc      ... 3.067
Radial Grid Type                 RadialGrid  ... OptM3 with GC (2021)
Angular Grid (max. ang.)         AngularGrid ... 1 (Lebedev-50)
Angular grid pruning method      GridPruning ... 4 (adaptive)
Weight generation scheme         WeightScheme... Becke
Basis function cutoff            BFCut       ... 1.0000e-10
Integration weight cutoff        WCut        ... 1.0000e-14
Angular grids for H and He will be reduced by one unit
Partially contracted basis set               ... on
Rotationally invariant grid construction     ... off

Total number of grid points                  ...    14089
Total number of batches                      ...      249
Average number of points per batch           ...       56
Average number of grid points per atom       ...      294

Memory available               ... 893.3 MB
Memory needed per perturbation ...  11.6 MB
Perturbations treated per batch... 3
Number of batches              ... 1
     CP-SCF ITERATION   0:   3.6208e-02 (   1.6 sec   0/  3 done)
     CP-SCF ITERATION   1:   6.1044e-04 (   1.6 sec   3/  3 done)
                    *** THE CP-SCF HAS CONVERGED ***

Forming final perturbed densities           ... done
Transforming perturbed density to AO basis  ... done

 Raw HFC matrix (all values in MHz): 
 -----------------------------------
                -0.0166               0.0061               0.0004
                 0.0061               0.0337               0.0037
                 0.0004               0.0037              -0.0171

 A(FC)           0.0000               0.0000               0.0000
 A(SD)          -0.0173              -0.0174               0.0347
 A(ORB+DIA)      0.0000               0.0000               0.0000    A(PC) =   0.0000
 A(ORB)         -0.0000              -0.0000               0.0000    A(PC) =  -0.0000
 A(DIA)          0.0000               0.0000               0.0000    A(PC) =   0.0000
             ----------           ----------           ----------
 A(Tot)         -0.0173              -0.0174               0.0347    A(iso)=    0.0000
 Orientation: 
  X           0.9923137            0.0362953            0.1183052
  Y          -0.1205681            0.0682457            0.9903564
  Z           0.0278715           -0.9970081            0.0720972

Notes:  (1) The A matrix conforms to the "SAI" spin Hamiltonian convention.
        (2) Tensor is right-handed.

 -----------------------------------------------------------
 Nucleus  24H : A:ISTP=    1 I=  0.5 P=533.5514 MHz/au**3
                Q:ISTP=    2 I=  1.0 Q=  0.0029 barn     
 -----------------------------------------------------------
 Solving for nuclear perturbation:
Forming RHS of the CP-SCF equations         ... 
Calc. nucleus orbit integrals (SHARK)       ... done

------------------------------------------------------------------------------
                           ORCA CP-SCF CALCULATION
------------------------------------------------------------------------------

Input orbitals are from        ... cc-pVDZ.gbw
Input Perturbation             ... cc-pVDZ.pin.tmp
Wavefunction output            ... cc-pVDZ.pout.tmp
Perturbation mode              ... Imaginary perturbation
Solver                         ... POPLE
Max. number of iterations      ... 64
Convergence tolerance          ... 1.000e-03
Integral handling              ... Direct
DFT GridXC                     ... 1
COSX GridX                     ... 1
COSX IntAccX                   ... 3.067
COSX Algorithm                 ... Auto
Number of perturbations        ... 3
Number of operators            ... 2
Orbital ranges used for CP-SCF:
 Operator 0:  Orbitals   0... 76  to  77...428
 Operator 1:  Orbitals   0... 75  to  76...428
Variables per perturbation     ... 53932
DFT calculation                         ... on
XC functional terms                     ... off
Hybrid DFT                              ... on
   Exchange mixing (SCF)                ...  0.200
   Exchange mixing (CP-SCF)             ...  0.200
   GGA exch. scaling(SCF)               ...  0.720
   GGA exch. scaling (CP-SCF)           ...  0.720
   GGA corr. scaling (SCF)              ...  0.810
   GGA corr. scaling (CP-SCF)           ...  0.810

CP-SCF GRID
-----------

General Integration Accuracy     IntAcc      ... 3.467
Radial Grid Type                 RadialGrid  ... OptM3 with GC (2021)
Angular Grid (max. ang.)         AngularGrid ... 1 (Lebedev-50)
Angular grid pruning method      GridPruning ... 4 (adaptive)
Weight generation scheme         WeightScheme... Becke
Basis function cutoff            BFCut       ... 1.0000e-10
Integration weight cutoff        WCut        ... 1.0000e-14
Angular grids for H and He will be reduced by one unit
Partially contracted basis set               ... off
Rotationally invariant grid construction     ... off

Total number of grid points                  ...    29724
Total number of batches                      ...      486
Average number of points per batch           ...       61
Average number of grid points per atom       ...      619

CP-SCF GRIDX
------------

General Integration Accuracy     IntAcc      ... 3.067
Radial Grid Type                 RadialGrid  ... OptM3 with GC (2021)
Angular Grid (max. ang.)         AngularGrid ... 1 (Lebedev-50)
Angular grid pruning method      GridPruning ... 4 (adaptive)
Weight generation scheme         WeightScheme... Becke
Basis function cutoff            BFCut       ... 1.0000e-10
Integration weight cutoff        WCut        ... 1.0000e-14
Angular grids for H and He will be reduced by one unit
Partially contracted basis set               ... on
Rotationally invariant grid construction     ... off

Total number of grid points                  ...    14089
Total number of batches                      ...      249
Average number of points per batch           ...       56
Average number of grid points per atom       ...      294

Memory available               ... 892.8 MB
Memory needed per perturbation ...  11.6 MB
Perturbations treated per batch... 3
Number of batches              ... 1
     CP-SCF ITERATION   0:   3.9419e-02 (   1.5 sec   0/  3 done)
     CP-SCF ITERATION   1:   1.4728e-03 (   1.7 sec   2/  3 done)
     CP-SCF ITERATION   2:   7.9311e-05 (   1.2 sec   3/  3 done)
                    *** THE CP-SCF HAS CONVERGED ***

Forming final perturbed densities           ... done
Transforming perturbed density to AO basis  ... done

