
                                 *****************
                                 * O   R   C   A *
                                 *****************

                                            #,                                       
                                            ###                                      
                                            ####                                     
                                            #####                                    
                                            ######                                   
                                           ########,                                 
                                     ,,################,,,,,                         
                               ,,#################################,,                 
                          ,,##########################################,,             
                       ,#########################################, ''#####,          
                    ,#############################################,,   '####,        
                  ,##################################################,,,,####,       
                ,###########''''           ''''###############################       
              ,#####''   ,,,,##########,,,,          '''####'''          '####       
            ,##' ,,,,###########################,,,                        '##       
           ' ,,###''''                  '''############,,,                           
         ,,##''                                '''############,,,,        ,,,,,,###''
      ,#''                                            '''#######################'''  
     '                                                          ''''####''''         
             ,#######,   #######,   ,#######,      ##                                
            ,#'     '#,  ##    ##  ,#'     '#,    #''#        ######   ,####,        
            ##       ##  ##   ,#'  ##            #'  '#       #        #'  '#        
            ##       ##  #######   ##           ,######,      #####,   #    #        
            '#,     ,#'  ##    ##  '#,     ,#' ,#      #,         ##   #,  ,#        
             '#######'   ##     ##  '#######'  #'      '#     #####' # '####'        



                  #######################################################
                  #                        -***-                        #
                  #          Department of theory and spectroscopy      #
                  #    Directorship and core code : Frank Neese         #
                  #        Max Planck Institute fuer Kohlenforschung    #
                  #                Kaiser Wilhelm Platz 1               #
                  #                 D-45470 Muelheim/Ruhr               #
                  #                      Germany                        #
                  #                                                     #
                  #                  All rights reserved                #
                  #                        -***-                        #
                  #######################################################


                         Program Version 5.0.4 -  RELEASE  -


 With contributions from (in alphabetic order):
   Daniel Aravena         : Magnetic Suceptibility
   Michael Atanasov       : Ab Initio Ligand Field Theory (pilot matlab implementation)
   Alexander A. Auer      : GIAO ZORA, VPT2 properties, NMR spectrum
   Ute Becker             : Parallelization
   Giovanni Bistoni       : ED, misc. LED, open-shell LED, HFLD
   Martin Brehm           : Molecular dynamics
   Dmytro Bykov           : SCF Hessian
   Vijay G. Chilkuri      : MRCI spin determinant printing, contributions to CSF-ICE
   Dipayan Datta          : RHF DLPNO-CCSD density
   Achintya Kumar Dutta   : EOM-CC, STEOM-CC
   Dmitry Ganyushin       : Spin-Orbit,Spin-Spin,Magnetic field MRCI
   Miquel Garcia          : C-PCM and meta-GGA Hessian, CC/C-PCM, Gaussian charge scheme
   Yang Guo               : DLPNO-NEVPT2, F12-NEVPT2, CIM, IAO-localization
   Andreas Hansen         : Spin unrestricted coupled pair/coupled cluster methods
   Benjamin Helmich-Paris : MC-RPA, TRAH-SCF, COSX integrals
   Lee Huntington         : MR-EOM, pCC
   Robert Izsak           : Overlap fitted RIJCOSX, COSX-SCS-MP3, EOM
   Marcus Kettner         : VPT2
   Christian Kollmar      : KDIIS, OOCD, Brueckner-CCSD(T), CCSD density, CASPT2, CASPT2-K
   Simone Kossmann        : Meta GGA functionals, TD-DFT gradient, OOMP2, MP2 Hessian
   Martin Krupicka        : Initial AUTO-CI
   Lucas Lang             : DCDCAS
   Marvin Lechner         : AUTO-CI (C++ implementation), FIC-MRCC
   Dagmar Lenk            : GEPOL surface, SMD
   Dimitrios Liakos       : Extrapolation schemes; Compound Job, initial MDCI parallelization
   Dimitrios Manganas     : Further ROCIS development; embedding schemes
   Dimitrios Pantazis     : SARC Basis sets
   Anastasios Papadopoulos: AUTO-CI, single reference methods and gradients
   Taras Petrenko         : DFT Hessian,TD-DFT gradient, ASA, ECA, R-Raman, ABS, FL, XAS/XES, NRVS
   Peter Pinski           : DLPNO-MP2, DLPNO-MP2 Gradient
   Christoph Reimann      : Effective Core Potentials
   Marius Retegan         : Local ZFS, SOC
   Christoph Riplinger    : Optimizer, TS searches, QM/MM, DLPNO-CCSD(T), (RO)-DLPNO pert. Triples
   Tobias Risthaus        : Range-separated hybrids, TD-DFT gradient, RPA, STAB
   Michael Roemelt        : Original ROCIS implementation
   Masaaki Saitow         : Open-shell DLPNO-CCSD energy and density
   Barbara Sandhoefer     : DKH picture change effects
   Avijit Sen             : IP-ROCIS
   Kantharuban Sivalingam : CASSCF convergence, NEVPT2, FIC-MRCI
   Bernardo de Souza      : ESD, SOC TD-DFT
   Georgi Stoychev        : AutoAux, RI-MP2 NMR, DLPNO-MP2 response
   Willem Van den Heuvel  : Paramagnetic NMR
   Boris Wezisla          : Elementary symmetry handling
   Frank Wennmohs         : Technical directorship


 We gratefully acknowledge several colleagues who have allowed us to
 interface, adapt or use parts of their codes:
   Stefan Grimme, W. Hujo, H. Kruse, P. Pracht,  : VdW corrections, initial TS optimization,
                  C. Bannwarth, S. Ehlert          DFT functionals, gCP, sTDA/sTD-DF
   Ed Valeev, F. Pavosevic, A. Kumar             : LibInt (2-el integral package), F12 methods
   Garnet Chan, S. Sharma, J. Yang, R. Olivares  : DMRG
   Ulf Ekstrom                                   : XCFun DFT Library
   Mihaly Kallay                                 : mrcc  (arbitrary order and MRCC methods)
   Jiri Pittner, Ondrej Demel                    : Mk-CCSD
   Frank Weinhold                                : gennbo (NPA and NBO analysis)
   Christopher J. Cramer and Donald G. Truhlar   : smd solvation model
   Lars Goerigk                                  : TD-DFT with DH, B97 family of functionals
   V. Asgeirsson, H. Jonsson                     : NEB implementation
   FAccTs GmbH                                   : IRC, NEB, NEB-TS, DLPNO-Multilevel, CI-OPT
                                                   MM, QMMM, 2- and 3-layer-ONIOM, Crystal-QMMM,
                                                   LR-CPCM, SF, NACMEs, symmetry and pop. for TD-DFT,
                                                   nearIR, NL-DFT gradient (VV10), updates on ESD,
                                                   ML-optimized integration grids
   S Lehtola, MJT Oliveira, MAL Marques          : LibXC Library
   Liviu Ungur et al                             : ANISO software


 Your calculation uses the libint2 library for the computation of 2-el integrals
 For citations please refer to: http://libint.valeyev.net

 Your ORCA version has been built with support for libXC version: 5.1.0
 For citations please refer to: https://tddft.org/programs/libxc/

 This ORCA versions uses:
   CBLAS   interface :  Fast vector & matrix operations
   LAPACKE interface :  Fast linear algebra routines
   SCALAPACK package :  Parallel linear algebra routines
   Shared memory     :  Shared parallel matrices
   BLAS/LAPACK       :  OpenBLAS 0.3.15  USE64BITINT DYNAMIC_ARCH NO_AFFINITY SkylakeX SINGLE_THREADED
        Core in use  :  SkylakeX
   Copyright (c) 2011-2014, The OpenBLAS Project




***************************************
The coordinates will be read from file: opt_cc-pVDZ.xyz
***************************************


================================================================================

----- Orbital basis set information -----
Your calculation utilizes the basis: cc-pVDZ 
       H, B-Ne : Obtained from the ccRepo (grant-hill.group.shef.ac.uk/ccrepo) Feb. 2017
                 T. H. Dunning, Jr., J. Chem. Phys. 90, 1007 (1989)
            He : Obtained from the ccRepo (grant-hill.group.shef.ac.uk/ccrepo) Feb. 2017
                 D. E. Woon, T. H. Dunning, Jr., J. Chem. Phys. 100, 2975 (1994)
  Li-Be, Na-Mg : Obtained from the ccRepo (grant-hill.group.shef.ac.uk/ccrepo) Feb. 2017
                 B. P. Prascher, D. E. Woon, K. A. Peterson, T. H. Dunning, Jr., A. K. Wilson, Theor. Chem. Acc. 128, 69 (2011)
         Al-Ar : Obtained from the ccRepo (grant-hill.group.shef.ac.uk/ccrepo) Feb. 2017
                 D. E. Woon, T. H. Dunning, Jr., J. Chem. Phys. 98, 1358 (1993)
            Ca : Obtained from the Peterson Research Group Website (tyr0.chem.wsu.edu/~kipeters) Feb. 2017
                 J. Koput, K. A. Peterson, J. Phys. Chem. 106, 9595 (2002)
         Sc-Zn : Obtained from the ccRepo (grant-hill.group.shef.ac.uk/ccrepo) Feb. 2017
                 N. B. Balabanov, K. A. Peterson, J. Chem. Phys. 123, 064107 (2005)
                 N. B. Balabanov, K. A. Peterson, J. Chem. Phys. 125, 074110 (2006)
         Ga-Kr : Obtained from the ccRepo (grant-hill.group.shef.ac.uk/ccrepo) Feb. 2017
                 A. K. Wilson, D. E. Woon, K. A. Peterson, T. H. Dunning, Jr., J. Chem. Phys. 110, 7667 (1999)

----- AuxJ basis set information -----
Your calculation utilizes the AutoAux generation procedure.
  G. L. Stoychev, A. A. Auer, F. Neese, J. Chem. Theory Comput. 13, 554 (2017)

----- AuxC basis set information -----
Your calculation utilizes the AutoAux generation procedure.
  G. L. Stoychev, A. A. Auer, F. Neese, J. Chem. Theory Comput. 13, 554 (2017)

----- AuxJK basis set information -----
Your calculation utilizes the AutoAux generation procedure.
  G. L. Stoychev, A. A. Auer, F. Neese, J. Chem. Theory Comput. 13, 554 (2017)

================================================================================
                                        WARNINGS
                       Please study these warnings very carefully!
================================================================================

WARNING: Old DensityContainer found on disk!
         Will remove this file - 
         If you want to keep old densities, please start your calculation with a different basename. 


WARNING: your system is open-shell and RHF/RKS was chosen
  ===> : WILL SWITCH to UHF/UKS


INFO   : the flag for use of the SHARK integral package has been found!

================================================================================
                                       INPUT FILE
================================================================================
NAME = cc-pVDZ_i.inp
|  1> ! B3LYP cc-pVDZ AUTOAUX
|  2> %pal nprocs 16 end
|  3> *XYZFile 0 2 opt_cc-pVDZ.xyz
|  4> %EPRNMR
|  5>         GTENSOR   TRUE
|  6>         NUCLEI    = ALL H {SHIFT, AISO, ADIP, AORB}
|  7>         ORI       GIAO
|  8> END
|  9> 
| 10>                          ****END OF INPUT****
================================================================================

                       ****************************
                       * Single Point Calculation *
                       ****************************

---------------------------------
CARTESIAN COORDINATES (ANGSTROEM)
---------------------------------
  C     -4.033080    0.126001   -0.121548
  C     -2.818536    0.064328   -0.114981
  C      2.844718   -0.087648   -0.095173
  C     -1.387290    0.001722   -0.110579
  C     -0.717398   -1.248535   -0.132435
  C      0.677909   -1.227259   -0.126251
  C      1.413467   -0.025401   -0.099658
  C      0.743536    1.224841   -0.077555
  C     -0.651756    1.203548   -0.083753
  H      1.237533   -2.162213   -0.142332
  H     -1.211559    2.138375   -0.067685
  C     -1.519068   -2.535706   -0.160991
  H     -2.192925   -2.502924   -1.036866
  H     -2.199353   -2.537470    0.710545
  C     -0.725160   -3.844420   -0.183718
  H     -0.057208   -3.864011   -1.064600
  H     -0.067642   -3.900582    0.703440
  C     -1.630143   -5.082054   -0.214836
  H     -2.302560   -5.063105    0.662886
  H     -2.289147   -5.028488   -1.101266
  C     -0.849633   -6.398703   -0.234918
  H     -0.209902   -6.498953    0.658925
  H     -0.192376   -6.461243   -1.119433
  C      1.544993    2.512310   -0.047940
  H      2.211758    2.483614    0.833487
  H      2.231963    2.511170   -0.914040
  C      0.748808    3.820008   -0.036456
  H      0.094729    3.868291   -0.926329
  H      0.077484    3.843063    0.841477
  C      1.650713    5.060034   -0.009632
  H      2.308710    5.014913    0.878706
  H      2.325390    5.040811   -0.886305
  C      0.871015    6.379724    0.002331
  H      0.195936    6.397406    0.879128
  H      0.212835    6.423112   -0.886352
  C      1.767957    7.622335    0.029020
  H      2.440916    7.614574   -0.848061
  H      2.423918    7.589030    0.918301
  C      0.965872    8.948839    0.040560
  H      0.313202    8.963270   -0.852497
  H      0.294853    8.936761    0.919966
  C      1.820831   10.171661    0.067843
  H      2.201274   10.569149    1.013131
  H      2.219595   10.598163   -0.857016
  C      4.059305   -0.148728   -0.093138
  H     -5.104104    0.181279   -0.125361
  H      5.130387   -0.202926   -0.090250
  H     -1.525724   -7.268710   -0.260063

----------------------------
CARTESIAN COORDINATES (A.U.)
----------------------------
  NO LB      ZA    FRAG     MASS         X           Y           Z
   0 C     6.0000    0    12.011   -7.621417    0.238107   -0.229693
   1 C     6.0000    0    12.011   -5.326262    0.121562   -0.217283
   2 C     6.0000    0    12.011    5.375737   -0.165631   -0.179851
   3 C     6.0000    0    12.011   -2.621599    0.003253   -0.208964
   4 C     6.0000    0    12.011   -1.355686   -2.359389   -0.250266
   5 C     6.0000    0    12.011    1.281061   -2.319183   -0.238580
   6 C     6.0000    0    12.011    2.671065   -0.048000   -0.188326
   7 C     6.0000    0    12.011    1.405079    2.314613   -0.146559
   8 C     6.0000    0    12.011   -1.231641    2.274377   -0.158270
   9 H     1.0000    0     1.008    2.338598   -4.085990   -0.268968
  10 H     1.0000    0     1.008   -2.289515    4.040943   -0.127906
  11 C     6.0000    0    12.011   -2.870622   -4.791791   -0.304229
  12 H     1.0000    0     1.008   -4.144027   -4.729840   -1.959393
  13 H     1.0000    0     1.008   -4.156174   -4.795123    1.342735
  14 C     6.0000    0    12.011   -1.370354   -7.264900   -0.347177
  15 H     1.0000    0     1.008   -0.108107   -7.301922   -2.011802
  16 H     1.0000    0     1.008   -0.127826   -7.371031    1.329308
  17 C     6.0000    0    12.011   -3.080523   -9.603691   -0.405982
  18 H     1.0000    0     1.008   -4.351207   -9.567881    1.252672
  19 H     1.0000    0     1.008   -4.325861   -9.502465   -2.081091
  20 C     6.0000    0    12.011   -1.605573  -12.091796   -0.443931
  21 H     1.0000    0     1.008   -0.396657  -12.281242    1.245189
  22 H     1.0000    0     1.008   -0.363537  -12.209980   -2.115423
  23 C     6.0000    0    12.011    2.919613    4.747579   -0.090593
  24 H     1.0000    0     1.008    4.179617    4.693350    1.575062
  25 H     1.0000    0     1.008    4.217798    4.745424   -1.727286
  26 C     6.0000    0    12.011    1.415043    7.218768   -0.068893
  27 H     1.0000    0     1.008    0.179011    7.310010   -1.750508
  28 H     1.0000    0     1.008    0.146424    7.262337    1.590160
  29 C     6.0000    0    12.011    3.119395    9.562079   -0.018202
  30 H     1.0000    0     1.008    4.362830    9.476812    1.660514
  31 H     1.0000    0     1.008    4.394350    9.525753   -1.674873
  32 C     6.0000    0    12.011    1.645979   12.055931    0.004405
  33 H     1.0000    0     1.008    0.370265   12.089345    1.661312
  34 H     1.0000    0     1.008    0.402200   12.137924   -1.674962
  35 C     6.0000    0    12.011    3.340955   14.404125    0.054840
  36 H     1.0000    0     1.008    4.612662   14.389459   -1.602603
  37 H     1.0000    0     1.008    4.580541   14.341189    1.735338
  38 C     6.0000    0    12.011    1.825234   16.910856    0.076647
  39 H     1.0000    0     1.008    0.591866   16.938125   -1.610985
  40 H     1.0000    0     1.008    0.557191   16.888031    1.738484
  41 C     6.0000    0    12.011    3.440872   19.221653    0.128205
  42 H     1.0000    0     1.008    4.159806   19.972797    1.914540
  43 H     1.0000    0     1.008    4.194427   20.027626   -1.619526
  44 C     6.0000    0    12.011    7.670975   -0.281055   -0.176005
  45 H     1.0000    0     1.008   -9.645358    0.342569   -0.236897
  46 H     1.0000    0     1.008    9.695027   -0.383475   -0.170547
  47 H     1.0000    0     1.008   -2.883200  -13.735871   -0.491448

--------------------------------
INTERNAL COORDINATES (ANGSTROEM)
--------------------------------
 C      0   0   0     0.000000000000     0.00000000     0.00000000
 C      1   0   0     1.216126473542     0.00000000     0.00000000
 C      2   1   0     5.665327481649   178.62597315     0.00000000
 C      2   1   3     1.432621441777   179.57625216   346.20847973
 C      4   2   1     1.418581965060   120.67989269   199.47384881
 C      5   4   2     1.395482567388   117.30075214   180.01295001
 C      6   5   4     1.409331728721   122.33983885     0.00000000
 C      7   6   5     1.418590529836   120.35784777     0.00000000
 C      8   7   6     1.395468339402   117.30164854     0.00000000
 H      6   5   4     1.089760309124   120.02109455   179.99873051
 H      9   8   7     1.089742032457   120.03193021   180.01302080
 C      5   4   2     1.516673875000   119.91158768     0.00000000
 H     12   5   4     1.105583580434   108.17478937    56.27068500
 H     12   5   4     1.105606527268   108.16434635   303.68226269
 C     12   5   4     1.530861196418   116.85200764   179.99053406
 H     15  12   5     1.105666058880   109.89343079   301.87193221
 H     15  12   5     1.105682076011   109.87133958    58.38354655
 C     15  12   5     1.533525792299   112.59381947   180.12685130
 H     18  15  12     1.105847824886   109.20187005   302.47410866
 H     18  15  12     1.105854090174   109.19876918    57.77815641
 C     18  15  12     1.530739398318   113.17494181   180.11758860
 H     21  18  15     1.103749174194   111.28648146    60.01986165
 H     21  18  15     1.103750317197   111.27705036   300.30196315
 C      8   7   6     1.516835299942   119.92307952   179.95312219
 H     24   8   7     1.105582450954   108.19137391   303.21214261
 H     24   8   7     1.105467857784   108.19034144    55.84196770
 C     24   8   7     1.531049650559   116.76567192   179.53084476
 H     27  24   8     1.105452176477   109.81346793   301.90286213
 H     27  24   8     1.105429363310   109.85132342    58.35549196
 C     27  24   8     1.533563652394   112.63951212   180.12956218
 H     30  27  24     1.106409268106   109.31889896   302.30112033
 H     30  27  24     1.106396791896   109.31241439    57.71786803
 C     30  27  24     1.532857463088   113.39917652   180.00592390
 H     33  30  27     1.106714946680   109.28157417    57.68432263
 H     33  30  27     1.106725003613   109.26808099   302.31660678
 C     33  30  27     1.532742571832   113.60598340   180.00513443
 H     36  33  30     1.105533669484   109.67649002    58.04116082
 H     36  33  30     1.105538042600   109.68202529   301.93166656
 C     36  33  30     1.550189913586   113.02146561   179.98749078
 H     39  36  33     1.106226209264   108.08477835   302.50478590
 H     39  36  33     1.106241048105   108.08476310    57.39968082
 C     39  36  33     1.492310634798   113.88383463   179.94599798
 H     42  39  36     1.093756205493   120.85489385   275.13183421
 H     42  39  36     1.093746811829   120.86000559    84.96131551
 C      3   2   1     1.216124157977   178.65424292   189.00470827
 H      1   2   4     1.072455812154   179.88402719   275.93917134
 H     45   3   7     1.072456127646   179.93890939   274.91297134
 H     21  18  15     1.102108367872   111.49998484   180.16599549

---------------------------
INTERNAL COORDINATES (A.U.)
---------------------------
 C      0   0   0     0.000000000000     0.00000000     0.00000000
 C      1   0   0     2.298145979206     0.00000000     0.00000000
 C      2   1   0    10.705917399295   178.62597315     0.00000000
 C      2   1   3     2.707262178541   179.57625216   346.20847973
 C      4   2   1     2.680731412484   120.67989269   199.47384881
 C      5   4   2     2.637079877024   117.30075214   180.01295001
 C      6   5   4     2.663250999128   122.33983885     0.00000000
 C      7   6   5     2.680747597565   120.35784777     0.00000000
 C      8   7   6     2.637052990028   117.30164854     0.00000000
 H      6   5   4     2.059348535861   120.02109455   179.99873051
 H      9   8   7     2.059313997966   120.03193021   180.01302080
 C      5   4   2     2.866098258224   119.91158768     0.00000000
 H     12   5   4     2.089250185181   108.17478937    56.27068500
 H     12   5   4     2.089293548413   108.16434635   303.68226269
 C     12   5   4     2.892908410277   116.85200764   179.99053406
 H     15  12   5     2.089406046855   109.89343079   301.87193221
 H     15  12   5     2.089436314846   109.87133958    58.38354655
 C     15  12   5     2.897943766749   112.59381947   180.12685130
 H     18  15  12     2.089749534828   109.20187005   302.47410866
 H     18  15  12     2.089761374505   109.19876918    57.77815641
 C     18  15  12     2.892678245225   113.17494181   180.11758860
 H     21  18  15     2.085783659768   111.28648146    60.01986165
 H     21  18  15     2.085785819732   111.27705036   300.30196315
 C      8   7   6     2.866403307154   119.92307952   179.95312219
 H     24   8   7     2.089248050773   108.19137391   303.21214261
 H     24   8   7     2.089031501065   108.19034144    55.84196770
 C     24   8   7     2.893264536991   116.76567192   179.53084476
 H     27  24   8     2.089001867689   109.81346793   301.90286213
 H     27  24   8     2.088958757051   109.85132342    58.35549196
 C     27  24   8     2.898015311961   112.63951212   180.12956218
 H     30  27  24     2.090810508752   109.31889896   302.30112033
 H     30  27  24     2.090786932133   109.31241439    57.71786803
 C     30  27  24     2.896680807574   113.39917652   180.00592390
 H     33  30  27     2.091388157543   109.28157417    57.68432263
 H     33  30  27     2.091407162392   109.26808099   302.31660678
 C     33  30  27     2.896463694564   113.60598340   180.00513443
 H     36  33  30     2.089155867153   109.67649002    58.04116082
 H     36  33  30     2.089164131146   109.68202529   301.93166656
 C     36  33  30     2.929434392245   113.02146561   179.98749078
 H     39  36  33     2.090464577675   108.08477835   302.50478590
 H     39  36  33     2.090492619021   108.08476310    57.39968082
 C     39  36  33     2.820058406507   113.88383463   179.94599798
 H     42  39  36     2.066899685659   120.85489385   275.13183421
 H     42  39  36     2.066881934206   120.86000559    84.96131551
 C      3   2   1     2.298141603422   178.65424292   189.00470827
 H      1   2   4     2.026647775703   179.88402719   275.93917134
 H     45   3   7     2.026648371897   179.93890939   274.91297134
 H     21  18  15     2.082682985182   111.49998484   180.16599549

---------------------
BASIS SET INFORMATION
---------------------
There are 2 groups of distinct atoms

 Group   1 Type C   : 17s4p1d contracted to 3s2p1d pattern {881/31/1}
 Group   2 Type H   : 4s1p contracted to 2s1p pattern {31/1}

Atom   0C    basis set group =>   1
Atom   1C    basis set group =>   1
Atom   2C    basis set group =>   1
Atom   3C    basis set group =>   1
Atom   4C    basis set group =>   1
Atom   5C    basis set group =>   1
Atom   6C    basis set group =>   1
Atom   7C    basis set group =>   1
Atom   8C    basis set group =>   1
Atom   9H    basis set group =>   2
Atom  10H    basis set group =>   2
Atom  11C    basis set group =>   1
Atom  12H    basis set group =>   2
Atom  13H    basis set group =>   2
Atom  14C    basis set group =>   1
Atom  15H    basis set group =>   2
Atom  16H    basis set group =>   2
Atom  17C    basis set group =>   1
Atom  18H    basis set group =>   2
Atom  19H    basis set group =>   2
Atom  20C    basis set group =>   1
Atom  21H    basis set group =>   2
Atom  22H    basis set group =>   2
Atom  23C    basis set group =>   1
Atom  24H    basis set group =>   2
Atom  25H    basis set group =>   2
Atom  26C    basis set group =>   1
Atom  27H    basis set group =>   2
Atom  28H    basis set group =>   2
Atom  29C    basis set group =>   1
Atom  30H    basis set group =>   2
Atom  31H    basis set group =>   2
Atom  32C    basis set group =>   1
Atom  33H    basis set group =>   2
Atom  34H    basis set group =>   2
Atom  35C    basis set group =>   1
Atom  36H    basis set group =>   2
Atom  37H    basis set group =>   2
Atom  38C    basis set group =>   1
Atom  39H    basis set group =>   2
Atom  40H    basis set group =>   2
Atom  41C    basis set group =>   1
Atom  42H    basis set group =>   2
Atom  43H    basis set group =>   2
Atom  44C    basis set group =>   1
Atom  45H    basis set group =>   2
Atom  46H    basis set group =>   2
Atom  47H    basis set group =>   2
---------------------------------
AUXILIARY/J BASIS SET INFORMATION
---------------------------------
There are 2 groups of distinct atoms

 Group   1 Type C   : 14s11p10d2f contracted to 14s11p10d2f pattern {11111111111111/11111111111/1111111111/11}
 Group   2 Type H   : 9s2p1d contracted to 9s2p1d pattern {111111111/11/1}

Atom   0C    basis set group =>   1
Atom   1C    basis set group =>   1
Atom   2C    basis set group =>   1
Atom   3C    basis set group =>   1
Atom   4C    basis set group =>   1
Atom   5C    basis set group =>   1
Atom   6C    basis set group =>   1
Atom   7C    basis set group =>   1
Atom   8C    basis set group =>   1
Atom   9H    basis set group =>   2
Atom  10H    basis set group =>   2
Atom  11C    basis set group =>   1
Atom  12H    basis set group =>   2
Atom  13H    basis set group =>   2
Atom  14C    basis set group =>   1
Atom  15H    basis set group =>   2
Atom  16H    basis set group =>   2
Atom  17C    basis set group =>   1
Atom  18H    basis set group =>   2
Atom  19H    basis set group =>   2
Atom  20C    basis set group =>   1
Atom  21H    basis set group =>   2
Atom  22H    basis set group =>   2
Atom  23C    basis set group =>   1
Atom  24H    basis set group =>   2
Atom  25H    basis set group =>   2
Atom  26C    basis set group =>   1
Atom  27H    basis set group =>   2
Atom  28H    basis set group =>   2
Atom  29C    basis set group =>   1
Atom  30H    basis set group =>   2
Atom  31H    basis set group =>   2
Atom  32C    basis set group =>   1
Atom  33H    basis set group =>   2
Atom  34H    basis set group =>   2
Atom  35C    basis set group =>   1
Atom  36H    basis set group =>   2
Atom  37H    basis set group =>   2
Atom  38C    basis set group =>   1
Atom  39H    basis set group =>   2
Atom  40H    basis set group =>   2
Atom  41C    basis set group =>   1
Atom  42H    basis set group =>   2
Atom  43H    basis set group =>   2
Atom  44C    basis set group =>   1
Atom  45H    basis set group =>   2
Atom  46H    basis set group =>   2
Atom  47H    basis set group =>   2
---------------------------------
AUXILIARY/C BASIS SET INFORMATION
---------------------------------
There are 2 groups of distinct atoms

 Group   1 Type C   : 14s11p10d2f contracted to 14s11p10d2f pattern {11111111111111/11111111111/1111111111/11}
 Group   2 Type H   : 9s2p1d contracted to 9s2p1d pattern {111111111/11/1}

Atom   0C    basis set group =>   1
Atom   1C    basis set group =>   1
Atom   2C    basis set group =>   1
Atom   3C    basis set group =>   1
Atom   4C    basis set group =>   1
Atom   5C    basis set group =>   1
Atom   6C    basis set group =>   1
Atom   7C    basis set group =>   1
Atom   8C    basis set group =>   1
Atom   9H    basis set group =>   2
Atom  10H    basis set group =>   2
Atom  11C    basis set group =>   1
Atom  12H    basis set group =>   2
Atom  13H    basis set group =>   2
Atom  14C    basis set group =>   1
Atom  15H    basis set group =>   2
Atom  16H    basis set group =>   2
Atom  17C    basis set group =>   1
Atom  18H    basis set group =>   2
Atom  19H    basis set group =>   2
Atom  20C    basis set group =>   1
Atom  21H    basis set group =>   2
Atom  22H    basis set group =>   2
Atom  23C    basis set group =>   1
Atom  24H    basis set group =>   2
Atom  25H    basis set group =>   2
Atom  26C    basis set group =>   1
Atom  27H    basis set group =>   2
Atom  28H    basis set group =>   2
Atom  29C    basis set group =>   1
Atom  30H    basis set group =>   2
Atom  31H    basis set group =>   2
Atom  32C    basis set group =>   1
Atom  33H    basis set group =>   2
Atom  34H    basis set group =>   2
Atom  35C    basis set group =>   1
Atom  36H    basis set group =>   2
Atom  37H    basis set group =>   2
Atom  38C    basis set group =>   1
Atom  39H    basis set group =>   2
Atom  40H    basis set group =>   2
Atom  41C    basis set group =>   1
Atom  42H    basis set group =>   2
Atom  43H    basis set group =>   2
Atom  44C    basis set group =>   1
Atom  45H    basis set group =>   2
Atom  46H    basis set group =>   2
Atom  47H    basis set group =>   2
----------------------------------
AUXILIARY/JK BASIS SET INFORMATION
----------------------------------
There are 2 groups of distinct atoms

 Group   1 Type C   : 14s11p10d2f contracted to 14s11p10d2f pattern {11111111111111/11111111111/1111111111/11}
 Group   2 Type H   : 9s2p1d contracted to 9s2p1d pattern {111111111/11/1}

Atom   0C    basis set group =>   1
Atom   1C    basis set group =>   1
Atom   2C    basis set group =>   1
Atom   3C    basis set group =>   1
Atom   4C    basis set group =>   1
Atom   5C    basis set group =>   1
Atom   6C    basis set group =>   1
Atom   7C    basis set group =>   1
Atom   8C    basis set group =>   1
Atom   9H    basis set group =>   2
Atom  10H    basis set group =>   2
Atom  11C    basis set group =>   1
Atom  12H    basis set group =>   2
Atom  13H    basis set group =>   2
Atom  14C    basis set group =>   1
Atom  15H    basis set group =>   2
Atom  16H    basis set group =>   2
Atom  17C    basis set group =>   1
Atom  18H    basis set group =>   2
Atom  19H    basis set group =>   2
Atom  20C    basis set group =>   1
Atom  21H    basis set group =>   2
Atom  22H    basis set group =>   2
Atom  23C    basis set group =>   1
Atom  24H    basis set group =>   2
Atom  25H    basis set group =>   2
Atom  26C    basis set group =>   1
Atom  27H    basis set group =>   2
Atom  28H    basis set group =>   2
Atom  29C    basis set group =>   1
Atom  30H    basis set group =>   2
Atom  31H    basis set group =>   2
Atom  32C    basis set group =>   1
Atom  33H    basis set group =>   2
Atom  34H    basis set group =>   2
Atom  35C    basis set group =>   1
Atom  36H    basis set group =>   2
Atom  37H    basis set group =>   2
Atom  38C    basis set group =>   1
Atom  39H    basis set group =>   2
Atom  40H    basis set group =>   2
Atom  41C    basis set group =>   1
Atom  42H    basis set group =>   2
Atom  43H    basis set group =>   2
Atom  44C    basis set group =>   1
Atom  45H    basis set group =>   2
Atom  46H    basis set group =>   2
Atom  47H    basis set group =>   2

Checking for AutoStart:
The File: cc-pVDZ_i.gbw exists
Trying to determine its content:
     ... Fine, the file contains calculation information
     ... Fine, the calculation information was read
     ... Fine, the file contains a basis set
     ... Fine, the basis set was read
     ... Fine, the file contains a geometry
     ... Fine, the geometry was read
     ... Fine, the file contains a set of orbitals
     ... Fine, the orbitals can be read
     => possible old guess file was deleted
     => GBW file was renamed to GES file
     => GES file is set as startup file
     => Guess is set to MORead
     ... now leaving AutoStart



           ************************************************************
           *        Program running with 16 parallel MPI-processes    *
           *              working on a common directory               *
           ************************************************************
------------------------------------------------------------------------------
                           ORCA GTO INTEGRAL CALCULATION
                           -- RI-GTO INTEGRALS CHOSEN --
------------------------------------------------------------------------------
------------------------------------------------------------------------------
                   ___                                                        
                  /   \      - P O W E R E D   B Y -                         
                 /     \                                                     
                 |  |  |   _    _      __       _____    __    __             
                 |  |  |  | |  | |    /  \     |  _  \  |  |  /  |          
                  \  \/   | |  | |   /    \    | | | |  |  | /  /          
                 / \  \   | |__| |  /  /\  \   | |_| |  |  |/  /          
                |  |  |   |  __  | /  /__\  \  |    /   |      \           
                |  |  |   | |  | | |   __   |  |    \   |  |\   \          
                \     /   | |  | | |  |  |  |  | |\  \  |  | \   \       
                 \___/    |_|  |_| |__|  |__|  |_| \__\ |__|  \__/        
                                                                              
                      - O R C A' S   B I G   F R I E N D -                    
                                      &                                       
                       - I N T E G R A L  F E E D E R -                       
                                                                              
 v1 FN, 2020, v2 2021                                                         
------------------------------------------------------------------------------


Reading SHARK input file cc-pVDZ_i.SHARKINP.tmp ... ok
----------------------
SHARK INTEGRAL PACKAGE
----------------------

Number of atoms                             ...     48
Number of basis functions                   ...    555
Number of shells                            ...    333
Maximum angular momentum                    ...      2
Integral batch strategy                     ... SHARK/LIBINT Hybrid
RI-J (if used) integral strategy            ... SPLIT-RIJ (Revised 2003 algorithm where possible)
Printlevel                                  ...      1
Contraction scheme used                     ... PARTIAL GENERAL contraction
Coulomb Range Separation                    ... NOT USED
Exchange Range Separation                   ... NOT USED
Finite Nucleus Model                        ... NOT USED
Auxiliary Coulomb fitting basis             ... AVAILABLE
   # of basis functions in Aux-J            ...   2871
   # of shells in Aux-J                     ...   1101
   Maximum angular momentum in Aux-J        ...      3
Auxiliary J/K fitting basis                 ... AVAILABLE
   # of basis functions in Aux-JK           ...   2871
   # of shells in Aux-JK                    ...   1101
   Maximum angular momentum in Aux-JK       ...      3
Auxiliary Correlation fitting basis         ... AVAILABLE
   # of basis functions in Aux-C            ...   2871
   # of shells in Aux-C                     ...   1101
   Maximum angular momentum in Aux-C        ...      3
Auxiliary 'external' fitting basis          ... NOT available
Integral threshold                          ...     1.000000e-10
Primitive cut-off                           ...     1.000000e-11
Primitive pair pre-selection threshold      ...     1.000000e-11

Calculating pre-screening integrals         ... done (  0.0 sec) Dimension = 333
Calculating pre-screening integrals (ORCA)  ... done (  0.1 sec) Dimension = 207
Organizing shell pair data                  ... done (  0.1 sec)
Shell pair information
Total number of shell pairs                 ...     55611
Shell pairs after pre-screening             ...     22875
Total number of primitive shell pairs       ...     92379
Primitive shell pairs kept                  ...     31631
          la=0 lb=0:  10129 shell pairs
          la=1 lb=0:   8050 shell pairs
          la=1 lb=1:   1428 shell pairs
          la=2 lb=0:   2303 shell pairs
          la=2 lb=1:    830 shell pairs
          la=2 lb=2:    135 shell pairs

Calculating one electron integrals          ... done (  0.0 sec)
Calculating RI/J V-Matrix + Cholesky decomp.... done (  0.5 sec)
Calculating RI/JK V-Matrix + Cholesky decomp... done (  0.5 sec)
Calculating RI/C V-Matrix + Cholesky decomp.... done (  0.5 sec)
Calculating Nuclear repulsion               ... done (  0.0 sec) ENN=   1441.287123662039 Eh

SHARK setup successfully completed in   2.2 seconds

Maximum memory used throughout the entire GTOINT-calculation: 36.6 MB


           ************************************************************
           *        Program running with 16 parallel MPI-processes    *
           *              working on a common directory               *
           ************************************************************
-------------------------------------------------------------------------------
                                 ORCA SCF
-------------------------------------------------------------------------------

------------
SCF SETTINGS
------------
Hamiltonian:
 Density Functional     Method          .... DFT(GTOs)
 Exchange Functional    Exchange        .... B88
   X-Alpha parameter    XAlpha          ....  0.666667
   Becke's b parameter  XBeta           ....  0.004200
 Correlation Functional Correlation     .... LYP
 LDA part of GGA corr.  LDAOpt          .... VWN-5
 Gradients option       PostSCFGGA      .... off
 Hybrid DFT is turned on
   Fraction HF Exchange ScalHFX         ....  0.200000
   Scaling of DF-GGA-X  ScalDFX         ....  0.720000
   Scaling of DF-GGA-C  ScalDFC         ....  0.810000
   Scaling of DF-LDA-C  ScalLDAC        ....  1.000000
   Perturbative correction              ....  0.000000
   Density functional embedding theory  .... OFF
   NL short-range parameter             ....  4.800000
 RI-approximation to the Coulomb term is turned on
   Number of AuxJ basis functions       .... 2871
   RIJ-COSX (HFX calculated with COS-X)).... on


General Settings:
 Integral files         IntName         .... cc-pVDZ_i
 Hartree-Fock type      HFTyp           .... UHF
 Total Charge           Charge          ....    0
 Multiplicity           Mult            ....    2
 Number of Electrons    NEL             ....  153
 Basis Dimension        Dim             ....  429
 Nuclear Repulsion      ENuc            ....   1441.2871236620 Eh

Convergence Acceleration:
 DIIS                   CNVDIIS         .... on
   Start iteration      DIISMaxIt       ....    12
   Startup error        DIISStart       ....  0.200000
   # of expansion vecs  DIISMaxEq       ....     5
   Bias factor          DIISBfac        ....   1.050
   Max. coefficient     DIISMaxC        ....  10.000
 Trust-Rad. Augm. Hess. CNVTRAH         .... auto
   Auto Start mean grad. ratio tolernc. ....  1.125000
   Auto Start start iteration           ....     1
   Auto Start num. interpolation iter.  ....    10
   Max. Number of Micro iterations      ....    16
   Max. Number of Macro iterations      .... Maxiter - #DIIS iter
   Number of Davidson start vectors     ....     2
   Converg. threshold I  (grad. norm)   ....   5.000e-05
   Converg. threshold II (energy diff.) ....   1.000e-06
   Grad. Scal. Fac. for Micro threshold ....   0.100
   Minimum threshold for Micro iter.    ....   0.010
   NR start threshold (gradient norm)   ....   0.001
   Initial trust radius                 ....   0.400
   Minimum AH scaling param. (alpha)    ....   1.000
   Maximum AH scaling param. (alpha)    .... 1000.000
   Orbital update algorithm             .... Taylor
   White noise on init. David. guess    .... on
   Maximum white noise                  ....   0.010
   Quad. conv. algorithm                .... NR
 SOSCF                  CNVSOSCF        .... off
 Level Shifting         CNVShift        .... on
   Level shift para.    LevelShift      ....    0.2500
   Turn off err/grad.   ShiftErr        ....    0.0010
 Zerner damping         CNVZerner       .... off
 Static damping         CNVDamp         .... on
   Fraction old density DampFac         ....    0.7000
   Max. Damping (<1)    DampMax         ....    0.9800
   Min. Damping (>=0)   DampMin         ....    0.0000
   Turn off err/grad.   DampErr         ....    0.1000
 Fernandez-Rico         CNVRico         .... off

SCF Procedure:
 Maximum # iterations   MaxIter         ....   125
 SCF integral mode      SCFMode         .... Direct
   Integral package                     .... SHARK and LIBINT hybrid scheme
 Reset frequency        DirectResetFreq ....    20
 Integral Threshold     Thresh          ....  1.000e-10 Eh
 Primitive CutOff       TCut            ....  1.000e-11 Eh

Convergence Tolerance:
 Convergence Check Mode ConvCheckMode   .... Total+1el-Energy
 Convergence forced     ConvForced      .... 0
 Energy Change          TolE            ....  1.000e-06 Eh
 1-El. energy change                    ....  1.000e-03 Eh
 DIIS Error             TolErr          ....  1.000e-06


Diagonalization of the overlap matrix:
Smallest eigenvalue                        ... 1.271e-04
Time for diagonalization                   ...    0.035 sec
Threshold for overlap eigenvalues          ... 1.000e-08
Number of eigenvalues below threshold      ... 0
Time for construction of square roots      ...    0.040 sec
Total time needed                          ...    0.076 sec

---------------------
INITIAL GUESS: MOREAD
---------------------
Guess MOs are being read from file: cc-pVDZ_i.ges
Input geometry compatible with but different from current geometry
Input basis set matches current basis set (good)
MOs were renormalized
MOs were reorthogonalized (Cholesky)
                      ------------------
                      INITIAL GUESS DONE (   0.2 sec)
                      ------------------
-------------------
DFT GRID GENERATION
-------------------

General Integration Accuracy     IntAcc      ... 4.388
Radial Grid Type                 RadialGrid  ... OptM3 with GC (2021)
Angular Grid (max. ang.)         AngularGrid ... 4 (Lebedev-302)
Angular grid pruning method      GridPruning ... 4 (adaptive)
Weight generation scheme         WeightScheme... Becke
Basis function cutoff            BFCut       ... 1.0000e-10
Integration weight cutoff        WCut        ... 1.0000e-14
Angular grids for H and He will be reduced by one unit
Partially contracted basis set               ... off
Rotationally invariant grid construction     ... off

Total number of grid points                  ...   211461
Total number of batches                      ...     3327
Average number of points per batch           ...       63
Average number of grid points per atom       ...     4405
Time for grid setup =    1.162 sec

--------------------
COSX GRID GENERATION
--------------------

GRIDX 1
-------
General Integration Accuracy     IntAcc      ... 3.816
Radial Grid Type                 RadialGrid  ... OptM3 with GC (2021)
Angular Grid (max. ang.)         AngularGrid ... 1 (Lebedev-50)
Angular grid pruning method      GridPruning ... 4 (adaptive)
Weight generation scheme         WeightScheme... Becke
Basis function cutoff            BFCut       ... 1.0000e-10
Integration weight cutoff        WCut        ... 1.0000e-14
Angular grids for H and He will be reduced by one unit
Partially contracted basis set               ... on
Rotationally invariant grid construction     ... off

Total number of grid points                  ...    26949
Total number of batches                      ...      452
Average number of points per batch           ...       59
Average number of grid points per atom       ...      561
UseSFitting                                  ... on

GRIDX 2
-------
General Integration Accuracy     IntAcc      ... 4.020
Radial Grid Type                 RadialGrid  ... OptM3 with GC (2021)
Angular Grid (max. ang.)         AngularGrid ... 2 (Lebedev-110)
Angular grid pruning method      GridPruning ... 4 (adaptive)
Weight generation scheme         WeightScheme... Becke
Basis function cutoff            BFCut       ... 1.0000e-10
Integration weight cutoff        WCut        ... 1.0000e-14
Angular grids for H and He will be reduced by one unit
Partially contracted basis set               ... on
Rotationally invariant grid construction     ... off

Total number of grid points                  ...    56897
Total number of batches                      ...      915
Average number of points per batch           ...       62
Average number of grid points per atom       ...     1185
UseSFitting                                  ... on

GRIDX 3
-------
General Integration Accuracy     IntAcc      ... 4.338
Radial Grid Type                 RadialGrid  ... OptM3 with GC (2021)
Angular Grid (max. ang.)         AngularGrid ... 3 (Lebedev-194)
Angular grid pruning method      GridPruning ... 4 (adaptive)
Weight generation scheme         WeightScheme... Becke
Basis function cutoff            BFCut       ... 1.0000e-10
Integration weight cutoff        WCut        ... 1.0000e-14
Angular grids for H and He will be reduced by one unit
Partially contracted basis set               ... on
Rotationally invariant grid construction     ... off

Total number of grid points                  ...   124299
Total number of batches                      ...     1965
Average number of points per batch           ...       63
Average number of grid points per atom       ...     2590
UseSFitting                                  ... on

Time for X-Grid setup             =    2.042 sec

 re-compute Schwartz prescreening matrix in partically contracted basis (1) ...done (   0.115 sec)
--------------
SCF ITERATIONS
--------------
ITER       Energy         Delta-E        Max-DP      RMS-DP      [F,P]     Damp
               ***  Starting incremental Fock matrix formation  ***
  0   -815.7960259448   0.000000000000 0.00004919  0.00000069  0.0001571 0.7000
                 **** Energy Check signals convergence ****

               *****************************************************
               *                     SUCCESS                       *
               *           SCF CONVERGED AFTER   1 CYCLES          *
               *****************************************************

Old exchange energy                            =    -23.670424991 Eh
New exchange energy                            =    -23.670516430 Eh
Exchange energy change after final integration =     -0.000091438 Eh
Total energy after final integration           =   -815.796117727 Eh
Final COS-X integration done in                =     6.536 sec

----------------
TOTAL SCF ENERGY
----------------

Total Energy       :         -815.79611773 Eh          -22198.94094 eV

Components:
Nuclear Repulsion  :         1441.28712366 Eh           39219.41651 eV
Electronic Energy  :        -2257.08324139 Eh          -61418.35745 eV
One Electron Energy:        -3961.17247109 Eh         -107788.98282 eV
Two Electron Energy:         1704.08922970 Eh           46370.62538 eV
Max COSX asymmetry :            0.00000046 Eh               0.00001 eV

Virial components:
Potential Energy   :        -1625.72919964 Eh          -44238.34056 eV
Kinetic Energy     :          809.93308191 Eh           22039.39962 eV
Virial Ratio       :            2.00723891


DFT components:
N(Alpha)           :       77.000203735287 electrons
N(Beta)            :       76.000200973222 electrons
N(Total)           :      153.000404708509 electrons
E(X)               :      -93.827053194954 Eh       
E(C)               :       -5.896411579481 Eh       
E(XC)              :      -99.723464774435 Eh       
DFET-embed. en.    :        0.000000000000 Eh       

---------------
SCF CONVERGENCE
---------------

  Last Energy change         ...   -3.4422e-07  Tolerance :   1.0000e-06
  Last MAX-Density change    ...    1.4635e-05  Tolerance :   1.0000e-05
  Last RMS-Density change    ...    2.1055e-07  Tolerance :   1.0000e-06
  Last DIIS Error            ...    1.2355e-04  Tolerance :   1.0000e-06

             **** THE GBW FILE WAS UPDATED (cc-pVDZ_i.gbw) ****
             **** DENSITY cc-pVDZ_i.scfp WAS UPDATED ****
             **** ENERGY FILE WAS UPDATED (cc-pVDZ_i.en.tmp) ****
----------------------
UHF SPIN CONTAMINATION
----------------------

Warning: in a DFT calculation there is little theoretical justification to 
         calculate <S**2> as in Hartree-Fock theory. We will do it anyways
         but you should keep in mind that the values have only limited relevance

Expectation value of <S**2>     :     0.753912
Ideal value S*(S+1) for S=0.5   :     0.750000
Deviation                       :     0.003912

             **** THE GBW FILE WAS UPDATED (cc-pVDZ_i.gbw) ****
             **** DENSITY cc-pVDZ_i.scfp WAS UPDATED ****
----------------
ORBITAL ENERGIES
----------------
                 SPIN UP ORBITALS
  NO   OCC          E(Eh)            E(eV) 
   0   1.0000     -10.212646      -277.9002 
   1   1.0000     -10.212611      -277.8993 
   2   1.0000     -10.201886      -277.6074 
   3   1.0000     -10.201830      -277.6059 
   4   1.0000     -10.192470      -277.3512 
   5   1.0000     -10.192434      -277.3502 
   6   1.0000     -10.191990      -277.3381 
   7   1.0000     -10.191981      -277.3379 
   8   1.0000     -10.187375      -277.2126 
   9   1.0000     -10.187133      -277.2060 
  10   1.0000     -10.187131      -277.2059 
  11   1.0000     -10.186994      -277.2022 
  12   1.0000     -10.185986      -277.1748 
  13   1.0000     -10.184117      -277.1239 
  14   1.0000     -10.182809      -277.0883 
  15   1.0000     -10.182035      -277.0673 
  16   1.0000     -10.181762      -277.0598 
  17   1.0000     -10.181760      -277.0598 
  18   1.0000     -10.180598      -277.0281 
  19   1.0000     -10.179654      -277.0025 
  20   1.0000     -10.175670      -276.8941 
  21   1.0000      -0.874868       -23.8064 
  22   1.0000      -0.819361       -22.2959 
  23   1.0000      -0.806454       -21.9447 
  24   1.0000      -0.795344       -21.6424 
  25   1.0000      -0.785568       -21.3764 
  26   1.0000      -0.762997       -20.7622 
  27   1.0000      -0.751997       -20.4629 
  28   1.0000      -0.733479       -19.9590 
  29   1.0000      -0.720461       -19.6047 
  30   1.0000      -0.706538       -19.2259 
  31   1.0000      -0.670972       -18.2581 
  32   1.0000      -0.642037       -17.4707 
  33   1.0000      -0.636777       -17.3276 
  34   1.0000      -0.611135       -16.6298 
  35   1.0000      -0.589681       -16.0460 
  36   1.0000      -0.578026       -15.7289 
  37   1.0000      -0.571460       -15.5502 
  38   1.0000      -0.563406       -15.3311 
  39   1.0000      -0.541869       -14.7450 
  40   1.0000      -0.525190       -14.2911 
  41   1.0000      -0.498923       -13.5764 
  42   1.0000      -0.484331       -13.1793 
  43   1.0000      -0.481200       -13.0941 
  44   1.0000      -0.476151       -12.9567 
  45   1.0000      -0.470472       -12.8022 
  46   1.0000      -0.460081       -12.5194 
  47   1.0000      -0.430527       -11.7152 
  48   1.0000      -0.427990       -11.6462 
  49   1.0000      -0.427645       -11.6368 
  50   1.0000      -0.421284       -11.4637 
  51   1.0000      -0.419641       -11.4190 
  52   1.0000      -0.412937       -11.2366 
  53   1.0000      -0.403147       -10.9702 
  54   1.0000      -0.391827       -10.6621 
  55   1.0000      -0.389224       -10.5913 
  56   1.0000      -0.374816       -10.1993 
  57   1.0000      -0.372844       -10.1456 
  58   1.0000      -0.363417        -9.8891 
  59   1.0000      -0.359706        -9.7881 
  60   1.0000      -0.353762        -9.6263 
  61   1.0000      -0.343032        -9.3344 
  62   1.0000      -0.341152        -9.2832 
  63   1.0000      -0.330301        -8.9879 
  64   1.0000      -0.329658        -8.9704 
  65   1.0000      -0.327324        -8.9069 
  66   1.0000      -0.324280        -8.8241 
  67   1.0000      -0.323503        -8.8030 
  68   1.0000      -0.320315        -8.7162 
  69   1.0000      -0.319143        -8.6843 
  70   1.0000      -0.317900        -8.6505 
  71   1.0000      -0.279308        -7.6004 
  72   1.0000      -0.276035        -7.5113 
  73   1.0000      -0.274949        -7.4817 
  74   1.0000      -0.246235        -6.7004 
  75   1.0000      -0.219232        -5.9656 
  76   1.0000      -0.198831        -5.4105 
  77   0.0000      -0.050727        -1.3804 
  78   0.0000      -0.003027        -0.0824 
  79   0.0000       0.040773         1.1095 
  80   0.0000       0.047799         1.3007 
  81   0.0000       0.050184         1.3656 
  82   0.0000       0.060787         1.6541 
  83   0.0000       0.062946         1.7128 
  84   0.0000       0.074046         2.0149 
  85   0.0000       0.080140         2.1807 
  86   0.0000       0.080551         2.1919 
  87   0.0000       0.084987         2.3126 
  88   0.0000       0.087068         2.3692 
  89   0.0000       0.090908         2.4737 
  90   0.0000       0.094745         2.5781 
  91   0.0000       0.095347         2.5945 
  92   0.0000       0.096401         2.6232 
  93   0.0000       0.108661         2.9568 
  94   0.0000       0.109937         2.9915 
  95   0.0000       0.114693         3.1210 
  96   0.0000       0.122295         3.3278 
  97   0.0000       0.130147         3.5415 
  98   0.0000       0.145071         3.9476 
  99   0.0000       0.145982         3.9724 
 100   0.0000       0.152257         4.1431 
 101   0.0000       0.158784         4.3207 
 102   0.0000       0.159928         4.3519 
 103   0.0000       0.160998         4.3810 
 104   0.0000       0.162035         4.4092 
 105   0.0000       0.167655         4.5621 
 106   0.0000       0.175954         4.7880 
 107   0.0000       0.177628         4.8335 
 108   0.0000       0.184056         5.0084 
 109   0.0000       0.190502         5.1838 
 110   0.0000       0.197281         5.3683 
 111   0.0000       0.199382         5.4255 
 112   0.0000       0.207952         5.6587 
 113   0.0000       0.211885         5.7657 
 114   0.0000       0.216481         5.8908 
 115   0.0000       0.221793         6.0353 
 116   0.0000       0.233190         6.3454 
 117   0.0000       0.245927         6.6920 
 118   0.0000       0.255067         6.9407 
 119   0.0000       0.260678         7.0934 
 120   0.0000       0.273024         7.4294 
 121   0.0000       0.276185         7.5154 
 122   0.0000       0.297194         8.0871 
 123   0.0000       0.316167         8.6033 
 124   0.0000       0.327587         8.9141 
 125   0.0000       0.337931         9.1956 
 126   0.0000       0.351172         9.5559 
 127   0.0000       0.366853         9.9826 
 128   0.0000       0.372674        10.1410 
 129   0.0000       0.377742        10.2789 
 130   0.0000       0.401930        10.9371 
 131   0.0000       0.406509        11.0617 
 132   0.0000       0.411800        11.2056 
 133   0.0000       0.414503        11.2792 
 134   0.0000       0.415262        11.2999 
 135   0.0000       0.419658        11.4195 
 136   0.0000       0.422151        11.4873 
 137   0.0000       0.426175        11.5968 
 138   0.0000       0.438949        11.9444 
 139   0.0000       0.445346        12.1185 
 140   0.0000       0.456220        12.4144 
 141   0.0000       0.461841        12.5673 
 142   0.0000       0.468118        12.7381 
 143   0.0000       0.473244        12.8776 
 144   0.0000       0.478307        13.0154 
 145   0.0000       0.484323        13.1791 
 146   0.0000       0.493191        13.4204 
 147   0.0000       0.495172        13.4743 
 148   0.0000       0.497302        13.5323 
 149   0.0000       0.504869        13.7382 
 150   0.0000       0.513938        13.9850 
 151   0.0000       0.517557        14.0834 
 152   0.0000       0.524447        14.2709 
 153   0.0000       0.530373        14.4322 
 154   0.0000       0.534657        14.5488 
 155   0.0000       0.536143        14.5892 
 156   0.0000       0.551731        15.0134 
 157   0.0000       0.554871        15.0988 
 158   0.0000       0.561210        15.2713 
 159   0.0000       0.581436        15.8217 
 160   0.0000       0.583871        15.8879 
 161   0.0000       0.595948        16.2166 
 162   0.0000       0.601278        16.3616 
 163   0.0000       0.606988        16.5170 
 164   0.0000       0.611696        16.6451 
 165   0.0000       0.614547        16.7227 
 166   0.0000       0.619744        16.8641 
 167   0.0000       0.630336        17.1523 
 168   0.0000       0.630992        17.1702 
 169   0.0000       0.631823        17.1928 
 170   0.0000       0.633577        17.2405 
 171   0.0000       0.641002        17.4426 
 172   0.0000       0.642241        17.4763 
 173   0.0000       0.648047        17.6342 
 174   0.0000       0.651591        17.7307 
 175   0.0000       0.657006        17.8780 
 176   0.0000       0.657373        17.8880 
 177   0.0000       0.658238        17.9116 
 178   0.0000       0.659759        17.9530 
 179   0.0000       0.660476        17.9725 
 180   0.0000       0.663731        18.0611 
 181   0.0000       0.665454        18.1079 
 182   0.0000       0.668168        18.1818 
 183   0.0000       0.672468        18.2988 
 184   0.0000       0.676697        18.4139 
 185   0.0000       0.684890        18.6368 
 186   0.0000       0.686829        18.6896 
 187   0.0000       0.690938        18.8014 
 188   0.0000       0.692525        18.8446 
 189   0.0000       0.695772        18.9329 
 190   0.0000       0.697322        18.9751 
 191   0.0000       0.700340        19.0572 
 192   0.0000       0.704389        19.1674 
 193   0.0000       0.708578        19.2814 
 194   0.0000       0.709899        19.3173 
 195   0.0000       0.720397        19.6030 
 196   0.0000       0.723275        19.6813 
 197   0.0000       0.726215        19.7613 
 198   0.0000       0.732977        19.9453 
 199   0.0000       0.736094        20.0301 
 200   0.0000       0.746399        20.3106 
 201   0.0000       0.748561        20.3694 
 202   0.0000       0.756312        20.5803 
 203   0.0000       0.772008        21.0074 
 204   0.0000       0.772341        21.0165 
 205   0.0000       0.781246        21.2588 
 206   0.0000       0.807839        21.9824 
 207   0.0000       0.824033        22.4231 
 208   0.0000       0.826124        22.4800 
 209   0.0000       0.833505        22.6808 
 210   0.0000       0.842252        22.9188 
 211   0.0000       0.842398        22.9228 
 212   0.0000       0.852075        23.1861 
 213   0.0000       0.865525        23.5521 
 214   0.0000       0.871971        23.7276 
 215   0.0000       0.883962        24.0538 
 216   0.0000       0.890797        24.2398 
 217   0.0000       0.917060        24.9545 
 218   0.0000       0.935483        25.4558 
 219   0.0000       0.956628        26.0312 
 220   0.0000       0.977530        26.5999 
 221   0.0000       0.980116        26.6703 
 222   0.0000       0.986442        26.8424 
 223   0.0000       0.989504        26.9258 
 224   0.0000       1.015163        27.6240 
 225   0.0000       1.023333        27.8463 
 226   0.0000       1.032256        28.0891 
 227   0.0000       1.033799        28.1311 
 228   0.0000       1.045540        28.4506 
 229   0.0000       1.050739        28.5921 
 230   0.0000       1.052267        28.6336 
 231   0.0000       1.060150        28.8482 
 232   0.0000       1.071742        29.1636 
 233   0.0000       1.078805        29.3558 
 234   0.0000       1.088861        29.6294 
 235   0.0000       1.114525        30.3278 
 236   0.0000       1.118428        30.4340 
 237   0.0000       1.151717        31.3398 
 238   0.0000       1.158925        31.5360 
 239   0.0000       1.171262        31.8716 
 240   0.0000       1.176180        32.0055 
 241   0.0000       1.194418        32.5018 
 242   0.0000       1.198720        32.6188 
 243   0.0000       1.202658        32.7260 
 244   0.0000       1.204829        32.7851 
 245   0.0000       1.206585        32.8329 
 246   0.0000       1.213981        33.0341 
 247   0.0000       1.215937        33.0873 
 248   0.0000       1.216842        33.1120 
 249   0.0000       1.222856        33.2756 
 250   0.0000       1.225081        33.3362 
 251   0.0000       1.230965        33.4962 
 252   0.0000       1.239689        33.7337 
 253   0.0000       1.262082        34.3430 
 254   0.0000       1.275133        34.6981 
 255   0.0000       1.305401        35.5218 
 256   0.0000       1.309976        35.6463 
 257   0.0000       1.319222        35.8978 
 258   0.0000       1.321398        35.9571 
 259   0.0000       1.327188        36.1146 
 260   0.0000       1.329884        36.1880 
 261   0.0000       1.333722        36.2924 
 262   0.0000       1.337643        36.3991 
 263   0.0000       1.348805        36.7029 
 264   0.0000       1.367694        37.2168 
 265   0.0000       1.378552        37.5123 
 266   0.0000       1.396070        37.9890 
 267   0.0000       1.398762        38.0622 
 268   0.0000       1.409037        38.3418 
 269   0.0000       1.417595        38.5747 
 270   0.0000       1.426401        38.8144 
 271   0.0000       1.435805        39.0703 
 272   0.0000       1.449789        39.4508 
 273   0.0000       1.463012        39.8106 
 274   0.0000       1.464608        39.8540 
 275   0.0000       1.468323        39.9551 
 276   0.0000       1.473225        40.0885 
 277   0.0000       1.476242        40.1706 
 278   0.0000       1.484458        40.3941 
 279   0.0000       1.494982        40.6805 
 280   0.0000       1.514446        41.2102 
 281   0.0000       1.516096        41.2551 
 282   0.0000       1.529748        41.6265 
 283   0.0000       1.531778        41.6818 
 284   0.0000       1.541021        41.9333 
 285   0.0000       1.554223        42.2926 
 286   0.0000       1.558080        42.3975 
 287   0.0000       1.576729        42.9050 
 288   0.0000       1.587439        43.1964 
 289   0.0000       1.593858        43.3711 
 290   0.0000       1.597042        43.4577 
 291   0.0000       1.597185        43.4616 
 292   0.0000       1.613254        43.8989 
 293   0.0000       1.626011        44.2460 
 294   0.0000       1.630253        44.3614 
 295   0.0000       1.631218        44.3877 
 296   0.0000       1.633269        44.4435 
 297   0.0000       1.638586        44.5882 
 298   0.0000       1.640347        44.6361 
 299   0.0000       1.645253        44.7696 
 300   0.0000       1.647190        44.8223 
 301   0.0000       1.651290        44.9339 
 302   0.0000       1.658278        45.1240 
 303   0.0000       1.665157        45.3112 
 304   0.0000       1.673346        45.5340 
 305   0.0000       1.678984        45.6875 
 306   0.0000       1.681645        45.7599 
 307   0.0000       1.689714        45.9795 
 308   0.0000       1.690664        46.0053 
 309   0.0000       1.693798        46.0906 
 310   0.0000       1.695651        46.1410 
 311   0.0000       1.701582        46.3024 
 312   0.0000       1.704819        46.3905 
 313   0.0000       1.707415        46.4611 
 314   0.0000       1.713064        46.6148 
 315   0.0000       1.717042        46.7231 
 316   0.0000       1.720518        46.8177 
 317   0.0000       1.726949        46.9927 
 318   0.0000       1.732233        47.1365 
 319   0.0000       1.733280        47.1649 
 320   0.0000       1.739599        47.3369 
 321   0.0000       1.754532        47.7433 
 322   0.0000       1.756550        47.7982 
 323   0.0000       1.765958        48.0542 
 324   0.0000       1.772313        48.2271 
 325   0.0000       1.778526        48.3962 
 326   0.0000       1.784306        48.5534 
 327   0.0000       1.788902        48.6785 
 328   0.0000       1.797722        48.9185 
 329   0.0000       1.798180        48.9310 
 330   0.0000       1.804978        49.1159 
 331   0.0000       1.807128        49.1745 
 332   0.0000       1.811557        49.2950 
 333   0.0000       1.813034        49.3352 
 334   0.0000       1.831671        49.8423 
 335   0.0000       1.837917        50.0123 
 336   0.0000       1.853318        50.4314 
 337   0.0000       1.856872        50.5281 
 338   0.0000       1.874094        50.9967 
 339   0.0000       1.881498        51.1982 
 340   0.0000       1.885771        51.3144 
 341   0.0000       1.902728        51.7759 
 342   0.0000       1.903124        51.7866 
 343   0.0000       1.913623        52.0723 
 344   0.0000       1.920515        52.2599 
 345   0.0000       1.928606        52.4800 
 346   0.0000       1.952965        53.1429 
 347   0.0000       1.967435        53.5366 
 348   0.0000       1.973189        53.6932 
 349   0.0000       1.974957        53.7413 
 350   0.0000       1.983025        53.9608 
 351   0.0000       1.996684        54.3325 
 352   0.0000       2.017890        54.9096 
 353   0.0000       2.023677        55.0670 
 354   0.0000       2.031157        55.2706 
 355   0.0000       2.033729        55.3406 
 356   0.0000       2.046049        55.6758 
 357   0.0000       2.052068        55.8396 
 358   0.0000       2.066586        56.2347 
 359   0.0000       2.079467        56.5852 
 360   0.0000       2.089684        56.8632 
 361   0.0000       2.097546        57.0771 
 362   0.0000       2.101096        57.1737 
 363   0.0000       2.109283        57.3965 
 364   0.0000       2.127668        57.8968 
 365   0.0000       2.140042        58.2335 
 366   0.0000       2.159362        58.7592 
 367   0.0000       2.184255        59.4366 
 368   0.0000       2.187920        59.5363 
 369   0.0000       2.194664        59.7198 
 370   0.0000       2.204173        59.9786 
 371   0.0000       2.205401        60.0120 
 372   0.0000       2.214696        60.2649 
 373   0.0000       2.220902        60.4338 
 374   0.0000       2.231446        60.7207 
 375   0.0000       2.250648        61.2432 
 376   0.0000       2.267358        61.6980 
 377   0.0000       2.271527        61.8114 
 378   0.0000       2.280689        62.0607 
 379   0.0000       2.287937        62.2579 
 380   0.0000       2.294207        62.4285 
 381   0.0000       2.299152        62.5631 
 382   0.0000       2.305478        62.7353 
 383   0.0000       2.320746        63.1507 
 384   0.0000       2.327441        63.3329 
 385   0.0000       2.332486        63.4702 
 386   0.0000       2.338849        63.6433 
 387   0.0000       2.339891        63.6717 
 388   0.0000       2.350336        63.9559 
 389   0.0000       2.352428        64.0128 
 390   0.0000       2.359014        64.1920 
 391   0.0000       2.376890        64.6785 
 392   0.0000       2.409956        65.5782 
 393   0.0000       2.411274        65.6141 
 394   0.0000       2.418608        65.8137 
 395   0.0000       2.423400        65.9441 
 396   0.0000       2.427466        66.0547 
 397   0.0000       2.428897        66.0937 
 398   0.0000       2.446338        66.5682 
 399   0.0000       2.458970        66.9120 
 400   0.0000       2.486813        67.6696 
 401   0.0000       2.489454        67.7415 
 402   0.0000       2.500334        68.0376 
 403   0.0000       2.514081        68.4116 
 404   0.0000       2.536353        69.0177 
 405   0.0000       2.536571        69.0236 
 406   0.0000       2.572605        70.0041 
 407   0.0000       2.573640        70.0323 
 408   0.0000       2.588853        70.4463 
 409   0.0000       2.596977        70.6673 
 410   0.0000       2.607370        70.9501 
 411   0.0000       2.612768        71.0970 
 412   0.0000       2.622891        71.3725 
 413   0.0000       2.647762        72.0493 
 414   0.0000       2.701934        73.5234 
 415   0.0000       2.714104        73.8545 
 416   0.0000       2.724437        74.1357 
 417   0.0000       2.731296        74.3223 
 418   0.0000       2.760396        75.1142 
 419   0.0000       2.765150        75.2436 
 420   0.0000       2.813928        76.5709 
 421   0.0000       2.825345        76.8816 
 422   0.0000       2.832253        77.0695 
 423   0.0000       2.870107        78.0996 
 424   0.0000       2.887115        78.5624 
 425   0.0000       2.950662        80.2916 
 426   0.0000       3.188755        86.7704 
 427   0.0000       3.194519        86.9273 
 428   0.0000       3.384280        92.0909 

                 SPIN DOWN ORBITALS
  NO   OCC          E(Eh)            E(eV) 
   0   1.0000     -10.212645      -277.9002 
   1   1.0000     -10.212611      -277.8993 
   2   1.0000     -10.201883      -277.6074 
   3   1.0000     -10.201830      -277.6059 
   4   1.0000     -10.192470      -277.3512 
   5   1.0000     -10.192434      -277.3502 
   6   1.0000     -10.191990      -277.3381 
   7   1.0000     -10.191981      -277.3379 
   8   1.0000     -10.187368      -277.2124 
   9   1.0000     -10.187133      -277.2060 
  10   1.0000     -10.187131      -277.2059 
  11   1.0000     -10.186994      -277.2022 
  12   1.0000     -10.185007      -277.1481 
  13   1.0000     -10.182774      -277.0874 
  14   1.0000     -10.182035      -277.0673 
  15   1.0000     -10.181760      -277.0598 
  16   1.0000     -10.180563      -277.0272 
  17   1.0000     -10.180198      -277.0173 
  18   1.0000     -10.179464      -276.9973 
  19   1.0000     -10.175670      -276.8941 
  20   1.0000     -10.171919      -276.7920 
  21   1.0000      -0.874865       -23.8063 
  22   1.0000      -0.819188       -22.2912 
  23   1.0000      -0.804690       -21.8967 
  24   1.0000      -0.795343       -21.6424 
  25   1.0000      -0.782570       -21.2948 
  26   1.0000      -0.760357       -20.6904 
  27   1.0000      -0.751475       -20.4487 
  28   1.0000      -0.729748       -19.8575 
  29   1.0000      -0.720364       -19.6021 
  30   1.0000      -0.702809       -19.1244 
  31   1.0000      -0.665344       -18.1049 
  32   1.0000      -0.640913       -17.4401 
  33   1.0000      -0.633848       -17.2479 
  34   1.0000      -0.606372       -16.5002 
  35   1.0000      -0.586552       -15.9609 
  36   1.0000      -0.576403       -15.6847 
  37   1.0000      -0.566228       -15.4078 
  38   1.0000      -0.559368       -15.2212 
  39   1.0000      -0.541866       -14.7449 
  40   1.0000      -0.525164       -14.2904 
  41   1.0000      -0.498896       -13.5757 
  42   1.0000      -0.484325       -13.1792 
  43   1.0000      -0.480428       -13.0731 
  44   1.0000      -0.476097       -12.9553 
  45   1.0000      -0.470465       -12.8020 
  46   1.0000      -0.457881       -12.4596 
  47   1.0000      -0.430253       -11.7078 
  48   1.0000      -0.426889       -11.6162 
  49   1.0000      -0.425627       -11.5819 
  50   1.0000      -0.419989       -11.4285 
  51   1.0000      -0.419119       -11.4048 
  52   1.0000      -0.410912       -11.1815 
  53   1.0000      -0.400124       -10.8879 
  54   1.0000      -0.389873       -10.6090 
  55   1.0000      -0.386568       -10.5191 
  56   1.0000      -0.371971       -10.1218 
  57   1.0000      -0.371811       -10.1175 
  58   1.0000      -0.361400        -9.8342 
  59   1.0000      -0.359099        -9.7716 
  60   1.0000      -0.352946        -9.6041 
  61   1.0000      -0.340690        -9.2706 
  62   1.0000      -0.340366        -9.2618 
  63   1.0000      -0.329634        -8.9698 
  64   1.0000      -0.329227        -8.9587 
  65   1.0000      -0.326933        -8.8963 
  66   1.0000      -0.323617        -8.8061 
  67   1.0000      -0.323089        -8.7917 
  68   1.0000      -0.319967        -8.7068 
  69   1.0000      -0.318800        -8.6750 
  70   1.0000      -0.314224        -8.5505 
  71   1.0000      -0.279308        -7.6004 
  72   1.0000      -0.276035        -7.5113 
  73   1.0000      -0.274935        -7.4814 
  74   1.0000      -0.246234        -6.7004 
  75   1.0000      -0.219231        -5.9656 
  76   0.0000      -0.050727        -1.3803 
  77   0.0000      -0.045015        -1.2249 
  78   0.0000      -0.003025        -0.0823 
  79   0.0000       0.040774         1.1095 
  80   0.0000       0.047800         1.3007 
  81   0.0000       0.050185         1.3656 
  82   0.0000       0.061452         1.6722 
  83   0.0000       0.063010         1.7146 
  84   0.0000       0.075800         2.0626 
  85   0.0000       0.080608         2.1934 
  86   0.0000       0.080878         2.2008 
  87   0.0000       0.085009         2.3132 
  88   0.0000       0.087362         2.3772 
  89   0.0000       0.090916         2.4739 
  90   0.0000       0.094746         2.5782 
  91   0.0000       0.095410         2.5962 
  92   0.0000       0.100729         2.7410 
  93   0.0000       0.109341         2.9753 
  94   0.0000       0.110855         3.0165 
  95   0.0000       0.114735         3.1221 
  96   0.0000       0.124872         3.3979 
  97   0.0000       0.131146         3.5687 
  98   0.0000       0.146036         3.9739 
  99   0.0000       0.146249         3.9796 
 100   0.0000       0.152394         4.1468 
 101   0.0000       0.159059         4.3282 
 102   0.0000       0.160406         4.3649 
 103   0.0000       0.161703         4.4002 
 104   0.0000       0.162071         4.4102 
 105   0.0000       0.168721         4.5911 
 106   0.0000       0.176006         4.7894 
 107   0.0000       0.178156         4.8479 
 108   0.0000       0.184336         5.0160 
 109   0.0000       0.191633         5.2146 
 110   0.0000       0.198748         5.4082 
 111   0.0000       0.199445         5.4272 
 112   0.0000       0.208265         5.6672 
 113   0.0000       0.212313         5.7773 
 114   0.0000       0.216909         5.9024 
 115   0.0000       0.222478         6.0539 
 116   0.0000       0.233935         6.3657 
 117   0.0000       0.248011         6.7487 
 118   0.0000       0.256371         6.9762 
 119   0.0000       0.261240         7.1087 
 120   0.0000       0.276310         7.5188 
 121   0.0000       0.277589         7.5536 
 122   0.0000       0.299219         8.1422 
 123   0.0000       0.318138         8.6570 
 124   0.0000       0.328148         8.9294 
 125   0.0000       0.339191         9.2299 
 126   0.0000       0.351888         9.5754 
 127   0.0000       0.367070         9.9885 
 128   0.0000       0.372816        10.1448 
 129   0.0000       0.378553        10.3010 
 130   0.0000       0.403812        10.9883 
 131   0.0000       0.407359        11.0848 
 132   0.0000       0.411802        11.2057 
 133   0.0000       0.414997        11.2926 
 134   0.0000       0.415424        11.3043 
 135   0.0000       0.419661        11.4196 
 136   0.0000       0.422700        11.5022 
 137   0.0000       0.426464        11.6047 
 138   0.0000       0.440882        11.9970 
 139   0.0000       0.449645        12.2355 
 140   0.0000       0.456368        12.4184 
 141   0.0000       0.462634        12.5889 
 142   0.0000       0.468136        12.7386 
 143   0.0000       0.477617        12.9966 
 144   0.0000       0.479840        13.0571 
 145   0.0000       0.485660        13.2155 
 146   0.0000       0.495356        13.4793 
 147   0.0000       0.495537        13.4842 
 148   0.0000       0.504876        13.7384 
 149   0.0000       0.507407        13.8073 
 150   0.0000       0.515459        14.0263 
 151   0.0000       0.522934        14.2298 
 152   0.0000       0.531014        14.4496 
 153   0.0000       0.534782        14.5522 
 154   0.0000       0.536187        14.5904 
 155   0.0000       0.551146        14.9974 
 156   0.0000       0.554872        15.0988 
 157   0.0000       0.559207        15.2168 
 158   0.0000       0.573322        15.6009 
 159   0.0000       0.582827        15.8595 
 160   0.0000       0.584081        15.8937 
 161   0.0000       0.599570        16.3151 
 162   0.0000       0.601506        16.3678 
 163   0.0000       0.608080        16.5467 
 164   0.0000       0.613926        16.7058 
 165   0.0000       0.614570        16.7233 
 166   0.0000       0.619968        16.8702 
 167   0.0000       0.630661        17.1612 
 168   0.0000       0.632431        17.2093 
 169   0.0000       0.633444        17.2369 
 170   0.0000       0.635652        17.2970 
 171   0.0000       0.641053        17.4439 
 172   0.0000       0.643274        17.5044 
 173   0.0000       0.648605        17.6494 
 174   0.0000       0.651699        17.7336 
 175   0.0000       0.658434        17.9169 
 176   0.0000       0.658655        17.9229 
 177   0.0000       0.659036        17.9333 
 178   0.0000       0.660859        17.9829 
 179   0.0000       0.661270        17.9941 
 180   0.0000       0.664486        18.0816 
 181   0.0000       0.666421        18.1342 
 182   0.0000       0.670746        18.2519 
 183   0.0000       0.672961        18.3122 
 184   0.0000       0.678034        18.4502 
 185   0.0000       0.685032        18.6407 
 186   0.0000       0.687192        18.6994 
 187   0.0000       0.691390        18.8137 
 188   0.0000       0.694564        18.9000 
 189   0.0000       0.695995        18.9390 
 190   0.0000       0.698949        19.0194 
 191   0.0000       0.701870        19.0988 
 192   0.0000       0.704507        19.1706 
 193   0.0000       0.709172        19.2976 
 194   0.0000       0.714034        19.4299 
 195   0.0000       0.720540        19.6069 
 196   0.0000       0.723374        19.6840 
 197   0.0000       0.727657        19.8006 
 198   0.0000       0.733365        19.9559 
 199   0.0000       0.738517        20.0961 
 200   0.0000       0.746558        20.3149 
 201   0.0000       0.749227        20.3875 
 202   0.0000       0.757021        20.5996 
 203   0.0000       0.772615        21.0239 
 204   0.0000       0.772896        21.0316 
 205   0.0000       0.781643        21.2696 
 206   0.0000       0.808224        21.9929 
 207   0.0000       0.826414        22.4879 
 208   0.0000       0.827157        22.5081 
 209   0.0000       0.834885        22.7184 
 210   0.0000       0.842895        22.9363 
 211   0.0000       0.843616        22.9559 
 212   0.0000       0.852503        23.1978 
 213   0.0000       0.869116        23.6498 
 214   0.0000       0.872327        23.7372 
 215   0.0000       0.883969        24.0540 
 216   0.0000       0.891597        24.2616 
 217   0.0000       0.917088        24.9552 
 218   0.0000       0.936263        25.4770 
 219   0.0000       0.957865        26.0648 
 220   0.0000       0.977586        26.6015 
 221   0.0000       0.987648        26.8753 
 222   0.0000       0.989504        26.9258 
 223   0.0000       1.012498        27.5515 
 224   0.0000       1.015264        27.6267 
 225   0.0000       1.024746        27.8848 
 226   0.0000       1.032262        28.0893 
 227   0.0000       1.038589        28.2614 
 228   0.0000       1.046407        28.4742 
 229   0.0000       1.051043        28.6003 
 230   0.0000       1.052267        28.6336 
[...]
  Z           0.8496947           -0.0556138           -0.5243339

Notes:  (1) The A matrix conforms to the "SAI" spin Hamiltonian convention.
        (2) Tensor is right-handed.

 -----------------------------------------------------------
 Nucleus  45H : A:ISTP=    1 I=  0.5 P=533.5514 MHz/au**3
                Q:ISTP=    2 I=  1.0 Q=  0.0029 barn     
 -----------------------------------------------------------
 Solving for nuclear perturbation:
Forming RHS of the CP-SCF equations         ... 
Calc. nucleus orbit integrals (SHARK)       ... done

------------------------------------------------------------------------------
                           ORCA CP-SCF CALCULATION
------------------------------------------------------------------------------

Input orbitals are from        ... cc-pVDZ_i.gbw
Input Perturbation             ... cc-pVDZ_i.pin.tmp
Wavefunction output            ... cc-pVDZ_i.pout.tmp
Perturbation mode              ... Imaginary perturbation
Solver                         ... POPLE
Max. number of iterations      ... 64
Convergence tolerance          ... 1.000e-03
Integral handling              ... Direct
DFT GridXC                     ... 1
COSX GridX                     ... 1
COSX IntAccX                   ... 3.067
COSX Algorithm                 ... Auto
Number of perturbations        ... 3
Number of operators            ... 2
Orbital ranges used for CP-SCF:
 Operator 0:  Orbitals   0... 76  to  77...428
 Operator 1:  Orbitals   0... 75  to  76...428
Variables per perturbation     ... 53932
DFT calculation                         ... on
XC functional terms                     ... off
Hybrid DFT                              ... on
   Exchange mixing (SCF)                ...  0.200
   Exchange mixing (CP-SCF)             ...  0.200
   GGA exch. scaling(SCF)               ...  0.720
   GGA exch. scaling (CP-SCF)           ...  0.720
   GGA corr. scaling (SCF)              ...  0.810
   GGA corr. scaling (CP-SCF)           ...  0.810

CP-SCF GRID
-----------

General Integration Accuracy     IntAcc      ... 3.467
Radial Grid Type                 RadialGrid  ... OptM3 with GC (2021)
Angular Grid (max. ang.)         AngularGrid ... 1 (Lebedev-50)
Angular grid pruning method      GridPruning ... 4 (adaptive)
Weight generation scheme         WeightScheme... Becke
Basis function cutoff            BFCut       ... 1.0000e-10
Integration weight cutoff        WCut        ... 1.0000e-14
Angular grids for H and He will be reduced by one unit
Partially contracted basis set               ... off
Rotationally invariant grid construction     ... off

Total number of grid points                  ...    29722
Total number of batches                      ...      486
Average number of points per batch           ...       61
Average number of grid points per atom       ...      619

CP-SCF GRIDX
------------

General Integration Accuracy     IntAcc      ... 3.067
Radial Grid Type                 RadialGrid  ... OptM3 with GC (2021)
Angular Grid (max. ang.)         AngularGrid ... 1 (Lebedev-50)
Angular grid pruning method      GridPruning ... 4 (adaptive)
Weight generation scheme         WeightScheme... Becke
Basis function cutoff            BFCut       ... 1.0000e-10
Integration weight cutoff        WCut        ... 1.0000e-14
Angular grids for H and He will be reduced by one unit
Partially contracted basis set               ... on
Rotationally invariant grid construction     ... off

Total number of grid points                  ...    14090
Total number of batches                      ...      249
Average number of points per batch           ...       56
Average number of grid points per atom       ...      294

Memory available               ... 886.0 MB
Memory needed per perturbation ...  11.6 MB
Perturbations treated per batch... 3
Number of batches              ... 1
     CP-SCF ITERATION   0:   1.0100e-01 (   1.6 sec   0/  3 done)
     CP-SCF ITERATION   1:   1.5655e-03 (   1.8 sec   2/  3 done)
     CP-SCF ITERATION   2:   8.4337e-05 (   1.2 sec   3/  3 done)
                    *** THE CP-SCF HAS CONVERGED ***

Forming final perturbed densities           ... done
Transforming perturbed density to AO basis  ... done

 Raw HFC matrix (all values in MHz): 
 -----------------------------------
                 0.0005               0.0651               0.0013
                 0.0651               0.0460               0.0018
                 0.0013               0.0018              -0.0465

 A(FC)          -0.0000              -0.0000              -0.0000
 A(SD)          -0.0457              -0.0466               0.0923
 A(ORB+DIA)      0.0000               0.0000               0.0000    A(PC) =   0.0000
 A(ORB)          0.0000              -0.0000               0.0000    A(PC) =  -0.0000
 A(DIA)          0.0000               0.0000               0.0000    A(PC) =   0.0000
             ----------           ----------           ----------
 A(Tot)         -0.0457              -0.0466               0.0923    A(iso)=    0.0000
 Orientation: 
  X           0.8154971            0.0069016            0.5787200
  Y          -0.5787545            0.0145059            0.8153728
  Z          -0.0027675           -0.9998710            0.0158238

Notes:  (1) The A matrix conforms to the "SAI" spin Hamiltonian convention.
        (2) Tensor is right-handed.

 -----------------------------------------------------------
 Nucleus  46H : A:ISTP=    1 I=  0.5 P=533.5514 MHz/au**3
                Q:ISTP=    2 I=  1.0 Q=  0.0029 barn     
 -----------------------------------------------------------
 Solving for nuclear perturbation:
Forming RHS of the CP-SCF equations         ... 
Calc. nucleus orbit integrals (SHARK)       ... done

------------------------------------------------------------------------------
                           ORCA CP-SCF CALCULATION
------------------------------------------------------------------------------

Input orbitals are from        ... cc-pVDZ_i.gbw
Input Perturbation             ... cc-pVDZ_i.pin.tmp
Wavefunction output            ... cc-pVDZ_i.pout.tmp
Perturbation mode              ... Imaginary perturbation
Solver                         ... POPLE
Max. number of iterations      ... 64
Convergence tolerance          ... 1.000e-03
Integral handling              ... Direct
DFT GridXC                     ... 1
COSX GridX                     ... 1
COSX IntAccX                   ... 3.067
COSX Algorithm                 ... Auto
Number of perturbations        ... 3
Number of operators            ... 2
Orbital ranges used for CP-SCF:
 Operator 0:  Orbitals   0... 76  to  77...428
 Operator 1:  Orbitals   0... 75  to  76...428
Variables per perturbation     ... 53932
DFT calculation                         ... on
XC functional terms                     ... off
Hybrid DFT                              ... on
   Exchange mixing (SCF)                ...  0.200
   Exchange mixing (CP-SCF)             ...  0.200
   GGA exch. scaling(SCF)               ...  0.720
   GGA exch. scaling (CP-SCF)           ...  0.720
   GGA corr. scaling (SCF)              ...  0.810
   GGA corr. scaling (CP-SCF)           ...  0.810

CP-SCF GRID
-----------

General Integration Accuracy     IntAcc      ... 3.467
Radial Grid Type                 RadialGrid  ... OptM3 with GC (2021)
Angular Grid (max. ang.)         AngularGrid ... 1 (Lebedev-50)
Angular grid pruning method      GridPruning ... 4 (adaptive)
Weight generation scheme         WeightScheme... Becke
Basis function cutoff            BFCut       ... 1.0000e-10
Integration weight cutoff        WCut        ... 1.0000e-14
Angular grids for H and He will be reduced by one unit
Partially contracted basis set               ... off
Rotationally invariant grid construction     ... off

Total number of grid points                  ...    29722
Total number of batches                      ...      486
Average number of points per batch           ...       61
Average number of grid points per atom       ...      619

CP-SCF GRIDX
------------

General Integration Accuracy     IntAcc      ... 3.067
Radial Grid Type                 RadialGrid  ... OptM3 with GC (2021)
Angular Grid (max. ang.)         AngularGrid ... 1 (Lebedev-50)
Angular grid pruning method      GridPruning ... 4 (adaptive)
Weight generation scheme         WeightScheme... Becke
Basis function cutoff            BFCut       ... 1.0000e-10
Integration weight cutoff        WCut        ... 1.0000e-14
Angular grids for H and He will be reduced by one unit
Partially contracted basis set               ... on
Rotationally invariant grid construction     ... off

Total number of grid points                  ...    14090
Total number of batches                      ...      249
Average number of points per batch           ...       56
Average number of grid points per atom       ...      294

Memory available               ... 885.5 MB
Memory needed per perturbation ...  11.6 MB
Perturbations treated per batch... 3
Number of batches              ... 1
     CP-SCF ITERATION   0:   1.0101e-01 (   1.6 sec   0/  3 done)
     CP-SCF ITERATION   1:   1.5689e-03 (   1.7 sec   2/  3 done)
     CP-SCF ITERATION   2:   8.4393e-05 (   1.2 sec   3/  3 done)
                    *** THE CP-SCF HAS CONVERGED ***

Forming final perturbed densities           ... done
Transforming perturbed density to AO basis  ... done

 Raw HFC matrix (all values in MHz): 
 -----------------------------------
                -0.0438              -0.0590              -0.0009
                -0.0590               0.1098               0.0027
                -0.0009               0.0027              -0.0653

 A(FC)           0.0002               0.0002               0.0002
 A(SD)          -0.0641              -0.0656               0.1296
 A(ORB+DIA)      0.0000               0.0000               0.0000    A(PC) =   0.0000
 A(ORB)         -0.0000              -0.0000               0.0000    A(PC) =  -0.0000
 A(DIA)          0.0000               0.0000               0.0000    A(PC) =   0.0000
             ----------           ----------           ----------
 A(Tot)         -0.0639              -0.0653               0.1299    A(iso)=    0.0002
 Orientation: 
  X           0.9469102            0.0041183           -0.3214718
  Y           0.3213653            0.0166261            0.9468093
  Z           0.0092441           -0.9998533            0.0144199

Notes:  (1) The A matrix conforms to the "SAI" spin Hamiltonian convention.
        (2) Tensor is right-handed.

 -----------------------------------------------------------
 Nucleus  47H : A:ISTP=    1 I=  0.5 P=533.5514 MHz/au**3
                Q:ISTP=    2 I=  1.0 Q=  0.0029 barn     
 -----------------------------------------------------------
 Solving for nuclear perturbation:
Forming RHS of the CP-SCF equations         ... 
Calc. nucleus orbit integrals (SHARK)       ... done

------------------------------------------------------------------------------
                           ORCA CP-SCF CALCULATION
------------------------------------------------------------------------------

Input orbitals are from        ... cc-pVDZ_i.gbw
Input Perturbation             ... cc-pVDZ_i.pin.tmp
Wavefunction output            ... cc-pVDZ_i.pout.tmp
Perturbation mode              ... Imaginary perturbation
Solver                         ... POPLE
Max. number of iterations      ... 64
Convergence tolerance          ... 1.000e-03
Integral handling              ... Direct
DFT GridXC                     ... 1
COSX GridX                     ... 1
COSX IntAccX                   ... 3.067
COSX Algorithm                 ... Auto
Number of perturbations        ... 3
Number of operators            ... 2
Orbital ranges used for CP-SCF:
 Operator 0:  Orbitals   0... 76  to  77...428
 Operator 1:  Orbitals   0... 75  to  76...428
Variables per perturbation     ... 53932
DFT calculation                         ... on
XC functional terms                     ... off
Hybrid DFT                              ... on
   Exchange mixing (SCF)                ...  0.200
   Exchange mixing (CP-SCF)             ...  0.200
   GGA exch. scaling(SCF)               ...  0.720
   GGA exch. scaling (CP-SCF)           ...  0.720
   GGA corr. scaling (SCF)              ...  0.810
   GGA corr. scaling (CP-SCF)           ...  0.810

CP-SCF GRID
-----------

General Integration Accuracy     IntAcc      ... 3.467
Radial Grid Type                 RadialGrid  ... OptM3 with GC (2021)
Angular Grid (max. ang.)         AngularGrid ... 1 (Lebedev-50)
Angular grid pruning method      GridPruning ... 4 (adaptive)
Weight generation scheme         WeightScheme... Becke
Basis function cutoff            BFCut       ... 1.0000e-10
Integration weight cutoff        WCut        ... 1.0000e-14
Angular grids for H and He will be reduced by one unit
Partially contracted basis set               ... off
Rotationally invariant grid construction     ... off

Total number of grid points                  ...    29722
Total number of batches                      ...      486
Average number of points per batch           ...       61
Average number of grid points per atom       ...      619

CP-SCF GRIDX
------------

General Integration Accuracy     IntAcc      ... 3.067
Radial Grid Type                 RadialGrid  ... OptM3 with GC (2021)
Angular Grid (max. ang.)         AngularGrid ... 1 (Lebedev-50)
Angular grid pruning method      GridPruning ... 4 (adaptive)
Weight generation scheme         WeightScheme... Becke
Basis function cutoff            BFCut       ... 1.0000e-10
Integration weight cutoff        WCut        ... 1.0000e-14
Angular grids for H and He will be reduced by one unit
Partially contracted basis set               ... on
Rotationally invariant grid construction     ... off

Total number of grid points                  ...    14090
Total number of batches                      ...      249
Average number of points per batch           ...       56
Average number of grid points per atom       ...      294

Memory available               ... 885.0 MB
Memory needed per perturbation ...  11.6 MB
Perturbations treated per batch... 3
Number of batches              ... 1
     CP-SCF ITERATION   0:   3.6636e-02 (   1.6 sec   0/  3 done)
     CP-SCF ITERATION   1:   6.3008e-04 (   1.7 sec   3/  3 done)
                    *** THE CP-SCF HAS CONVERGED ***

Forming final perturbed densities           ... done
Transforming perturbed density to AO basis  ... done

 Raw HFC matrix (all values in MHz): 
 -----------------------------------
                -0.0130               0.0081               0.0002
                 0.0081               0.0277               0.0008
                 0.0002               0.0008              -0.0146

 A(FC)           0.0000               0.0000               0.0000
 A(SD)          -0.0146              -0.0147               0.0293
 A(ORB+DIA)      0.0000               0.0000               0.0000    A(PC) =   0.0000
 A(ORB)         -0.0000              -0.0000               0.0000    A(PC) =  -0.0000
 A(DIA)          0.0000               0.0000               0.0000    A(PC) =   0.0000
             ----------           ----------           ----------
 A(Tot)         -0.0146              -0.0146               0.0293    A(iso)=    0.0000
 Orientation: 
  X           0.9821165            0.0105707            0.1879771
  Y          -0.1881356            0.0168146            0.9819991
  Z           0.0072197           -0.9998027            0.0185026

Notes:  (1) The A matrix conforms to the "SAI" spin Hamiltonian convention.
        (2) Tensor is right-handed.


--------------------------------------------------------------------------------
----------------------------------------------------------------------------
                           ORCA EULER ANGLE PROGRAM
----------------------------------------------------------------------------

Only g-tensor available        -->  using g-tensor as reference tensor

Reference tensor               ...  g

g-tensor ordering              ...  |g_min> --> |gx>
                                    |g_mid> --> |gy>
                                    |g_max> --> |gz>

A- and EFG-tensor ordering     ...  the axes |Ax>, |Qx>, |Ay>, etc. are assigned
                                    such that the Euler rotation is minimal. You
                                    can find the respective eigenvalues as Ax,
                                    EFGx, Ay, etc. in the tables below.
                                    The relation of |Ax>, |Ay>,  etc. to Amin, Amid, etc.
                                    (as printed in the ORCA EPR/NMR CALCULATION Output)
                                    is obtained in the detailed printout.

Euler rotation around          ...  z - y - z
   First rotation              -->  by alpha around z
   Second rotation             -->  by beta around y'
   Third rotation              -->  by gamma around z''
   Positive / Negative angle   -->  clockwise / counterclockwise rotation

Plot EFG-tensors                    (-)
Plot HFC-tensors                    (-)
Detailed Printout                   (-)

-------------------------------------------------------------------------
          Euler rotation of hyperfine tensor to g-tensor
-------------------------------------------------------------------------

-------------------------------------------------------------------
 Atom  |   Alpha    Beta    Gamma   |   Ax       Ay       Az 
       |          [degrees]         |           [MHz]         
-------------------------------------------------------------------
  9H     -128.2      0.7     96.3      -0.04     0.10    -0.04
 10H     -118.2      1.0    106.7      -0.14     0.28    -0.15
 12H       35.9      5.5    -52.1      -0.04     0.07    -0.04
 13H     -135.9      6.7    119.8      -0.04     0.07    -0.04
 15H       43.4      4.6    -69.8      -0.03     0.06    -0.03
 16H     -131.6      5.8    105.1      -0.03     0.06    -0.03
 18H     -144.5      6.8    125.8      -0.02     0.04    -0.02
 19H       27.0      5.8    -45.8      -0.02     0.04    -0.02
 21H     -111.4      4.0     84.1      -0.02     0.03    -0.02
 22H       71.4      2.7    -98.7      -0.02     0.03    -0.02
 24H      -16.3     33.7    -26.4      -0.19     0.38    -0.22
 25H      166.2     34.2    151.5      -0.19     0.38    -0.22
 27H       17.1     41.7    -27.3      -0.35     0.58    -0.47
 28H     -160.8     42.3    151.2      -0.35     0.58    -0.47
 30H       62.0     33.5    -21.0       1.52    -0.36    -0.59
 31H     -115.5     34.0    156.9       1.52    -0.36    -0.59
 33H     -153.4     43.8    156.9      -1.28     1.85    -2.16
 34H       24.5     43.3    -21.6      -1.28     1.85    -2.16
 36H     -137.7     41.2    160.4       4.14    -5.55    -8.96
 37H       40.1     40.8    -17.9       4.15    -5.54    -8.96
 39H      140.2     36.4   -135.3      24.00    37.87    23.55
 40H      -41.3     37.6     45.9      24.15    38.03    23.71
 42H      -96.2     31.5    101.6     -59.39   -96.46   -18.23
 43H       83.1     30.1    -77.8     -59.39   -96.47   -18.23
 45H      -93.8      0.9     95.0      -0.05     0.09    -0.05
 46H      -70.9      0.9    108.0       0.13    -0.06    -0.07
 47H     -111.0      0.6     87.7      -0.01     0.03    -0.01
-------------------------------------------------------------------


Maximum memory used throughout the entire EPRNMR-calculation: 199.5 MB

Timings for individual modules:

Sum of individual times         ...     4118.488 sec (=  68.641 min)
GTO integral calculation        ...        4.465 sec (=   0.074 min)   0.1 %
Spin-Orbit-Coupling Matrices    ...        8.334 sec (=   0.139 min)   0.2 %
SCF iterations                  ...       26.804 sec (=   0.447 min)   0.7 %
EPR/NMR calculation             ...     4078.886 sec (=  67.981 min)  99.0 %
                             ****ORCA TERMINATED NORMALLY****
TOTAL RUN TIME: 0 days 1 hours 8 minutes 42 seconds 718 msec
