
                                 *****************
                                 * O   R   C   A *
                                 *****************

                                            #,                                       
                                            ###                                      
                                            ####                                     
                                            #####                                    
                                            ######                                   
                                           ########,                                 
                                     ,,################,,,,,                         
                               ,,#################################,,                 
                          ,,##########################################,,             
                       ,#########################################, ''#####,          
                    ,#############################################,,   '####,        
                  ,##################################################,,,,####,       
                ,###########''''           ''''###############################       
              ,#####''   ,,,,##########,,,,          '''####'''          '####       
            ,##' ,,,,###########################,,,                        '##       
           ' ,,###''''                  '''############,,,                           
         ,,##''                                '''############,,,,        ,,,,,,###''
      ,#''                                            '''#######################'''  
     '                                                          ''''####''''         
             ,#######,   #######,   ,#######,      ##                                
            ,#'     '#,  ##    ##  ,#'     '#,    #''#        ######   ,####,        
            ##       ##  ##   ,#'  ##            #'  '#       #        #'  '#        
            ##       ##  #######   ##           ,######,      #####,   #    #        
            '#,     ,#'  ##    ##  '#,     ,#' ,#      #,         ##   #,  ,#        
             '#######'   ##     ##  '#######'  #'      '#     #####' # '####'        



                  #######################################################
                  #                        -***-                        #
                  #          Department of theory and spectroscopy      #
                  #    Directorship and core code : Frank Neese         #
                  #        Max Planck Institute fuer Kohlenforschung    #
                  #                Kaiser Wilhelm Platz 1               #
                  #                 D-45470 Muelheim/Ruhr               #
                  #                      Germany                        #
                  #                                                     #
                  #                  All rights reserved                #
                  #                        -***-                        #
                  #######################################################


                         Program Version 5.0.4 -  RELEASE  -


 With contributions from (in alphabetic order):
   Daniel Aravena         : Magnetic Suceptibility
   Michael Atanasov       : Ab Initio Ligand Field Theory (pilot matlab implementation)
   Alexander A. Auer      : GIAO ZORA, VPT2 properties, NMR spectrum
   Ute Becker             : Parallelization
   Giovanni Bistoni       : ED, misc. LED, open-shell LED, HFLD
   Martin Brehm           : Molecular dynamics
   Dmytro Bykov           : SCF Hessian
   Vijay G. Chilkuri      : MRCI spin determinant printing, contributions to CSF-ICE
   Dipayan Datta          : RHF DLPNO-CCSD density
   Achintya Kumar Dutta   : EOM-CC, STEOM-CC
   Dmitry Ganyushin       : Spin-Orbit,Spin-Spin,Magnetic field MRCI
   Miquel Garcia          : C-PCM and meta-GGA Hessian, CC/C-PCM, Gaussian charge scheme
   Yang Guo               : DLPNO-NEVPT2, F12-NEVPT2, CIM, IAO-localization
   Andreas Hansen         : Spin unrestricted coupled pair/coupled cluster methods
   Benjamin Helmich-Paris : MC-RPA, TRAH-SCF, COSX integrals
   Lee Huntington         : MR-EOM, pCC
   Robert Izsak           : Overlap fitted RIJCOSX, COSX-SCS-MP3, EOM
   Marcus Kettner         : VPT2
   Christian Kollmar      : KDIIS, OOCD, Brueckner-CCSD(T), CCSD density, CASPT2, CASPT2-K
   Simone Kossmann        : Meta GGA functionals, TD-DFT gradient, OOMP2, MP2 Hessian
   Martin Krupicka        : Initial AUTO-CI
   Lucas Lang             : DCDCAS
   Marvin Lechner         : AUTO-CI (C++ implementation), FIC-MRCC
   Dagmar Lenk            : GEPOL surface, SMD
   Dimitrios Liakos       : Extrapolation schemes; Compound Job, initial MDCI parallelization
   Dimitrios Manganas     : Further ROCIS development; embedding schemes
   Dimitrios Pantazis     : SARC Basis sets
   Anastasios Papadopoulos: AUTO-CI, single reference methods and gradients
   Taras Petrenko         : DFT Hessian,TD-DFT gradient, ASA, ECA, R-Raman, ABS, FL, XAS/XES, NRVS
   Peter Pinski           : DLPNO-MP2, DLPNO-MP2 Gradient
   Christoph Reimann      : Effective Core Potentials
   Marius Retegan         : Local ZFS, SOC
   Christoph Riplinger    : Optimizer, TS searches, QM/MM, DLPNO-CCSD(T), (RO)-DLPNO pert. Triples
   Tobias Risthaus        : Range-separated hybrids, TD-DFT gradient, RPA, STAB
   Michael Roemelt        : Original ROCIS implementation
   Masaaki Saitow         : Open-shell DLPNO-CCSD energy and density
   Barbara Sandhoefer     : DKH picture change effects
   Avijit Sen             : IP-ROCIS
   Kantharuban Sivalingam : CASSCF convergence, NEVPT2, FIC-MRCI
   Bernardo de Souza      : ESD, SOC TD-DFT
   Georgi Stoychev        : AutoAux, RI-MP2 NMR, DLPNO-MP2 response
   Willem Van den Heuvel  : Paramagnetic NMR
   Boris Wezisla          : Elementary symmetry handling
   Frank Wennmohs         : Technical directorship


 We gratefully acknowledge several colleagues who have allowed us to
 interface, adapt or use parts of their codes:
   Stefan Grimme, W. Hujo, H. Kruse, P. Pracht,  : VdW corrections, initial TS optimization,
                  C. Bannwarth, S. Ehlert          DFT functionals, gCP, sTDA/sTD-DF
   Ed Valeev, F. Pavosevic, A. Kumar             : LibInt (2-el integral package), F12 methods
   Garnet Chan, S. Sharma, J. Yang, R. Olivares  : DMRG
   Ulf Ekstrom                                   : XCFun DFT Library
   Mihaly Kallay                                 : mrcc  (arbitrary order and MRCC methods)
   Jiri Pittner, Ondrej Demel                    : Mk-CCSD
   Frank Weinhold                                : gennbo (NPA and NBO analysis)
   Christopher J. Cramer and Donald G. Truhlar   : smd solvation model
   Lars Goerigk                                  : TD-DFT with DH, B97 family of functionals
   V. Asgeirsson, H. Jonsson                     : NEB implementation
   FAccTs GmbH                                   : IRC, NEB, NEB-TS, DLPNO-Multilevel, CI-OPT
                                                   MM, QMMM, 2- and 3-layer-ONIOM, Crystal-QMMM,
                                                   LR-CPCM, SF, NACMEs, symmetry and pop. for TD-DFT,
                                                   nearIR, NL-DFT gradient (VV10), updates on ESD,
                                                   ML-optimized integration grids
   S Lehtola, MJT Oliveira, MAL Marques          : LibXC Library
   Liviu Ungur et al                             : ANISO software


 Your calculation uses the libint2 library for the computation of 2-el integrals
 For citations please refer to: http://libint.valeyev.net

 Your ORCA version has been built with support for libXC version: 5.1.0
 For citations please refer to: https://tddft.org/programs/libxc/

 This ORCA versions uses:
   CBLAS   interface :  Fast vector & matrix operations
   LAPACKE interface :  Fast linear algebra routines
   SCALAPACK package :  Parallel linear algebra routines
   Shared memory     :  Shared parallel matrices
   BLAS/LAPACK       :  OpenBLAS 0.3.15  USE64BITINT DYNAMIC_ARCH NO_AFFINITY SkylakeX SINGLE_THREADED
        Core in use  :  SkylakeX
   Copyright (c) 2011-2014, The OpenBLAS Project




***************************************
The coordinates will be read from file: opt.xyz
***************************************


================================================================================

----- Orbital basis set information -----
Your calculation utilizes the basis: EPR-II
   V. Barone, in Recent Advances in Density Functional Methods, Part 1 (ed. D. P. Chong), World Scientific, Singapore, 1995, p. 287.

----- AuxJ basis set information -----
Your calculation utilizes the AutoAux generation procedure.
  G. L. Stoychev, A. A. Auer, F. Neese, J. Chem. Theory Comput. 13, 554 (2017)

----- AuxC basis set information -----
Your calculation utilizes the AutoAux generation procedure.
  G. L. Stoychev, A. A. Auer, F. Neese, J. Chem. Theory Comput. 13, 554 (2017)

----- AuxJK basis set information -----
Your calculation utilizes the AutoAux generation procedure.
  G. L. Stoychev, A. A. Auer, F. Neese, J. Chem. Theory Comput. 13, 554 (2017)

================================================================================
                                        WARNINGS
                       Please study these warnings very carefully!
================================================================================

WARNING: Old DensityContainer found on disk!
         Will remove this file - 
         If you want to keep old densities, please start your calculation with a different basename. 


WARNING: your system is open-shell and RHF/RKS was chosen
  ===> : WILL SWITCH to UHF/UKS


INFO   : the flag for use of the SHARK integral package has been found!

================================================================================
                                       INPUT FILE
================================================================================
NAME = EPRII.inp
|  1> ! B3LYP EPR-II AUTOAUX
|  2> %pal nprocs 16 end
|  3> *XYZFile 0 2 opt.xyz
|  4> %EPRNMR
|  5>         GTENSOR   TRUE
|  6>         NUCLEI    = ALL H {SHIFT, AISO, ADIP, AORB}
|  7>         ORI       CenterOfElCharge
|  8> END
|  9> 
| 10>                          ****END OF INPUT****
================================================================================

                       ****************************
                       * Single Point Calculation *
                       ****************************

---------------------------------
CARTESIAN COORDINATES (ANGSTROEM)
---------------------------------
  C     -4.033095    0.125995   -0.120550
  C     -2.818554    0.064283   -0.113733
  C      2.844701   -0.087698   -0.094014
  C     -1.387308    0.001670   -0.109120
  C     -0.717415   -1.248577   -0.131387
  C      0.677891   -1.227304   -0.125201
  C      1.413450   -0.025455   -0.098238
  C      0.743520    1.224786   -0.076040
  C     -0.651774    1.203497   -0.082207
  H      1.237515   -2.162251   -0.141592
  H     -1.211574    2.138326   -0.066066
  C     -1.519082   -2.535740   -0.160319
  H     -2.193391   -2.502424   -1.035822
  H     -2.198917   -2.538057    0.711570
  C     -0.725170   -3.844428   -0.184263
  H     -0.057419   -3.863303   -1.065313
  H     -0.067448   -3.901298    0.702698
  C     -1.630154   -5.082043   -0.216172
  H     -2.302557   -5.063679    0.661573
  H     -2.289170   -5.027876   -1.102556
  C     -0.849650   -6.398680   -0.237162
  H     -0.209987   -6.499597    0.656655
  H     -0.192325   -6.460562   -1.121673
  C      1.544976    2.512262   -0.046310
  H      2.211265    2.483799    0.835489
  H      2.232417    2.510877   -0.912033
  C      0.748806    3.819980   -0.035637
  H      0.094974    3.867835   -0.925718
  H      0.077234    3.843479    0.842094
  C      1.650750    5.059985   -0.009203
  H      2.308780    5.015134    0.879125
  H      2.325397    5.040432   -0.885895
  C      0.871144    6.379748    0.002295
  H      0.196174    6.397851    0.879166
  H      0.212832    6.422731   -0.886310
  C      1.768137    7.622332    0.028249
  H      2.440869    7.614214   -0.849002
  H      2.424364    7.589422    0.917345
  C      0.965992    8.948773    0.039424
  H      0.313046    8.962787   -0.853435
  H      0.295262    8.937141    0.919053
  C      1.821040   10.171631    0.065838
  H      2.200965   10.570215    1.010891
  H      2.218733   10.598274   -0.859437
  C      4.059287   -0.148837   -0.092234
  H     -5.104117    0.181270   -0.124553
  H      5.130370   -0.203000   -0.089533
  H     -1.525743   -7.268664   -0.263008

----------------------------
CARTESIAN COORDINATES (A.U.)
----------------------------
  NO LB      ZA    FRAG     MASS         X           Y           Z
   0 C     6.0000    0    12.011   -7.621445    0.238096   -0.227806
   1 C     6.0000    0    12.011   -5.326295    0.121477   -0.214924
   2 C     6.0000    0    12.011    5.375707   -0.165726   -0.177661
   3 C     6.0000    0    12.011   -2.621633    0.003156   -0.206208
   4 C     6.0000    0    12.011   -1.355718   -2.359469   -0.248285
   5 C     6.0000    0    12.011    1.281028   -2.319269   -0.236597
   6 C     6.0000    0    12.011    2.671033   -0.048104   -0.185643
   7 C     6.0000    0    12.011    1.405050    2.314511   -0.143695
   8 C     6.0000    0    12.011   -1.231674    2.274280   -0.155348
   9 H     1.0000    0     1.008    2.338565   -4.086062   -0.267571
  10 H     1.0000    0     1.008   -2.289542    4.040851   -0.124848
  11 C     6.0000    0    12.011   -2.870649   -4.791855   -0.302959
  12 H     1.0000    0     1.008   -4.144908   -4.728896   -1.957419
  13 H     1.0000    0     1.008   -4.155351   -4.796233    1.344672
  14 C     6.0000    0    12.011   -1.370372   -7.264916   -0.348206
  15 H     1.0000    0     1.008   -0.108507   -7.300585   -2.013149
  16 H     1.0000    0     1.008   -0.127457   -7.372384    1.327906
  17 C     6.0000    0    12.011   -3.080545   -9.603669   -0.408505
  18 H     1.0000    0     1.008   -4.351202   -9.568967    1.250192
  19 H     1.0000    0     1.008   -4.325904   -9.501309   -2.083529
  20 C     6.0000    0    12.011   -1.605605  -12.091753   -0.448172
  21 H     1.0000    0     1.008   -0.396818  -12.282458    1.240898
  22 H     1.0000    0     1.008   -0.363442  -12.208692   -2.119655
  23 C     6.0000    0    12.011    2.919582    4.747487   -0.087513
  24 H     1.0000    0     1.008    4.178684    4.693700    1.578845
  25 H     1.0000    0     1.008    4.218658    4.744871   -1.723493
  26 C     6.0000    0    12.011    1.415038    7.218715   -0.067345
  27 H     1.0000    0     1.008    0.179475    7.309149   -1.749353
  28 H     1.0000    0     1.008    0.145950    7.263122    1.591328
  29 C     6.0000    0    12.011    3.119466    9.561986   -0.017391
  30 H     1.0000    0     1.008    4.362961    9.477230    1.661306
  31 H     1.0000    0     1.008    4.394363    9.525036   -1.674099
  32 C     6.0000    0    12.011    1.646224   12.055976    0.004337
  33 H     1.0000    0     1.008    0.370715   12.090187    1.661383
  34 H     1.0000    0     1.008    0.402194   12.137203   -1.674883
  35 C     6.0000    0    12.011    3.341295   14.404120    0.053382
  36 H     1.0000    0     1.008    4.612574   14.388779   -1.604382
  37 H     1.0000    0     1.008    4.581384   14.341929    1.733531
  38 C     6.0000    0    12.011    1.825460   16.910729    0.074500
  39 H     1.0000    0     1.008    0.591572   16.937213   -1.612758
  40 H     1.0000    0     1.008    0.557964   16.888749    1.736758
  41 C     6.0000    0    12.011    3.441267   19.221597    0.124417
  42 H     1.0000    0     1.008    4.159221   19.974812    1.910308
  43 H     1.0000    0     1.008    4.192798   20.027834   -1.624101
  44 C     6.0000    0    12.011    7.670940   -0.281260   -0.174296
  45 H     1.0000    0     1.008   -9.645384    0.342550   -0.235371
  46 H     1.0000    0     1.008    9.694995   -0.383615   -0.169193
  47 H     1.0000    0     1.008   -2.883236  -13.735785   -0.497013

--------------------------------
INTERNAL COORDINATES (ANGSTROEM)
--------------------------------
 C      0   0   0     0.000000000000     0.00000000     0.00000000
 C      1   0   0     1.216126533425     0.00000000     0.00000000
 C      2   1   0     5.665328879189   178.62311323     0.00000000
 C      2   1   3     1.432622014091   179.57366667   346.36765878
 C      4   2   1     1.418580903656   120.67998894   199.85893781
 C      5   4   2     1.395481891878   117.30089220   180.00194210
 C      6   5   4     1.409331062043   122.33981991     0.00000000
 C      7   6   5     1.418591952718   120.35786033     0.00000000
 C      8   7   6     1.395469875603   117.30166258     0.00000000
 H      6   5   4     1.089758597975   120.02119069   179.99891363
 H      9   8   7     1.089744037995   120.03182786   180.01309598
 C      5   4   2     1.516672751091   119.91158003     0.00000000
 H     12   5   4     1.105579850259   108.17458873    56.23773308
 H     12   5   4     1.105608617036   108.16474260   303.64915849
 C     12   5   4     1.530860730586   116.85196988   179.95762620
 H     15  12   5     1.105665231667   109.89277517   301.89163176
 H     15  12   5     1.105681392118   109.87190177    58.40315050
 C     15  12   5     1.533526994534   112.59361507   180.14702054
 H     18  15  12     1.105847616516   109.20256463   302.48799365
 H     18  15  12     1.105854061265   109.19764228    57.79198366
 C     18  15  12     1.530739018735   113.17514602   180.13028485
 H     21  18  15     1.103748723839   111.28677580    60.02761689
 H     21  18  15     1.103750210883   111.27649423   300.30992875
 C      8   7   6     1.516841639996   119.92338399   179.96555595
 H     24   8   7     1.105585561708   108.19229282   303.17569237
 H     24   8   7     1.105465601363   108.18939608    55.80527247
 C     24   8   7     1.531054090402   116.76610637   179.49268478
 H     27  24   8     1.105454019405   109.81171929   301.92355081
 H     27  24   8     1.105429445798   109.85323597    58.37606105
 C     27  24   8     1.533563296303   112.63818716   180.15281981
 H     30  27  24     1.106409320032   109.32050156   302.31893984
 H     30  27  24     1.106399094548   109.30995567    57.73499914
 C     30  27  24     1.532869910717   113.40155910   180.02000813
 H     33  30  27     1.106713810006   109.28156324    57.69433825
 H     33  30  27     1.106725444466   109.26524721   302.33004611
 C     33  30  27     1.532737960493   113.60794831   180.01918290
 H     36  33  30     1.105532988879   109.67754542    58.04715616
 H     36  33  30     1.105535900967   109.68583839   301.93781246
 C     36  33  30     1.550163098883   113.01602217   179.99164143
 H     39  36  33     1.106223899969   108.08638156   302.50867140
 H     39  36  33     1.106237562865   108.08810700    57.40717091
 C     39  36  33     1.492376628128   113.87849646   179.95243980
 H     42  39  36     1.093772115972   120.85769729   275.06607383
 H     42  39  36     1.093763237714   120.86205473    85.02102555
 C      3   2   1     1.216124220326   178.65063847   189.98545716
 H      1   2   4     1.072455534972   179.88341160   274.34196710
 H     45   3   7     1.072455866565   179.93817679   270.13232413
 H     21  18  15     1.102108103087   111.50000175   180.17420782

---------------------------
INTERNAL COORDINATES (A.U.)
---------------------------
 C      0   0   0     0.000000000000     0.00000000     0.00000000
 C      1   0   0     2.298146092369     0.00000000     0.00000000
 C      2   1   0    10.705920040262   178.62311323     0.00000000
 C      2   1   3     2.707263260058   179.57366667   346.36765878
 C      4   2   1     2.680729406720   120.67998894   199.85893781
 C      5   4   2     2.637078600496   117.30089220   180.00194210
 C      6   5   4     2.663249739289   122.33981991     0.00000000
 C      7   6   5     2.680750286421   120.35786033     0.00000000
 C      8   7   6     2.637055893027   117.30166258     0.00000000
 H      6   5   4     2.059345302259   120.02119069   179.99891363
 H      9   8   7     2.059317787884   120.03182786   180.01309598
 C      5   4   2     2.866096134343   119.91158003     0.00000000
 H     12   5   4     2.089243136171   108.17458873    56.23773308
 H     12   5   4     2.089297497502   108.16474260   303.64915849
 C     12   5   4     2.892907529982   116.85196988   179.95762620
 H     15  12   5     2.089404483649   109.89277517   301.89163176
 H     15  12   5     2.089435022476   109.87190177    58.40315050
 C     15  12   5     2.897946038645   112.59361507   180.14702054
 H     18  15  12     2.089749141065   109.20256463   302.48799365
 H     18  15  12     2.089761319875   109.19764228    57.79198366
 C     18  15  12     2.892677527916   113.17514602   180.13028485
 H     21  18  15     2.085782808721   111.28677580    60.02761689
 H     21  18  15     2.085785618826   111.27649423   300.30992875
 C      8   7   6     2.866415288121   119.92338399   179.96555595
 H     24   8   7     2.089253929245   108.19229282   303.17569237
 H     24   8   7     2.089027237047   108.18939608    55.80527247
 C     24   8   7     2.893272927080   116.76610637   179.49268478
 H     27  24   8     2.089005350317   109.81171929   301.92355081
 H     27  24   8     2.088958912930   109.85323597    58.37606105
 C     27  24   8     2.898014639047   112.63818716   180.15281981
 H     30  27  24     2.090810606878   109.32050156   302.31893984
 H     30  27  24     2.090791283514   109.30995567    57.73499914
 C     30  27  24     2.896704330183   113.40155910   180.02000813
 H     33  30  27     2.091386009539   109.28156324    57.69433825
 H     33  30  27     2.091407995484   109.26524721   302.33004611
 C     33  30  27     2.896454980396   113.60794831   180.01918290
 H     36  33  30     2.089154580996   109.67754542    58.04715616
 H     36  33  30     2.089160084045   109.68583839   301.93781246
 C     36  33  30     2.929383719800   113.01602217   179.99164143
 H     39  36  33     2.090460213740   108.08638156   302.50867140
 H     39  36  33     2.090486032872   108.08810700    57.40717091
 C     39  36  33     2.820183115826   113.87849646   179.95243980
 H     42  39  36     2.066929752106   120.85769729   275.06607383
 H     42  39  36     2.066912974631   120.86205473    85.02102555
 C      3   2   1     2.298141721245   178.65063847   189.98545716
 H      1   2   4     2.026647251906   179.88341160   274.34196710
 H     45   3   7     2.026647878524   179.93817679   270.13232413
 H     21  18  15     2.082682484811   111.50000175   180.17420782

---------------------
BASIS SET INFORMATION
---------------------
There are 2 groups of distinct atoms

 Group   1 Type C   : 10s5p1d contracted to 6s2p1d pattern {511111/41/1}
 Group   2 Type H   : 6s1p contracted to 4s1p pattern {3111/1}

Atom   0C    basis set group =>   1
Atom   1C    basis set group =>   1
Atom   2C    basis set group =>   1
Atom   3C    basis set group =>   1
Atom   4C    basis set group =>   1
Atom   5C    basis set group =>   1
Atom   6C    basis set group =>   1
Atom   7C    basis set group =>   1
Atom   8C    basis set group =>   1
Atom   9H    basis set group =>   2
Atom  10H    basis set group =>   2
Atom  11C    basis set group =>   1
Atom  12H    basis set group =>   2
Atom  13H    basis set group =>   2
Atom  14C    basis set group =>   1
Atom  15H    basis set group =>   2
Atom  16H    basis set group =>   2
Atom  17C    basis set group =>   1
Atom  18H    basis set group =>   2
Atom  19H    basis set group =>   2
Atom  20C    basis set group =>   1
Atom  21H    basis set group =>   2
Atom  22H    basis set group =>   2
Atom  23C    basis set group =>   1
Atom  24H    basis set group =>   2
Atom  25H    basis set group =>   2
Atom  26C    basis set group =>   1
Atom  27H    basis set group =>   2
Atom  28H    basis set group =>   2
Atom  29C    basis set group =>   1
Atom  30H    basis set group =>   2
Atom  31H    basis set group =>   2
Atom  32C    basis set group =>   1
Atom  33H    basis set group =>   2
Atom  34H    basis set group =>   2
Atom  35C    basis set group =>   1
Atom  36H    basis set group =>   2
Atom  37H    basis set group =>   2
Atom  38C    basis set group =>   1
Atom  39H    basis set group =>   2
Atom  40H    basis set group =>   2
Atom  41C    basis set group =>   1
Atom  42H    basis set group =>   2
Atom  43H    basis set group =>   2
Atom  44C    basis set group =>   1
Atom  45H    basis set group =>   2
Atom  46H    basis set group =>   2
Atom  47H    basis set group =>   2
---------------------------------
AUXILIARY/J BASIS SET INFORMATION
---------------------------------
There are 2 groups of distinct atoms

 Group   1 Type C   : 17s13p12d2f contracted to 17s13p12d2f pattern {11111111111111111/1111111111111/111111111111/11}
 Group   2 Type H   : 15s6p1d contracted to 15s6p1d pattern {111111111111111/111111/1}

Atom   0C    basis set group =>   1
Atom   1C    basis set group =>   1
Atom   2C    basis set group =>   1
Atom   3C    basis set group =>   1
Atom   4C    basis set group =>   1
Atom   5C    basis set group =>   1
Atom   6C    basis set group =>   1
Atom   7C    basis set group =>   1
Atom   8C    basis set group =>   1
Atom   9H    basis set group =>   2
Atom  10H    basis set group =>   2
Atom  11C    basis set group =>   1
Atom  12H    basis set group =>   2
Atom  13H    basis set group =>   2
Atom  14C    basis set group =>   1
Atom  15H    basis set group =>   2
Atom  16H    basis set group =>   2
Atom  17C    basis set group =>   1
Atom  18H    basis set group =>   2
Atom  19H    basis set group =>   2
Atom  20C    basis set group =>   1
Atom  21H    basis set group =>   2
Atom  22H    basis set group =>   2
Atom  23C    basis set group =>   1
Atom  24H    basis set group =>   2
Atom  25H    basis set group =>   2
Atom  26C    basis set group =>   1
Atom  27H    basis set group =>   2
Atom  28H    basis set group =>   2
Atom  29C    basis set group =>   1
Atom  30H    basis set group =>   2
Atom  31H    basis set group =>   2
Atom  32C    basis set group =>   1
Atom  33H    basis set group =>   2
Atom  34H    basis set group =>   2
Atom  35C    basis set group =>   1
Atom  36H    basis set group =>   2
Atom  37H    basis set group =>   2
Atom  38C    basis set group =>   1
Atom  39H    basis set group =>   2
Atom  40H    basis set group =>   2
Atom  41C    basis set group =>   1
Atom  42H    basis set group =>   2
Atom  43H    basis set group =>   2
Atom  44C    basis set group =>   1
Atom  45H    basis set group =>   2
Atom  46H    basis set group =>   2
Atom  47H    basis set group =>   2
---------------------------------
AUXILIARY/C BASIS SET INFORMATION
---------------------------------
There are 2 groups of distinct atoms

 Group   1 Type C   : 17s13p12d2f contracted to 17s13p12d2f pattern {11111111111111111/1111111111111/111111111111/11}
 Group   2 Type H   : 15s6p1d contracted to 15s6p1d pattern {111111111111111/111111/1}

Atom   0C    basis set group =>   1
Atom   1C    basis set group =>   1
Atom   2C    basis set group =>   1
Atom   3C    basis set group =>   1
Atom   4C    basis set group =>   1
Atom   5C    basis set group =>   1
Atom   6C    basis set group =>   1
Atom   7C    basis set group =>   1
Atom   8C    basis set group =>   1
Atom   9H    basis set group =>   2
Atom  10H    basis set group =>   2
Atom  11C    basis set group =>   1
Atom  12H    basis set group =>   2
Atom  13H    basis set group =>   2
Atom  14C    basis set group =>   1
Atom  15H    basis set group =>   2
Atom  16H    basis set group =>   2
Atom  17C    basis set group =>   1
Atom  18H    basis set group =>   2
Atom  19H    basis set group =>   2
Atom  20C    basis set group =>   1
Atom  21H    basis set group =>   2
Atom  22H    basis set group =>   2
Atom  23C    basis set group =>   1
Atom  24H    basis set group =>   2
Atom  25H    basis set group =>   2
Atom  26C    basis set group =>   1
Atom  27H    basis set group =>   2
Atom  28H    basis set group =>   2
Atom  29C    basis set group =>   1
Atom  30H    basis set group =>   2
Atom  31H    basis set group =>   2
Atom  32C    basis set group =>   1
Atom  33H    basis set group =>   2
Atom  34H    basis set group =>   2
Atom  35C    basis set group =>   1
Atom  36H    basis set group =>   2
Atom  37H    basis set group =>   2
Atom  38C    basis set group =>   1
Atom  39H    basis set group =>   2
Atom  40H    basis set group =>   2
Atom  41C    basis set group =>   1
Atom  42H    basis set group =>   2
Atom  43H    basis set group =>   2
Atom  44C    basis set group =>   1
Atom  45H    basis set group =>   2
Atom  46H    basis set group =>   2
Atom  47H    basis set group =>   2
----------------------------------
AUXILIARY/JK BASIS SET INFORMATION
----------------------------------
There are 2 groups of distinct atoms

 Group   1 Type C   : 17s13p12d2f contracted to 17s13p12d2f pattern {11111111111111111/1111111111111/111111111111/11}
 Group   2 Type H   : 15s6p1d contracted to 15s6p1d pattern {111111111111111/111111/1}

Atom   0C    basis set group =>   1
Atom   1C    basis set group =>   1
Atom   2C    basis set group =>   1
Atom   3C    basis set group =>   1
Atom   4C    basis set group =>   1
Atom   5C    basis set group =>   1
Atom   6C    basis set group =>   1
Atom   7C    basis set group =>   1
Atom   8C    basis set group =>   1
Atom   9H    basis set group =>   2
Atom  10H    basis set group =>   2
Atom  11C    basis set group =>   1
Atom  12H    basis set group =>   2
Atom  13H    basis set group =>   2
Atom  14C    basis set group =>   1
Atom  15H    basis set group =>   2
Atom  16H    basis set group =>   2
Atom  17C    basis set group =>   1
Atom  18H    basis set group =>   2
Atom  19H    basis set group =>   2
Atom  20C    basis set group =>   1
Atom  21H    basis set group =>   2
Atom  22H    basis set group =>   2
Atom  23C    basis set group =>   1
Atom  24H    basis set group =>   2
Atom  25H    basis set group =>   2
Atom  26C    basis set group =>   1
Atom  27H    basis set group =>   2
Atom  28H    basis set group =>   2
Atom  29C    basis set group =>   1
Atom  30H    basis set group =>   2
Atom  31H    basis set group =>   2
Atom  32C    basis set group =>   1
Atom  33H    basis set group =>   2
Atom  34H    basis set group =>   2
Atom  35C    basis set group =>   1
Atom  36H    basis set group =>   2
Atom  37H    basis set group =>   2
Atom  38C    basis set group =>   1
Atom  39H    basis set group =>   2
Atom  40H    basis set group =>   2
Atom  41C    basis set group =>   1
Atom  42H    basis set group =>   2
Atom  43H    basis set group =>   2
Atom  44C    basis set group =>   1
Atom  45H    basis set group =>   2
Atom  46H    basis set group =>   2
Atom  47H    basis set group =>   2

Checking for AutoStart:
The File: EPRII.gbw exists
Trying to determine its content:
     ... Fine, the file contains calculation information
     ... Fine, the calculation information was read
     ... Fine, the file contains a basis set
     ... Fine, the basis set was read
     ... Fine, the file contains a geometry
     ... Fine, the geometry was read
     ... Fine, the file contains a set of orbitals
     ... Fine, the orbitals can be read
     => possible old guess file was deleted
     => GBW file was renamed to GES file
     => GES file is set as startup file
     => Guess is set to MORead
     ... now leaving AutoStart



           ************************************************************
           *        Program running with 16 parallel MPI-processes    *
           *              working on a common directory               *
           ************************************************************
------------------------------------------------------------------------------
                           ORCA GTO INTEGRAL CALCULATION
                           -- RI-GTO INTEGRALS CHOSEN --
------------------------------------------------------------------------------
------------------------------------------------------------------------------
                   ___                                                        
                  /   \      - P O W E R E D   B Y -                         
                 /     \                                                     
                 |  |  |   _    _      __       _____    __    __             
                 |  |  |  | |  | |    /  \     |  _  \  |  |  /  |          
                  \  \/   | |  | |   /    \    | | | |  |  | /  /          
                 / \  \   | |__| |  /  /\  \   | |_| |  |  |/  /          
                |  |  |   |  __  | /  /__\  \  |    /   |      \           
                |  |  |   | |  | | |   __   |  |    \   |  |\   \          
                \     /   | |  | | |  |  |  |  | |\  \  |  | \   \       
                 \___/    |_|  |_| |__|  |__|  |_| \__\ |__|  \__/        
                                                                              
                      - O R C A' S   B I G   F R I E N D -                    
                                      &                                       
                       - I N T E G R A L  F E E D E R -                       
                                                                              
 v1 FN, 2020, v2 2021                                                         
------------------------------------------------------------------------------


Reading SHARK input file EPRII.SHARKINP.tmp ... ok
----------------------
SHARK INTEGRAL PACKAGE
----------------------

Number of atoms                             ...     48
Number of basis functions                   ...    546
Number of shells                            ...    324
Maximum angular momentum                    ...      2
Integral batch strategy                     ... SHARK/LIBINT Hybrid
RI-J (if used) integral strategy            ... SPLIT-RIJ (Revised 2003 algorithm where possible)
Printlevel                                  ...      1
Contraction scheme used                     ... SEGMENTED contraction
Coulomb Range Separation                    ... NOT USED
Exchange Range Separation                   ... NOT USED
Finite Nucleus Model                        ... NOT USED
Auxiliary Coulomb fitting basis             ... AVAILABLE
   # of basis functions in Aux-J            ...   3756
   # of shells in Aux-J                     ...   1518
   Maximum angular momentum in Aux-J        ...      3
Auxiliary J/K fitting basis                 ... AVAILABLE
   # of basis functions in Aux-JK           ...   3756
   # of shells in Aux-JK                    ...   1518
   Maximum angular momentum in Aux-JK       ...      3
Auxiliary Correlation fitting basis         ... AVAILABLE
   # of basis functions in Aux-C            ...   3756
   # of shells in Aux-C                     ...   1518
   Maximum angular momentum in Aux-C        ...      3
Auxiliary 'external' fitting basis          ... NOT available
Integral threshold                          ...     1.000000e-10
Primitive cut-off                           ...     1.000000e-11
Primitive pair pre-selection threshold      ...     1.000000e-11

Calculating pre-screening integrals         ... done (  0.0 sec) Dimension = 324
Organizing shell pair data                  ... done (  0.2 sec)
Shell pair information
Total number of shell pairs                 ...     52650
Shell pairs after pre-screening             ...     26306
Total number of primitive shell pairs       ...    138492
Primitive shell pairs kept                  ...     49274
          la=0 lb=0:  12270 shell pairs
          la=1 lb=0:   9090 shell pairs
          la=1 lb=1:   1571 shell pairs
          la=2 lb=0:   2368 shell pairs
          la=2 lb=1:    872 shell pairs
          la=2 lb=2:    135 shell pairs

Calculating one electron integrals          ... done (  0.0 sec)
Calculating RI/J V-Matrix + Cholesky decomp.... done (  1.0 sec)
Calculating RI/JK V-Matrix + Cholesky decomp... done (  0.9 sec)
Calculating RI/C V-Matrix + Cholesky decomp.... done (  0.8 sec)
Calculating Nuclear repulsion               ... done (  0.0 sec) ENN=   1441.284606657862 Eh

SHARK setup successfully completed in   3.3 seconds

Maximum memory used throughout the entire GTOINT-calculation: 52.6 MB


           ************************************************************
           *        Program running with 16 parallel MPI-processes    *
           *              working on a common directory               *
           ************************************************************
-------------------------------------------------------------------------------
                                 ORCA SCF
-------------------------------------------------------------------------------

------------
SCF SETTINGS
------------
Hamiltonian:
 Density Functional     Method          .... DFT(GTOs)
 Exchange Functional    Exchange        .... B88
   X-Alpha parameter    XAlpha          ....  0.666667
   Becke's b parameter  XBeta           ....  0.004200
 Correlation Functional Correlation     .... LYP
 LDA part of GGA corr.  LDAOpt          .... VWN-5
 Gradients option       PostSCFGGA      .... off
 Hybrid DFT is turned on
   Fraction HF Exchange ScalHFX         ....  0.200000
   Scaling of DF-GGA-X  ScalDFX         ....  0.720000
   Scaling of DF-GGA-C  ScalDFC         ....  0.810000
   Scaling of DF-LDA-C  ScalLDAC        ....  1.000000
   Perturbative correction              ....  0.000000
   Density functional embedding theory  .... OFF
   NL short-range parameter             ....  4.800000
 RI-approximation to the Coulomb term is turned on
   Number of AuxJ basis functions       .... 3756
   RIJ-COSX (HFX calculated with COS-X)).... on


General Settings:
 Integral files         IntName         .... EPRII
 Hartree-Fock type      HFTyp           .... UHF
 Total Charge           Charge          ....    0
 Multiplicity           Mult            ....    2
 Number of Electrons    NEL             ....  153
 Basis Dimension        Dim             ....  546
 Nuclear Repulsion      ENuc            ....   1441.2846066579 Eh

Convergence Acceleration:
 DIIS                   CNVDIIS         .... on
   Start iteration      DIISMaxIt       ....    12
   Startup error        DIISStart       ....  0.200000
   # of expansion vecs  DIISMaxEq       ....     5
   Bias factor          DIISBfac        ....   1.050
   Max. coefficient     DIISMaxC        ....  10.000
 Trust-Rad. Augm. Hess. CNVTRAH         .... auto
   Auto Start mean grad. ratio tolernc. ....  1.125000
   Auto Start start iteration           ....     1
   Auto Start num. interpolation iter.  ....    10
   Max. Number of Micro iterations      ....    16
   Max. Number of Macro iterations      .... Maxiter - #DIIS iter
   Number of Davidson start vectors     ....     2
   Converg. threshold I  (grad. norm)   ....   5.000e-05
   Converg. threshold II (energy diff.) ....   1.000e-06
   Grad. Scal. Fac. for Micro threshold ....   0.100
   Minimum threshold for Micro iter.    ....   0.010
   NR start threshold (gradient norm)   ....   0.001
   Initial trust radius                 ....   0.400
   Minimum AH scaling param. (alpha)    ....   1.000
   Maximum AH scaling param. (alpha)    .... 1000.000
   Orbital update algorithm             .... Taylor
   White noise on init. David. guess    .... on
   Maximum white noise                  ....   0.010
   Quad. conv. algorithm                .... NR
 SOSCF                  CNVSOSCF        .... off
 Level Shifting         CNVShift        .... on
   Level shift para.    LevelShift      ....    0.2500
   Turn off err/grad.   ShiftErr        ....    0.0010
 Zerner damping         CNVZerner       .... off
 Static damping         CNVDamp         .... on
   Fraction old density DampFac         ....    0.7000
   Max. Damping (<1)    DampMax         ....    0.9800
   Min. Damping (>=0)   DampMin         ....    0.0000
   Turn off err/grad.   DampErr         ....    0.1000
 Fernandez-Rico         CNVRico         .... off

SCF Procedure:
 Maximum # iterations   MaxIter         ....   125
 SCF integral mode      SCFMode         .... Direct
   Integral package                     .... SHARK and LIBINT hybrid scheme
 Reset frequency        DirectResetFreq ....    20
 Integral Threshold     Thresh          ....  1.000e-10 Eh
 Primitive CutOff       TCut            ....  1.000e-11 Eh

Convergence Tolerance:
 Convergence Check Mode ConvCheckMode   .... Total+1el-Energy
 Convergence forced     ConvForced      .... 0
 Energy Change          TolE            ....  1.000e-06 Eh
 1-El. energy change                    ....  1.000e-03 Eh
 DIIS Error             TolErr          ....  1.000e-06


Diagonalization of the overlap matrix:
Smallest eigenvalue                        ... 1.350e-04
Time for diagonalization                   ...    0.055 sec
Threshold for overlap eigenvalues          ... 1.000e-08
Number of eigenvalues below threshold      ... 0
Time for construction of square roots      ...    0.055 sec
Total time needed                          ...    0.111 sec

---------------------
INITIAL GUESS: MOREAD
---------------------
Guess MOs are being read from file: EPRII.ges
Input Geometry matches current geometry (good)
Input basis set matches current basis set (good)
MOs were renormalized
MOs were reorthogonalized (Cholesky)
                      ------------------
                      INITIAL GUESS DONE (   0.4 sec)
                      ------------------
-------------------
DFT GRID GENERATION
-------------------

General Integration Accuracy     IntAcc      ... 4.388
Radial Grid Type                 RadialGrid  ... OptM3 with GC (2021)
Angular Grid (max. ang.)         AngularGrid ... 4 (Lebedev-302)
Angular grid pruning method      GridPruning ... 4 (adaptive)
Weight generation scheme         WeightScheme... Becke
Basis function cutoff            BFCut       ... 1.0000e-10
Integration weight cutoff        WCut        ... 1.0000e-14
Angular grids for H and He will be reduced by one unit
Partially contracted basis set               ... off
Rotationally invariant grid construction     ... off

Total number of grid points                  ...   211461
Total number of batches                      ...     3328
Average number of points per batch           ...       63
Average number of grid points per atom       ...     4405
Time for grid setup =    1.208 sec

--------------------
COSX GRID GENERATION
--------------------

GRIDX 1
-------
General Integration Accuracy     IntAcc      ... 3.816
Radial Grid Type                 RadialGrid  ... OptM3 with GC (2021)
Angular Grid (max. ang.)         AngularGrid ... 1 (Lebedev-50)
Angular grid pruning method      GridPruning ... 4 (adaptive)
Weight generation scheme         WeightScheme... Becke
Basis function cutoff            BFCut       ... 1.0000e-10
Integration weight cutoff        WCut        ... 1.0000e-14
Angular grids for H and He will be reduced by one unit
Partially contracted basis set               ... on
Rotationally invariant grid construction     ... off

Total number of grid points                  ...    26948
Total number of batches                      ...      452
Average number of points per batch           ...       59
Average number of grid points per atom       ...      561
UseSFitting                                  ... on

GRIDX 2
-------
General Integration Accuracy     IntAcc      ... 4.020
Radial Grid Type                 RadialGrid  ... OptM3 with GC (2021)
Angular Grid (max. ang.)         AngularGrid ... 2 (Lebedev-110)
Angular grid pruning method      GridPruning ... 4 (adaptive)
Weight generation scheme         WeightScheme... Becke
Basis function cutoff            BFCut       ... 1.0000e-10
Integration weight cutoff        WCut        ... 1.0000e-14
Angular grids for H and He will be reduced by one unit
Partially contracted basis set               ... on
Rotationally invariant grid construction     ... off

Total number of grid points                  ...    56897
Total number of batches                      ...      915
Average number of points per batch           ...       62
Average number of grid points per atom       ...     1185
UseSFitting                                  ... on

GRIDX 3
-------
General Integration Accuracy     IntAcc      ... 4.338
Radial Grid Type                 RadialGrid  ... OptM3 with GC (2021)
Angular Grid (max. ang.)         AngularGrid ... 3 (Lebedev-194)
Angular grid pruning method      GridPruning ... 4 (adaptive)
Weight generation scheme         WeightScheme... Becke
Basis function cutoff            BFCut       ... 1.0000e-10
Integration weight cutoff        WCut        ... 1.0000e-14
Angular grids for H and He will be reduced by one unit
Partially contracted basis set               ... on
Rotationally invariant grid construction     ... off

Total number of grid points                  ...   124299
Total number of batches                      ...     1965
Average number of points per batch           ...       63
Average number of grid points per atom       ...     2590
UseSFitting                                  ... on

Time for X-Grid setup             =    2.297 sec

--------------
SCF ITERATIONS
--------------
ITER       Energy         Delta-E        Max-DP      RMS-DP      [F,P]     Damp
               ***  Starting incremental Fock matrix formation  ***
  0   -815.8756274219   0.000000000000 0.00009592  0.00000067  0.0000069 0.7000
                 **** Energy Check signals convergence ****

               *****************************************************
               *                     SUCCESS                       *
               *           SCF CONVERGED AFTER   1 CYCLES          *
               *****************************************************

Old exchange energy                            =    -23.642369508 Eh
New exchange energy                            =    -23.642281151 Eh
Exchange energy change after final integration =      0.000088357 Eh
Total energy after final integration           =   -815.875538933 Eh
Final COS-X integration done in                =     8.379 sec

----------------
TOTAL SCF ENERGY
----------------

Total Energy       :         -815.87553893 Eh          -22201.10210 eV

Components:
Nuclear Repulsion  :         1441.28460666 Eh           39219.34802 eV
Electronic Energy  :        -2257.16014559 Eh          -61420.45012 eV
One Electron Energy:        -3961.16299855 Eh         -107788.72506 eV
Two Electron Energy:         1704.00285296 Eh           46368.27495 eV
Max COSX asymmetry :            0.00000326 Eh               0.00009 eV

Virial components:
Potential Energy   :        -1625.20467388 Eh          -44224.06748 eV
Kinetic Energy     :          809.32913494 Eh           22022.96539 eV
Virial Ratio       :            2.00808868


DFT components:
N(Alpha)           :       77.000149875826 electrons
N(Beta)            :       76.000160668671 electrons
N(Total)           :      153.000310544497 electrons
E(X)               :      -93.740121167616 Eh       
E(C)               :       -5.898496873158 Eh       
E(XC)              :      -99.638618040775 Eh       
DFET-embed. en.    :        0.000000000000 Eh       

---------------
SCF CONVERGENCE
---------------

  Last Energy change         ...    1.3146e-07  Tolerance :   1.0000e-06
  Last MAX-Density change    ...    2.8021e-05  Tolerance :   1.0000e-05
  Last RMS-Density change    ...    1.9490e-07  Tolerance :   1.0000e-06
  Last DIIS Error            ...    4.5274e-06  Tolerance :   1.0000e-06

             **** THE GBW FILE WAS UPDATED (EPRII.gbw) ****
             **** DENSITY EPRII.scfp WAS UPDATED ****
             **** ENERGY FILE WAS UPDATED (EPRII.en.tmp) ****
----------------------
UHF SPIN CONTAMINATION
----------------------

Warning: in a DFT calculation there is little theoretical justification to 
         calculate <S**2> as in Hartree-Fock theory. We will do it anyways
         but you should keep in mind that the values have only limited relevance

Expectation value of <S**2>     :     0.753829
Ideal value S*(S+1) for S=0.5   :     0.750000
Deviation                       :     0.003829

             **** THE GBW FILE WAS UPDATED (EPRII.gbw) ****
             **** DENSITY EPRII.scfp WAS UPDATED ****
----------------
ORBITAL ENERGIES
----------------
                 SPIN UP ORBITALS
  NO   OCC          E(Eh)            E(eV) 
   0   1.0000     -10.223300      -278.1901 
   1   1.0000     -10.223282      -278.1897 
   2   1.0000     -10.211542      -277.8702 
   3   1.0000     -10.211523      -277.8697 
   4   1.0000     -10.206303      -277.7276 
   5   1.0000     -10.206294      -277.7274 
   6   1.0000     -10.199891      -277.5532 
   7   1.0000     -10.199871      -277.5526 
   8   1.0000     -10.198103      -277.5045 
   9   1.0000     -10.198098      -277.5044 
  10   1.0000     -10.188911      -277.2544 
  11   1.0000     -10.188591      -277.2456 
  12   1.0000     -10.188304      -277.2378 
  13   1.0000     -10.185868      -277.1716 
  14   1.0000     -10.183476      -277.1065 
  15   1.0000     -10.182884      -277.0904 
  16   1.0000     -10.182493      -277.0797 
  17   1.0000     -10.182419      -277.0777 
  18   1.0000     -10.181077      -277.0412 
  19   1.0000     -10.180218      -277.0178 
  20   1.0000     -10.173291      -276.8293 
  21   1.0000      -0.874863       -23.8062 
  22   1.0000      -0.818424       -22.2704 
  23   1.0000      -0.804694       -21.8968 
  24   1.0000      -0.794946       -21.6316 
  25   1.0000      -0.784130       -21.3373 
  26   1.0000      -0.761688       -20.7266 
  27   1.0000      -0.753896       -20.5146 
  28   1.0000      -0.732095       -19.9213 
  29   1.0000      -0.722158       -19.6509 
  30   1.0000      -0.705301       -19.1922 
  31   1.0000      -0.669688       -18.2231 
  32   1.0000      -0.642377       -17.4800 
  33   1.0000      -0.636398       -17.3173 
  34   1.0000      -0.610381       -16.6093 
  35   1.0000      -0.589384       -16.0380 
  36   1.0000      -0.577131       -15.7045 
  37   1.0000      -0.570728       -15.5303 
  38   1.0000      -0.563106       -15.3229 
  39   1.0000      -0.543697       -14.7947 
  40   1.0000      -0.526669       -14.3314 
  41   1.0000      -0.499836       -13.6012 
  42   1.0000      -0.485544       -13.2123 
  43   1.0000      -0.480835       -13.0842 
  44   1.0000      -0.475858       -12.9488 
  45   1.0000      -0.470277       -12.7969 
  46   1.0000      -0.460302       -12.5254 
  47   1.0000      -0.430842       -11.7238 
  48   1.0000      -0.428362       -11.6563 
  49   1.0000      -0.426711       -11.6114 
  50   1.0000      -0.420130       -11.4323 
  51   1.0000      -0.419767       -11.4224 
  52   1.0000      -0.412299       -11.2192 
  53   1.0000      -0.401857       -10.9351 
  54   1.0000      -0.392157       -10.6711 
  55   1.0000      -0.388844       -10.5810 
  56   1.0000      -0.373890       -10.1741 
  57   1.0000      -0.373155       -10.1541 
  58   1.0000      -0.363073        -9.8797 
  59   1.0000      -0.359327        -9.7778 
  60   1.0000      -0.354009        -9.6331 
  61   1.0000      -0.342304        -9.3146 
  62   1.0000      -0.341448        -9.2913 
  63   1.0000      -0.330200        -8.9852 
  64   1.0000      -0.329452        -8.9649 
  65   1.0000      -0.326425        -8.8825 
  66   1.0000      -0.323235        -8.7957 
  67   1.0000      -0.323176        -8.7941 
  68   1.0000      -0.320265        -8.7149 
  69   1.0000      -0.318420        -8.6646 
  70   1.0000      -0.316399        -8.6096 
  71   1.0000      -0.281118        -7.6496 
  72   1.0000      -0.278178        -7.5696 
  73   1.0000      -0.276976        -7.5369 
  74   1.0000      -0.246819        -6.7163 
  75   1.0000      -0.220900        -6.0110 
  76   1.0000      -0.198988        -5.4148 
  77   0.0000      -0.053619        -1.4590 
  78   0.0000      -0.005586        -0.1520 
  79   0.0000       0.018597         0.5061 
  80   0.0000       0.021250         0.5782 
  81   0.0000       0.023923         0.6510 
  82   0.0000       0.029328         0.7980 
  83   0.0000       0.032283         0.8785 
  84   0.0000       0.037226         1.0130 
  85   0.0000       0.038620         1.0509 
  86   0.0000       0.042101         1.1456 
  87   0.0000       0.043320         1.1788 
  88   0.0000       0.044079         1.1994 
  89   0.0000       0.045208         1.2302 
  90   0.0000       0.051824         1.4102 
  91   0.0000       0.058910         1.6030 
  92   0.0000       0.071541         1.9467 
  93   0.0000       0.081586         2.2201 
  94   0.0000       0.089494         2.4353 
  95   0.0000       0.095883         2.6091 
  96   0.0000       0.105284         2.8649 
  97   0.0000       0.107913         2.9365 
  98   0.0000       0.116022         3.1571 
  99   0.0000       0.126117         3.4318 
 100   0.0000       0.147568         4.0155 
 101   0.0000       0.151652         4.1267 
 102   0.0000       0.153395         4.1741 
 103   0.0000       0.155630         4.2349 
 104   0.0000       0.159262         4.3337 
 105   0.0000       0.165268         4.4972 
 106   0.0000       0.166960         4.5432 
 107   0.0000       0.176995         4.8163 
 108   0.0000       0.182573         4.9681 
 109   0.0000       0.186027         5.0620 
 110   0.0000       0.191640         5.2148 
 111   0.0000       0.192955         5.2506 
 112   0.0000       0.193224         5.2579 
 113   0.0000       0.198266         5.3951 
 114   0.0000       0.200267         5.4495 
 115   0.0000       0.206045         5.6068 
 116   0.0000       0.213448         5.8082 
 117   0.0000       0.214697         5.8422 
 118   0.0000       0.215784         5.8718 
 119   0.0000       0.220388         5.9971 
 120   0.0000       0.222196         6.0463 
 121   0.0000       0.225492         6.1360 
 122   0.0000       0.231662         6.3038 
 123   0.0000       0.237668         6.4673 
 124   0.0000       0.247915         6.7461 
 125   0.0000       0.248838         6.7712 
 126   0.0000       0.250947         6.8286 
 127   0.0000       0.253121         6.8878 
 128   0.0000       0.256845         6.9891 
 129   0.0000       0.261557         7.1173 
 130   0.0000       0.264092         7.1863 
 131   0.0000       0.271700         7.3933 
 132   0.0000       0.277734         7.5575 
 133   0.0000       0.279358         7.6017 
 134   0.0000       0.279429         7.6036 
 135   0.0000       0.285301         7.7634 
 136   0.0000       0.290228         7.8975 
 137   0.0000       0.291593         7.9347 
 138   0.0000       0.295004         8.0275 
 139   0.0000       0.299029         8.1370 
 140   0.0000       0.301063         8.1924 
 141   0.0000       0.307224         8.3600 
 142   0.0000       0.308799         8.4028 
 143   0.0000       0.310715         8.4550 
 144   0.0000       0.314864         8.5679 
 145   0.0000       0.317511         8.6399 
 146   0.0000       0.319545         8.6953 
 147   0.0000       0.320982         8.7344 
 148   0.0000       0.325615         8.8604 
 149   0.0000       0.328647         8.9430 
 150   0.0000       0.332174         9.0389 
 151   0.0000       0.341305         9.2874 
 152   0.0000       0.346667         9.4333 
 153   0.0000       0.350364         9.5339 
 154   0.0000       0.353297         9.6137 
 155   0.0000       0.359809         9.7909 
 156   0.0000       0.363873         9.9015 
 157   0.0000       0.367433         9.9984 
 158   0.0000       0.370266        10.0754 
 159   0.0000       0.376174        10.2362 
 160   0.0000       0.376647        10.2491 
 161   0.0000       0.385726        10.4961 
 162   0.0000       0.394883        10.7453 
 163   0.0000       0.401937        10.9373 
 164   0.0000       0.404044        10.9946 
 165   0.0000       0.405392        11.0313 
 166   0.0000       0.409746        11.1497 
 167   0.0000       0.417651        11.3649 
 168   0.0000       0.418013        11.3747 
 169   0.0000       0.425854        11.5881 
 170   0.0000       0.429168        11.6783 
 171   0.0000       0.429456        11.6861 
 172   0.0000       0.441763        12.0210 
 173   0.0000       0.443834        12.0773 
 174   0.0000       0.452001        12.2996 
 175   0.0000       0.456803        12.4302 
 176   0.0000       0.460449        12.5295 
 177   0.0000       0.463354        12.6085 
 178   0.0000       0.471169        12.8212 
 179   0.0000       0.474305        12.9065 
 180   0.0000       0.475914        12.9503 
 181   0.0000       0.482748        13.1362 
 182   0.0000       0.500403        13.6167 
 183   0.0000       0.504337        13.7237 
 184   0.0000       0.509176        13.8554 
 185   0.0000       0.513783        13.9807 
 186   0.0000       0.517413        14.0795 
 187   0.0000       0.519763        14.1435 
 188   0.0000       0.536590        14.6014 
 189   0.0000       0.537980        14.6392 
 190   0.0000       0.540397        14.7050 
 191   0.0000       0.542685        14.7672 
 192   0.0000       0.550254        14.9732 
 193   0.0000       0.552616        15.0374 
 194   0.0000       0.568879        15.4800 
 195   0.0000       0.581530        15.8242 
 196   0.0000       0.582789        15.8585 
 197   0.0000       0.583470        15.8770 
 198   0.0000       0.588312        16.0088 
 199   0.0000       0.595862        16.2142 
 200   0.0000       0.605912        16.4877 
 201   0.0000       0.610903        16.6235 
 202   0.0000       0.618931        16.8420 
 203   0.0000       0.636809        17.3285 
 204   0.0000       0.654463        17.8088 
 205   0.0000       0.660722        17.9791 
 206   0.0000       0.673679        18.3317 
 207   0.0000       0.683640        18.6028 
 208   0.0000       0.711469        19.3601 
 209   0.0000       0.725749        19.7486 
 210   0.0000       0.742841        20.2137 
 211   0.0000       0.771952        21.0059 
 212   0.0000       0.774805        21.0835 
 213   0.0000       0.796013        21.6606 
 214   0.0000       0.800209        21.7748 
 215   0.0000       0.810959        22.0673 
 216   0.0000       0.830095        22.5880 
 217   0.0000       0.836311        22.7572 
 218   0.0000       0.845525        23.0079 
 219   0.0000       0.845961        23.0198 
 220   0.0000       0.851734        23.1769 
 221   0.0000       0.861838        23.4518 
 222   0.0000       0.862803        23.4781 
 223   0.0000       0.866351        23.5746 
 224   0.0000       0.879071        23.9207 
 225   0.0000       0.882037        24.0014 
 226   0.0000       0.888490        24.1770 
 227   0.0000       0.900720        24.5098 
 228   0.0000       0.900797        24.5119 
 229   0.0000       0.908215        24.7138 
 230   0.0000       0.918170        24.9847 
 231   0.0000       0.920644        25.0520 
 232   0.0000       0.921787        25.0831 
 233   0.0000       0.924536        25.1579 
 234   0.0000       0.925003        25.1706 
 235   0.0000       0.927629        25.2421 
 236   0.0000       0.937973        25.5235 
 237   0.0000       0.944850        25.7107 
 238   0.0000       0.945126        25.7182 
 239   0.0000       0.966188        26.2913 
 240   0.0000       0.967939        26.3390 
 241   0.0000       0.971622        26.4392 
 242   0.0000       0.972944        26.4752 
 243   0.0000       0.979657        26.6578 
 244   0.0000       0.987033        26.8585 
 245   0.0000       0.990826        26.9618 
 246   0.0000       0.991366        26.9765 
 247   0.0000       0.996975        27.1291 
 248   0.0000       1.000949        27.2372 
 249   0.0000       1.012081        27.5401 
 250   0.0000       1.014164        27.5968 
 251   0.0000       1.029945        28.0262 
 252   0.0000       1.031201        28.0604 
 253   0.0000       1.032660        28.1001 
 254   0.0000       1.033567        28.1248 
 255   0.0000       1.039323        28.2814 
 256   0.0000       1.045601        28.4522 
 257   0.0000       1.049616        28.5615 
 258   0.0000       1.059047        28.8181 
 259   0.0000       1.068565        29.0771 
 260   0.0000       1.080996        29.4154 
 261   0.0000       1.092880        29.7388 
 262   0.0000       1.104524        30.0556 
 263   0.0000       1.105722        30.0882 
 264   0.0000       1.107309        30.1314 
 265   0.0000       1.113965        30.3125 
 266   0.0000       1.132196        30.8086 
 267   0.0000       1.141505        31.0619 
 268   0.0000       1.151881        31.3443 
 269   0.0000       1.152542        31.3623 
 270   0.0000       1.157271        31.4909 
 271   0.0000       1.160680        31.5837 
 272   0.0000       1.176454        32.0129 
 273   0.0000       1.186060        32.2743 
 274   0.0000       1.190287        32.3894 
 275   0.0000       1.190534        32.3961 
 276   0.0000       1.201866        32.7044 
 277   0.0000       1.205974        32.8162 
 278   0.0000       1.210417        32.9371 
 279   0.0000       1.212956        33.0062 
 280   0.0000       1.223871        33.3032 
 281   0.0000       1.233087        33.5540 
 282   0.0000       1.236565        33.6486 
 283   0.0000       1.244574        33.8666 
 284   0.0000       1.245992        33.9052 
 285   0.0000       1.256218        34.1834 
 286   0.0000       1.267838        34.4996 
 287   0.0000       1.278605        34.7926 
 288   0.0000       1.294007        35.2117 
 289   0.0000       1.295822        35.2611 
 290   0.0000       1.304947        35.5094 
 291   0.0000       1.308789        35.6140 
 292   0.0000       1.314215        35.7616 
 293   0.0000       1.342945        36.5434 
 294   0.0000       1.350882        36.7594 
 295   0.0000       1.355851        36.8946 
 296   0.0000       1.368878        37.2491 
 297   0.0000       1.378011        37.4976 
 298   0.0000       1.380594        37.5679 
 299   0.0000       1.385329        37.6967 
 300   0.0000       1.391984        37.8778 
 301   0.0000       1.395981        37.9866 
 302   0.0000       1.402254        38.1573 
 303   0.0000       1.410482        38.3812 
 304   0.0000       1.414192        38.4821 
 305   0.0000       1.427249        38.8374 
 306   0.0000       1.439310        39.1656 
 307   0.0000       1.445118        39.3237 
 308   0.0000       1.448817        39.4243 
 309   0.0000       1.453534        39.5527 
 310   0.0000       1.466060        39.8935 
 311   0.0000       1.489138        40.5215 
 312   0.0000       1.498652        40.7804 
 313   0.0000       1.503206        40.9043 
 314   0.0000       1.505405        40.9641 
 315   0.0000       1.518244        41.3135 
 316   0.0000       1.525250        41.5042 
 317   0.0000       1.526412        41.5358 
 318   0.0000       1.529092        41.6087 
 319   0.0000       1.551369        42.2149 
 320   0.0000       1.557792        42.3897 
 321   0.0000       1.560018        42.4502 
 322   0.0000       1.578884        42.9636 
 323   0.0000       1.580133        42.9976 
 324   0.0000       1.583431        43.0873 
 325   0.0000       1.586666        43.1754 
 326   0.0000       1.597005        43.4567 
 327   0.0000       1.598789        43.5053 
 328   0.0000       1.603698        43.6388 
 329   0.0000       1.609443        43.7952 
 330   0.0000       1.611923        43.8627 
 331   0.0000       1.613252        43.8988 
 332   0.0000       1.624945        44.2170 
 333   0.0000       1.627138        44.2767 
 334   0.0000       1.639451        44.6117 
 335   0.0000       1.639754        44.6200 
 336   0.0000       1.653851        45.0036 
 337   0.0000       1.660098        45.1736 
 338   0.0000       1.676726        45.6260 
 339   0.0000       1.680415        45.7264 
 340   0.0000       1.686905        45.9030 
 341   0.0000       1.694434        46.1079 
 342   0.0000       1.700759        46.2800 
 343   0.0000       1.705898        46.4198 
 344   0.0000       1.710438        46.5434 
 345   0.0000       1.721834        46.8535 
 346   0.0000       1.723742        46.9054 
 347   0.0000       1.727733        47.0140 
 348   0.0000       1.735188        47.2169 
 349   0.0000       1.740632        47.3650 
 350   0.0000       1.751783        47.6684 
 351   0.0000       1.755053        47.7574 
 352   0.0000       1.760948        47.9178 
 353   0.0000       1.762601        47.9628 
 354   0.0000       1.774271        48.2804 
 355   0.0000       1.778753        48.4023 
 356   0.0000       1.783318        48.5266 
 357   0.0000       1.791991        48.7625 
 358   0.0000       1.795260        48.8515 
 359   0.0000       1.798738        48.9462 
 360   0.0000       1.806355        49.1534 
 361   0.0000       1.811795        49.3015 
 362   0.0000       1.827874        49.7390 
 363   0.0000       1.828663        49.7605 
 364   0.0000       1.840983        50.0957 
 365   0.0000       1.868180        50.8358 
 366   0.0000       1.872079        50.9419 
 367   0.0000       1.898532        51.6617 
 368   0.0000       1.907879        51.9160 
 369   0.0000       1.914411        52.0938 
 370   0.0000       1.917921        52.1893 
 371   0.0000       1.930537        52.5326 
 372   0.0000       1.933144        52.6035 
 373   0.0000       1.946520        52.9675 
 374   0.0000       1.959862        53.3306 
 375   0.0000       1.969808        53.6012 
 376   0.0000       1.988799        54.1180 
 377   0.0000       1.996634        54.3312 
 378   0.0000       2.006913        54.6109 
 379   0.0000       2.040456        55.5236 
 380   0.0000       2.058625        56.0180 
 381   0.0000       2.065822        56.2139 
 382   0.0000       2.068976        56.2997 
 383   0.0000       2.076140        56.4946 
 384   0.0000       2.098009        57.0897 
 385   0.0000       2.111574        57.4589 
 386   0.0000       2.126624        57.8684 
 387   0.0000       2.146058        58.3972 
 388   0.0000       2.156033        58.6686 
 389   0.0000       2.158044        58.7234 
 390   0.0000       2.163456        58.8706 
 391   0.0000       2.190880        59.6169 
 392   0.0000       2.202870        59.9431 
 393   0.0000       2.211692        60.1832 
 394   0.0000       2.226360        60.5823 
 395   0.0000       2.232962        60.7620 
 396   0.0000       2.240732        60.9734 
 397   0.0000       2.251136        61.2565 
 398   0.0000       2.254222        61.3405 
 399   0.0000       2.262626        61.5692 
 400   0.0000       2.268929        61.7407 
 401   0.0000       2.288157        62.2639 
 402   0.0000       2.299797        62.5807 
 403   0.0000       2.306999        62.7766 
 404   0.0000       2.311233        62.8918 
 405   0.0000       2.312111        62.9158 
 406   0.0000       2.323361        63.2219 
 407   0.0000       2.331719        63.4493 
 408   0.0000       2.332594        63.4731 
 409   0.0000       2.352276        64.0087 
 410   0.0000       2.355754        64.1033 
 411   0.0000       2.368995        64.4636 
 412   0.0000       2.375258        64.6341 
 413   0.0000       2.399448        65.2923 
 414   0.0000       2.411203        65.6122 
 415   0.0000       2.430443        66.1357 
 416   0.0000       2.432182        66.1830 
 417   0.0000       2.437808        66.3361 
 418   0.0000       2.447407        66.5973 
 419   0.0000       2.457656        66.8762 
 420   0.0000       2.458252        66.8924 
 421   0.0000       2.475543        67.3629 
 422   0.0000       2.478874        67.4536 
 423   0.0000       2.487828        67.6972 
 424   0.0000       2.494884        67.8893 
 425   0.0000       2.501972        68.0821 
 426   0.0000       2.515737        68.4567 
 427   0.0000       2.522398        68.6379 
 428   0.0000       2.532806        68.9212 
 429   0.0000       2.534047        68.9549 
 430   0.0000       2.557063        69.5812 
 431   0.0000       2.564563        69.7853 
 432   0.0000       2.570260        69.9403 
 433   0.0000       2.576108        70.0995 
 434   0.0000       2.600419        70.7610 
 435   0.0000       2.609366        71.0045 
 436   0.0000       2.615773        71.1788 
 437   0.0000       2.623369        71.3855 
 438   0.0000       2.630034        71.5669 
 439   0.0000       2.654838        72.2418 
 440   0.0000       2.696607        73.3784 
 441   0.0000       2.713502        73.8381 
 442   0.0000       2.769220        75.3543 
 443   0.0000       2.784990        75.7834 
 444   0.0000       2.816992        76.6543 
 445   0.0000       2.867506        78.0288 
 446   0.0000       2.945817        80.1598 
 447   0.0000       2.962591        80.6162 
 448   0.0000       2.967317        80.7448 
 449   0.0000       3.274143        89.0940 
 450   0.0000       4.985130       135.6523 
 451   0.0000       4.993147       135.8704 
 452   0.0000       5.003837       136.1613 
 453   0.0000       5.009915       136.3267 
 454   0.0000       5.011905       136.3809 
 455   0.0000       5.017143       136.5234 
 456   0.0000       5.022982       136.6823 
 457   0.0000       5.028076       136.8209 
 458   0.0000       5.034822       137.0045 
 459   0.0000       5.047481       137.3489 
 460   0.0000       5.053746       137.5194 
 461   0.0000       5.055714       137.5730 
 462   0.0000       5.072743       138.0364 
 463   0.0000       5.150640       140.1560 
 464   0.0000       5.203113       141.5839 
 465   0.0000       5.221022       142.0712 
 466   0.0000       5.228658       142.2790 
 467   0.0000       5.232623       142.3869 
 468   0.0000       5.256222       143.0291 
 469   0.0000       5.264392       143.2514 
 470   0.0000       5.281687       143.7220 
 471   0.0000       5.302146       144.2787 
 472   0.0000       5.303731       144.3219 
 473   0.0000       5.307923       144.4359 
 474   0.0000       5.331776       145.0850 
 475   0.0000       5.336028       145.2007 
 476   0.0000       5.365439       146.0010 
 477   0.0000       5.381108       146.4274 
 478   0.0000       5.395353       146.8150 
 479   0.0000       5.405447       147.0897 
 480   0.0000       5.443400       148.1224 
 481   0.0000       5.448139       148.2514 
 482   0.0000       5.510574       149.9503 
 483   0.0000       5.559893       151.2924 
 484   0.0000       5.584736       151.9684 
 485   0.0000       5.610256       152.6628 
 486   0.0000       5.626196       153.0966 
 487   0.0000       5.652052       153.8002 
 488   0.0000       5.714624       155.5028 
 489   0.0000       5.729747       155.9143 
 490   0.0000       5.761879       156.7887 
 491   0.0000       5.806766       158.0101 
 492   0.0000       5.828316       158.5966 
 493   0.0000       5.865446       159.6069 
 494   0.0000       5.905165       160.6877 
 495   0.0000       6.021132       163.8433 
 496   0.0000       6.246593       169.9784 
 497   0.0000       6.361288       173.0994 
 498   0.0000      29.619488       805.9873 
 499   0.0000      29.720631       808.7395 
 500   0.0000      29.812917       811.2507 
 501   0.0000      29.846424       812.1625 
 502   0.0000      29.858976       812.5041 
 503   0.0000      29.929994       814.4365 
 504   0.0000      29.981719       815.8440 
 505   0.0000      30.014053       816.7239 
 506   0.0000      30.056733       817.8853 
 507   0.0000      30.095168       818.9312 
 508   0.0000      30.098842       819.0311 
 509   0.0000      30.121833       819.6567 
 510   0.0000      30.154746       820.5523 
 511   0.0000      30.192039       821.5672 
 512   0.0000      30.208052       822.0029 
 513   0.0000      30.250881       823.1683 
 514   0.0000      30.276008       823.8521 
 515   0.0000      30.313969       824.8850 
 516   0.0000      30.341103       825.6234 
 517   0.0000      30.454631       828.7126 
 518   0.0000      30.585775       832.2813 
 519   0.0000      36.613280       996.2980 
 520   0.0000      36.620466       996.4935 
 521   0.0000      36.629877       996.7496 
 522   0.0000      36.631826       996.8027 
 523   0.0000      36.637564       996.9588 
 524   0.0000      36.641809       997.0743 
 525   0.0000      36.647872       997.2393 
 526   0.0000      36.661431       997.6083 
 527   0.0000      36.672638       997.9132 
 528   0.0000      36.679925       998.1115 
 529   0.0000      36.684500       998.2360 
 530   0.0000      36.699371       998.6407 
 531   0.0000      36.781708      1000.8811 
 532   0.0000      36.818882      1001.8927 
 533   0.0000      36.839359      1002.4499 
 534   0.0000      36.855524      1002.8898 
 535   0.0000      36.864947      1003.1462 
 536   0.0000      36.869142      1003.2604 
 537   0.0000      36.873882      1003.3893 
 538   0.0000      36.882622      1003.6272 
 539   0.0000      36.885944      1003.7176 
 540   0.0000      36.921044      1004.6727 
 541   0.0000      36.934113      1005.0283 
 542   0.0000      36.947411      1005.3902 
 543   0.0000      36.961584      1005.7758 
 544   0.0000      36.998777      1006.7879 
 545   0.0000      37.025380      1007.5118 

                 SPIN DOWN ORBITALS
  NO   OCC          E(Eh)            E(eV) 
   0   1.0000     -10.223299      -278.1901 
   1   1.0000     -10.223282      -278.1897 
   2   1.0000     -10.211539      -277.8701 
   3   1.0000     -10.211523      -277.8697 
   4   1.0000     -10.206303      -277.7276 
   5   1.0000     -10.206294      -277.7274 
   6   1.0000     -10.199891      -277.5532 
   7   1.0000     -10.199871      -277.5526 
   8   1.0000     -10.198103      -277.5045 
   9   1.0000     -10.198098      -277.5044 
  10   1.0000     -10.188584      -277.2455 
  11   1.0000     -10.188304      -277.2378 
  12   1.0000     -10.186727      -277.1949 
  13   1.0000     -10.183440      -277.1055 
  14   1.0000     -10.182884      -277.0904 
  15   1.0000     -10.182492      -277.0797 
  16   1.0000     -10.181045      -277.0403 
  17   1.0000     -10.180857      -277.0352 
  18   1.0000     -10.180028      -277.0126 
  19   1.0000     -10.175123      -276.8792 
  20   1.0000     -10.173291      -276.8293 
  21   1.0000      -0.874861       -23.8062 
  22   1.0000      -0.818296       -22.2670 
  23   1.0000      -0.802936       -21.8490 
  24   1.0000      -0.794914       -21.6307 
  25   1.0000      -0.781152       -21.2562 
  26   1.0000      -0.759148       -20.6575 
  27   1.0000      -0.753287       -20.4980 
  28   1.0000      -0.728340       -19.8191 
  29   1.0000      -0.722098       -19.6493 
  30   1.0000      -0.701589       -19.0912 
  31   1.0000      -0.664155       -18.0726 
  32   1.0000      -0.641659       -17.4604 
  33   1.0000      -0.633090       -17.2273 
  34   1.0000      -0.605784       -16.4842 
  35   1.0000      -0.586117       -15.9490 
  36   1.0000      -0.575401       -15.6574 
  37   1.0000      -0.565926       -15.3996 
  38   1.0000      -0.559295       -15.2192 
  39   1.0000      -0.543693       -14.7946 
  40   1.0000      -0.526646       -14.3308 
  41   1.0000      -0.499809       -13.6005 
  42   1.0000      -0.485540       -13.2122 
  43   1.0000      -0.480034       -13.0624 
  44   1.0000      -0.475806       -12.9473 
  45   1.0000      -0.470270       -12.7967 
  46   1.0000      -0.458040       -12.4639 
  47   1.0000      -0.430694       -11.7198 
  48   1.0000      -0.425959       -11.5909 
  49   1.0000      -0.425852       -11.5880 
  50   1.0000      -0.419290       -11.4094 
  51   1.0000      -0.418972       -11.4008 
  52   1.0000      -0.410120       -11.1599 
  53   1.0000      -0.398929       -10.8554 
  54   1.0000      -0.390232       -10.6188 
  55   1.0000      -0.386118       -10.5068 
  56   1.0000      -0.372145       -10.1266 
  57   1.0000      -0.371069       -10.0973 
  58   1.0000      -0.361004        -9.8234 
  59   1.0000      -0.358765        -9.7625 
  60   1.0000      -0.353214        -9.6114 
  61   1.0000      -0.340672        -9.2702 
  62   1.0000      -0.339974        -9.2512 
  63   1.0000      -0.329809        -8.9746 
  64   1.0000      -0.328955        -8.9513 
  65   1.0000      -0.325919        -8.8687 
  66   1.0000      -0.322738        -8.7821 
  67   1.0000      -0.322627        -8.7791 
  68   1.0000      -0.320085        -8.7100 
  69   1.0000      -0.317960        -8.6521 
  70   1.0000      -0.312513        -8.5039 
  71   1.0000      -0.281118        -7.6496 
  72   1.0000      -0.278178        -7.5696 
  73   1.0000      -0.276960        -7.5365 
  74   1.0000      -0.246818        -6.7163 
  75   1.0000      -0.220899        -6.0110 
  76   0.0000      -0.053618        -1.4590 
  77   0.0000      -0.051333        -1.3969 
  78   0.0000      -0.005585        -0.1520 
  79   0.0000       0.018611         0.5064 
  80   0.0000       0.021273         0.5789 
  81   0.0000       0.024085         0.6554 
  82   0.0000       0.029475         0.8020 
  83   0.0000       0.033728         0.9178 
  84   0.0000       0.037321         1.0155 
  85   0.0000       0.039282         1.0689 
  86   0.0000       0.042472         1.1557 
  87   0.0000       0.043320         1.1788 
  88   0.0000       0.044671         1.2156 
  89   0.0000       0.045313         1.2330 
  90   0.0000       0.053277         1.4498 
  91   0.0000       0.059912         1.6303 
  92   0.0000       0.072056         1.9607 
  93   0.0000       0.082456         2.2437 
  94   0.0000       0.089660         2.4398 
  95   0.0000       0.096543         2.6271 
  96   0.0000       0.105285         2.8649 
  97   0.0000       0.107932         2.9370 
  98   0.0000       0.117022         3.1843 
  99   0.0000       0.126398         3.4395 
 100   0.0000       0.147791         4.0216 
 101   0.0000       0.151923         4.1340 
 102   0.0000       0.153463         4.1760 
 103   0.0000       0.155847         4.2408 
 104   0.0000       0.160532         4.3683 
 105   0.0000       0.167447         4.5565 
 106   0.0000       0.170518         4.6400 
 107   0.0000       0.178259         4.8507 
 108   0.0000       0.183075         4.9817 
 109   0.0000       0.186533         5.0758 
 110   0.0000       0.192808         5.2466 
 111   0.0000       0.193625         5.2688 
 112   0.0000       0.194082         5.2812 
 113   0.0000       0.198304         5.3961 
 114   0.0000       0.201061         5.4711 
 115   0.0000       0.206345         5.6149 
 116   0.0000       0.214120         5.8265 
 117   0.0000       0.215088         5.8528 
 118   0.0000       0.215841         5.8733 
 119   0.0000       0.220529         6.0009 
 120   0.0000       0.222758         6.0615 
 121   0.0000       0.225980         6.1492 
 122   0.0000       0.233149         6.3443 
 123   0.0000       0.238866         6.4999 
 124   0.0000       0.248874         6.7722 
 125   0.0000       0.249167         6.7802 
 126   0.0000       0.253272         6.8919 
 127   0.0000       0.256440         6.9781 
 128   0.0000       0.258807         7.0425 
 129   0.0000       0.262322         7.1381 
 130   0.0000       0.267474         7.2783 
 131   0.0000       0.275474         7.4960 
 132   0.0000       0.278263         7.5719 
 133   0.0000       0.280091         7.6217 
 134   0.0000       0.284783         7.7493 
 135   0.0000       0.287131         7.8132 
 136   0.0000       0.290615         7.9080 
 137   0.0000       0.291909         7.9432 
 138   0.0000       0.296408         8.0657 
 139   0.0000       0.299245         8.1429 
 140   0.0000       0.301466         8.2033 
 141   0.0000       0.309079         8.4105 
 142   0.0000       0.309356         8.4180 
 143   0.0000       0.310784         8.4569 
 144   0.0000       0.314974         8.5709 
[...]
  Z           0.8510093           -0.0553895           -0.5222213

Notes:  (1) The A matrix conforms to the "SAI" spin Hamiltonian convention.
        (2) Tensor is right-handed.

 -----------------------------------------------------------
 Nucleus  45H : A:ISTP=    1 I=  0.5 P=533.5514 MHz/au**3
                Q:ISTP=    2 I=  1.0 Q=  0.0029 barn     
 -----------------------------------------------------------
 Solving for nuclear perturbation:
Forming RHS of the CP-SCF equations         ... 
Calc. nucleus orbit integrals (SHARK)       ... done

------------------------------------------------------------------------------
                           ORCA CP-SCF CALCULATION
------------------------------------------------------------------------------

Input orbitals are from        ... EPRII.gbw
Input Perturbation             ... EPRII.pin.tmp
Wavefunction output            ... EPRII.pout.tmp
Perturbation mode              ... Imaginary perturbation
Solver                         ... POPLE
Max. number of iterations      ... 64
Convergence tolerance          ... 1.000e-03
Integral handling              ... Direct
DFT GridXC                     ... 1
COSX GridX                     ... 1
COSX IntAccX                   ... 3.067
COSX Algorithm                 ... Auto
Number of perturbations        ... 3
Number of operators            ... 2
Orbital ranges used for CP-SCF:
 Operator 0:  Orbitals   0... 76  to  77...545
 Operator 1:  Orbitals   0... 75  to  76...545
Variables per perturbation     ... 71833
DFT calculation                         ... on
XC functional terms                     ... off
Hybrid DFT                              ... on
   Exchange mixing (SCF)                ...  0.200
   Exchange mixing (CP-SCF)             ...  0.200
   GGA exch. scaling(SCF)               ...  0.720
   GGA exch. scaling (CP-SCF)           ...  0.720
   GGA corr. scaling (SCF)              ...  0.810
   GGA corr. scaling (CP-SCF)           ...  0.810

CP-SCF GRID
-----------

General Integration Accuracy     IntAcc      ... 3.467
Radial Grid Type                 RadialGrid  ... OptM3 with GC (2021)
Angular Grid (max. ang.)         AngularGrid ... 1 (Lebedev-50)
Angular grid pruning method      GridPruning ... 4 (adaptive)
Weight generation scheme         WeightScheme... Becke
Basis function cutoff            BFCut       ... 1.0000e-10
Integration weight cutoff        WCut        ... 1.0000e-14
Angular grids for H and He will be reduced by one unit
Partially contracted basis set               ... off
Rotationally invariant grid construction     ... off

Total number of grid points                  ...    29724
Total number of batches                      ...      486
Average number of points per batch           ...       61
Average number of grid points per atom       ...      619

CP-SCF GRIDX
------------

General Integration Accuracy     IntAcc      ... 3.067
Radial Grid Type                 RadialGrid  ... OptM3 with GC (2021)
Angular Grid (max. ang.)         AngularGrid ... 1 (Lebedev-50)
Angular grid pruning method      GridPruning ... 4 (adaptive)
Weight generation scheme         WeightScheme... Becke
Basis function cutoff            BFCut       ... 1.0000e-10
Integration weight cutoff        WCut        ... 1.0000e-14
Angular grids for H and He will be reduced by one unit
Partially contracted basis set               ... on
Rotationally invariant grid construction     ... off

Total number of grid points                  ...    14089
Total number of batches                      ...      249
Average number of points per batch           ...       56
Average number of grid points per atom       ...      294

Memory available               ... 864.1 MB
Memory needed per perturbation ...  17.4 MB
Perturbations treated per batch... 3
Number of batches              ... 1
     CP-SCF ITERATION   0:   1.0125e-01 (   1.9 sec   0/  3 done)
     CP-SCF ITERATION   1:   1.6997e-03 (   1.9 sec   2/  3 done)
     CP-SCF ITERATION   2:   8.6312e-05 (   1.3 sec   3/  3 done)
                    *** THE CP-SCF HAS CONVERGED ***

Forming final perturbed densities           ... done
Transforming perturbed density to AO basis  ... done

 Raw HFC matrix (all values in MHz): 
 -----------------------------------
                 0.0005               0.0649               0.0012
                 0.0649               0.0459               0.0018
                 0.0012               0.0018              -0.0464

 A(FC)          -0.0000              -0.0000              -0.0000
 A(SD)          -0.0455              -0.0464               0.0919
 A(ORB+DIA)      0.0000               0.0000               0.0000    A(PC) =   0.0000
 A(ORB)         -0.0000              -0.0000               0.0000    A(PC) =  -0.0000
 A(DIA)          0.0000               0.0000               0.0000    A(PC) =   0.0000
             ----------           ----------           ----------
 A(Tot)         -0.0455              -0.0464               0.0920    A(iso)=    0.0000
 Orientation: 
  X           0.8155117            0.0071354            0.5786966
  Y          -0.5787360            0.0140708            0.8153936
  Z          -0.0023246           -0.9998755            0.0156044

Notes:  (1) The A matrix conforms to the "SAI" spin Hamiltonian convention.
        (2) Tensor is right-handed.

 -----------------------------------------------------------
 Nucleus  46H : A:ISTP=    1 I=  0.5 P=533.5514 MHz/au**3
                Q:ISTP=    2 I=  1.0 Q=  0.0029 barn     
 -----------------------------------------------------------
 Solving for nuclear perturbation:
Forming RHS of the CP-SCF equations         ... 
Calc. nucleus orbit integrals (SHARK)       ... done

------------------------------------------------------------------------------
                           ORCA CP-SCF CALCULATION
------------------------------------------------------------------------------

Input orbitals are from        ... EPRII.gbw
Input Perturbation             ... EPRII.pin.tmp
Wavefunction output            ... EPRII.pout.tmp
Perturbation mode              ... Imaginary perturbation
Solver                         ... POPLE
Max. number of iterations      ... 64
Convergence tolerance          ... 1.000e-03
Integral handling              ... Direct
DFT GridXC                     ... 1
COSX GridX                     ... 1
COSX IntAccX                   ... 3.067
COSX Algorithm                 ... Auto
Number of perturbations        ... 3
Number of operators            ... 2
Orbital ranges used for CP-SCF:
 Operator 0:  Orbitals   0... 76  to  77...545
 Operator 1:  Orbitals   0... 75  to  76...545
Variables per perturbation     ... 71833
DFT calculation                         ... on
XC functional terms                     ... off
Hybrid DFT                              ... on
   Exchange mixing (SCF)                ...  0.200
   Exchange mixing (CP-SCF)             ...  0.200
   GGA exch. scaling(SCF)               ...  0.720
   GGA exch. scaling (CP-SCF)           ...  0.720
   GGA corr. scaling (SCF)              ...  0.810
   GGA corr. scaling (CP-SCF)           ...  0.810

CP-SCF GRID
-----------

General Integration Accuracy     IntAcc      ... 3.467
Radial Grid Type                 RadialGrid  ... OptM3 with GC (2021)
Angular Grid (max. ang.)         AngularGrid ... 1 (Lebedev-50)
Angular grid pruning method      GridPruning ... 4 (adaptive)
Weight generation scheme         WeightScheme... Becke
Basis function cutoff            BFCut       ... 1.0000e-10
Integration weight cutoff        WCut        ... 1.0000e-14
Angular grids for H and He will be reduced by one unit
Partially contracted basis set               ... off
Rotationally invariant grid construction     ... off

Total number of grid points                  ...    29724
Total number of batches                      ...      486
Average number of points per batch           ...       61
Average number of grid points per atom       ...      619

CP-SCF GRIDX
------------

General Integration Accuracy     IntAcc      ... 3.067
Radial Grid Type                 RadialGrid  ... OptM3 with GC (2021)
Angular Grid (max. ang.)         AngularGrid ... 1 (Lebedev-50)
Angular grid pruning method      GridPruning ... 4 (adaptive)
Weight generation scheme         WeightScheme... Becke
Basis function cutoff            BFCut       ... 1.0000e-10
Integration weight cutoff        WCut        ... 1.0000e-14
Angular grids for H and He will be reduced by one unit
Partially contracted basis set               ... on
Rotationally invariant grid construction     ... off

Total number of grid points                  ...    14089
Total number of batches                      ...      249
Average number of points per batch           ...       56
Average number of grid points per atom       ...      294

Memory available               ... 863.5 MB
Memory needed per perturbation ...  17.4 MB
Perturbations treated per batch... 3
Number of batches              ... 1
     CP-SCF ITERATION   0:   1.0125e-01 (   2.0 sec   0/  3 done)
     CP-SCF ITERATION   1:   1.7033e-03 (   1.9 sec   2/  3 done)
     CP-SCF ITERATION   2:   8.6375e-05 (   1.3 sec   3/  3 done)
                    *** THE CP-SCF HAS CONVERGED ***

Forming final perturbed densities           ... done
Transforming perturbed density to AO basis  ... done

 Raw HFC matrix (all values in MHz): 
 -----------------------------------
                -0.0439              -0.0586              -0.0009
                -0.0587               0.1098               0.0026
                -0.0009               0.0026              -0.0652

 A(FC)           0.0002               0.0002               0.0002
 A(SD)          -0.0640              -0.0654               0.1294
 A(ORB+DIA)      0.0000               0.0000               0.0000    A(PC) =   0.0000
 A(ORB)         -0.0000              -0.0000               0.0000    A(PC) =  -0.0000
 A(DIA)          0.0000               0.0000               0.0000    A(PC) =   0.0000
             ----------           ----------           ----------
 A(Tot)         -0.0637              -0.0652               0.1297    A(iso)=    0.0003
 Orientation: 
  X           0.9473302            0.0041195           -0.3202320
  Y           0.3201279            0.0163776            0.9472328
  Z           0.0091467           -0.9998574            0.0141962

Notes:  (1) The A matrix conforms to the "SAI" spin Hamiltonian convention.
        (2) Tensor is right-handed.

 -----------------------------------------------------------
 Nucleus  47H : A:ISTP=    1 I=  0.5 P=533.5514 MHz/au**3
                Q:ISTP=    2 I=  1.0 Q=  0.0029 barn     
 -----------------------------------------------------------
 Solving for nuclear perturbation:
Forming RHS of the CP-SCF equations         ... 
Calc. nucleus orbit integrals (SHARK)       ... done

------------------------------------------------------------------------------
                           ORCA CP-SCF CALCULATION
------------------------------------------------------------------------------

Input orbitals are from        ... EPRII.gbw
Input Perturbation             ... EPRII.pin.tmp
Wavefunction output            ... EPRII.pout.tmp
Perturbation mode              ... Imaginary perturbation
Solver                         ... POPLE
Max. number of iterations      ... 64
Convergence tolerance          ... 1.000e-03
Integral handling              ... Direct
DFT GridXC                     ... 1
COSX GridX                     ... 1
COSX IntAccX                   ... 3.067
COSX Algorithm                 ... Auto
Number of perturbations        ... 3
Number of operators            ... 2
Orbital ranges used for CP-SCF:
 Operator 0:  Orbitals   0... 76  to  77...545
 Operator 1:  Orbitals   0... 75  to  76...545
Variables per perturbation     ... 71833
DFT calculation                         ... on
XC functional terms                     ... off
Hybrid DFT                              ... on
   Exchange mixing (SCF)                ...  0.200
   Exchange mixing (CP-SCF)             ...  0.200
   GGA exch. scaling(SCF)               ...  0.720
   GGA exch. scaling (CP-SCF)           ...  0.720
   GGA corr. scaling (SCF)              ...  0.810
   GGA corr. scaling (CP-SCF)           ...  0.810

CP-SCF GRID
-----------

General Integration Accuracy     IntAcc      ... 3.467
Radial Grid Type                 RadialGrid  ... OptM3 with GC (2021)
Angular Grid (max. ang.)         AngularGrid ... 1 (Lebedev-50)
Angular grid pruning method      GridPruning ... 4 (adaptive)
Weight generation scheme         WeightScheme... Becke
Basis function cutoff            BFCut       ... 1.0000e-10
Integration weight cutoff        WCut        ... 1.0000e-14
Angular grids for H and He will be reduced by one unit
Partially contracted basis set               ... off
Rotationally invariant grid construction     ... off

Total number of grid points                  ...    29724
Total number of batches                      ...      486
Average number of points per batch           ...       61
Average number of grid points per atom       ...      619

CP-SCF GRIDX
------------

General Integration Accuracy     IntAcc      ... 3.067
Radial Grid Type                 RadialGrid  ... OptM3 with GC (2021)
Angular Grid (max. ang.)         AngularGrid ... 1 (Lebedev-50)
Angular grid pruning method      GridPruning ... 4 (adaptive)
Weight generation scheme         WeightScheme... Becke
Basis function cutoff            BFCut       ... 1.0000e-10
Integration weight cutoff        WCut        ... 1.0000e-14
Angular grids for H and He will be reduced by one unit
Partially contracted basis set               ... on
Rotationally invariant grid construction     ... off

Total number of grid points                  ...    14089
Total number of batches                      ...      249
Average number of points per batch           ...       56
Average number of grid points per atom       ...      294

Memory available               ... 862.8 MB
Memory needed per perturbation ...  17.4 MB
Perturbations treated per batch... 3
Number of batches              ... 1
     CP-SCF ITERATION   0:   3.7080e-02 (   1.8 sec   0/  3 done)
     CP-SCF ITERATION   1:   6.1899e-04 (   1.9 sec   3/  3 done)
                    *** THE CP-SCF HAS CONVERGED ***

Forming final perturbed densities           ... done
Transforming perturbed density to AO basis  ... done

 Raw HFC matrix (all values in MHz): 
 -----------------------------------
                -0.0130               0.0081               0.0002
                 0.0081               0.0276               0.0008
                 0.0002               0.0008              -0.0146

 A(FC)           0.0000               0.0000               0.0000
 A(SD)          -0.0146              -0.0146               0.0292
 A(ORB+DIA)      0.0000               0.0000               0.0000    A(PC) =   0.0000
 A(ORB)         -0.0000              -0.0000               0.0000    A(PC) =  -0.0000
 A(DIA)          0.0000               0.0000               0.0000    A(PC) =   0.0000
             ----------           ----------           ----------
 A(Tot)         -0.0146              -0.0146               0.0292    A(iso)=    0.0000
 Orientation: 
  X           0.9820513            0.0106524            0.1883127
  Y          -0.1884730            0.0168629            0.9819336
  Z           0.0072845           -0.9998011            0.0185679

Notes:  (1) The A matrix conforms to the "SAI" spin Hamiltonian convention.
        (2) Tensor is right-handed.


--------------------------------------------------------------------------------
----------------------------------------------------------------------------
                           ORCA EULER ANGLE PROGRAM
----------------------------------------------------------------------------

Only g-tensor available        -->  using g-tensor as reference tensor

Reference tensor               ...  g

g-tensor ordering              ...  |g_min> --> |gx>
                                    |g_mid> --> |gy>
                                    |g_max> --> |gz>

A- and EFG-tensor ordering     ...  the axes |Ax>, |Qx>, |Ay>, etc. are assigned
                                    such that the Euler rotation is minimal. You
                                    can find the respective eigenvalues as Ax,
                                    EFGx, Ay, etc. in the tables below.
                                    The relation of |Ax>, |Ay>,  etc. to Amin, Amid, etc.
                                    (as printed in the ORCA EPR/NMR CALCULATION Output)
                                    is obtained in the detailed printout.

Euler rotation around          ...  z - y - z
   First rotation              -->  by alpha around z
   Second rotation             -->  by beta around y'
   Third rotation              -->  by gamma around z''
   Positive / Negative angle   -->  clockwise / counterclockwise rotation

Plot EFG-tensors                    (-)
Plot HFC-tensors                    (-)
Detailed Printout                   (-)

-------------------------------------------------------------------------
          Euler rotation of hyperfine tensor to g-tensor
-------------------------------------------------------------------------

-------------------------------------------------------------------
 Atom  |   Alpha    Beta    Gamma   |   Ax       Ay       Az 
       |          [degrees]         |           [MHz]         
-------------------------------------------------------------------
  9H      119.6      0.1   -155.6       0.10    -0.04    -0.04
 10H      154.6      0.4   -121.0      -0.13     0.28    -0.15
 12H      -42.2      5.8     80.5      -0.04     0.07    -0.04
 13H      137.3      5.8    -98.9      -0.04     0.07    -0.04
 15H     -129.9      5.9     88.4       0.06    -0.03    -0.03
 16H       50.4      5.8    -91.9       0.06    -0.03    -0.03
 18H      147.3      6.0   -106.4      -0.02     0.04    -0.02
 19H      -32.9      6.1     73.8      -0.02     0.04    -0.02
 21H       22.6      3.3    -63.2       0.03    -0.02    -0.02
 22H     -158.6      3.4    118.0       0.03    -0.02    -0.02
 24H      -74.8     34.1     49.5       0.38    -0.19    -0.23
 25H      104.9     33.9   -130.4       0.38    -0.19    -0.23
 27H      -18.0     42.3     49.9      -0.36     0.56    -0.49
 28H      161.8     42.2   -129.9      -0.36     0.56    -0.49
 30H      -62.9     33.4     43.7       1.56    -0.31    -0.54
 31H      116.9     33.4   -136.1       1.56    -0.31    -0.54
 33H      154.2     43.7   -135.5      -1.39     1.70    -2.28
 34H      -25.6     43.7     44.3      -1.39     1.70    -2.28
 36H      139.4     40.8   -139.6       3.26    -6.30    -9.72
 37H      -40.4     40.8     40.2       3.27    -6.29    -9.72
 39H     -140.9     38.8    158.8      29.55    43.20    29.15
 40H       39.1     38.9    -21.2      29.73    43.39    29.34
 42H       96.5     30.7    -79.7     -65.24  -102.19   -24.93
 43H      -83.5     30.7    100.3     -65.24  -102.19   -24.93
 45H      117.5      0.2    -96.6      -0.05     0.09    -0.05
 46H      117.9      0.3   -133.0       0.13    -0.06    -0.07
 47H     -160.5      0.1    116.0       0.03    -0.01    -0.01
-------------------------------------------------------------------


Maximum memory used throughout the entire EPRNMR-calculation: 225.6 MB

Timings for individual modules:

Sum of individual times         ...     4656.562 sec (=  77.609 min)
GTO integral calculation        ...        5.703 sec (=   0.095 min)   0.1 %
Spin-Orbit-Coupling Matrices    ...       12.743 sec (=   0.212 min)   0.3 %
SCF iterations                  ...       32.507 sec (=   0.542 min)   0.7 %
EPR/NMR calculation             ...     4605.608 sec (=  76.760 min)  98.9 %
                             ****ORCA TERMINATED NORMALLY****
TOTAL RUN TIME: 0 days 1 hours 17 minutes 40 seconds 982 msec
