
                                 *****************
                                 * O   R   C   A *
                                 *****************

                                            #,                                       
                                            ###                                      
                                            ####                                     
                                            #####                                    
                                            ######                                   
                                           ########,                                 
                                     ,,################,,,,,                         
                               ,,#################################,,                 
                          ,,##########################################,,             
                       ,#########################################, ''#####,          
                    ,#############################################,,   '####,        
                  ,##################################################,,,,####,       
                ,###########''''           ''''###############################       
              ,#####''   ,,,,##########,,,,          '''####'''          '####       
            ,##' ,,,,###########################,,,                        '##       
           ' ,,###''''                  '''############,,,                           
         ,,##''                                '''############,,,,        ,,,,,,###''
      ,#''                                            '''#######################'''  
     '                                                          ''''####''''         
             ,#######,   #######,   ,#######,      ##                                
            ,#'     '#,  ##    ##  ,#'     '#,    #''#        ######   ,####,        
            ##       ##  ##   ,#'  ##            #'  '#       #        #'  '#        
            ##       ##  #######   ##           ,######,      #####,   #    #        
            '#,     ,#'  ##    ##  '#,     ,#' ,#      #,         ##   #,  ,#        
             '#######'   ##     ##  '#######'  #'      '#     #####' # '####'        



                  #######################################################
                  #                        -***-                        #
                  #          Department of theory and spectroscopy      #
                  #    Directorship and core code : Frank Neese         #
                  #        Max Planck Institute fuer Kohlenforschung    #
                  #                Kaiser Wilhelm Platz 1               #
                  #                 D-45470 Muelheim/Ruhr               #
                  #                      Germany                        #
                  #                                                     #
                  #                  All rights reserved                #
                  #                        -***-                        #
                  #######################################################


                         Program Version 5.0.4 -  RELEASE  -


 With contributions from (in alphabetic order):
   Daniel Aravena         : Magnetic Suceptibility
   Michael Atanasov       : Ab Initio Ligand Field Theory (pilot matlab implementation)
   Alexander A. Auer      : GIAO ZORA, VPT2 properties, NMR spectrum
   Ute Becker             : Parallelization
   Giovanni Bistoni       : ED, misc. LED, open-shell LED, HFLD
   Martin Brehm           : Molecular dynamics
   Dmytro Bykov           : SCF Hessian
   Vijay G. Chilkuri      : MRCI spin determinant printing, contributions to CSF-ICE
   Dipayan Datta          : RHF DLPNO-CCSD density
   Achintya Kumar Dutta   : EOM-CC, STEOM-CC
   Dmitry Ganyushin       : Spin-Orbit,Spin-Spin,Magnetic field MRCI
   Miquel Garcia          : C-PCM and meta-GGA Hessian, CC/C-PCM, Gaussian charge scheme
   Yang Guo               : DLPNO-NEVPT2, F12-NEVPT2, CIM, IAO-localization
   Andreas Hansen         : Spin unrestricted coupled pair/coupled cluster methods
   Benjamin Helmich-Paris : MC-RPA, TRAH-SCF, COSX integrals
   Lee Huntington         : MR-EOM, pCC
   Robert Izsak           : Overlap fitted RIJCOSX, COSX-SCS-MP3, EOM
   Marcus Kettner         : VPT2
   Christian Kollmar      : KDIIS, OOCD, Brueckner-CCSD(T), CCSD density, CASPT2, CASPT2-K
   Simone Kossmann        : Meta GGA functionals, TD-DFT gradient, OOMP2, MP2 Hessian
   Martin Krupicka        : Initial AUTO-CI
   Lucas Lang             : DCDCAS
   Marvin Lechner         : AUTO-CI (C++ implementation), FIC-MRCC
   Dagmar Lenk            : GEPOL surface, SMD
   Dimitrios Liakos       : Extrapolation schemes; Compound Job, initial MDCI parallelization
   Dimitrios Manganas     : Further ROCIS development; embedding schemes
   Dimitrios Pantazis     : SARC Basis sets
   Anastasios Papadopoulos: AUTO-CI, single reference methods and gradients
   Taras Petrenko         : DFT Hessian,TD-DFT gradient, ASA, ECA, R-Raman, ABS, FL, XAS/XES, NRVS
   Peter Pinski           : DLPNO-MP2, DLPNO-MP2 Gradient
   Christoph Reimann      : Effective Core Potentials
   Marius Retegan         : Local ZFS, SOC
   Christoph Riplinger    : Optimizer, TS searches, QM/MM, DLPNO-CCSD(T), (RO)-DLPNO pert. Triples
   Tobias Risthaus        : Range-separated hybrids, TD-DFT gradient, RPA, STAB
   Michael Roemelt        : Original ROCIS implementation
   Masaaki Saitow         : Open-shell DLPNO-CCSD energy and density
   Barbara Sandhoefer     : DKH picture change effects
   Avijit Sen             : IP-ROCIS
   Kantharuban Sivalingam : CASSCF convergence, NEVPT2, FIC-MRCI
   Bernardo de Souza      : ESD, SOC TD-DFT
   Georgi Stoychev        : AutoAux, RI-MP2 NMR, DLPNO-MP2 response
   Willem Van den Heuvel  : Paramagnetic NMR
   Boris Wezisla          : Elementary symmetry handling
   Frank Wennmohs         : Technical directorship


 We gratefully acknowledge several colleagues who have allowed us to
 interface, adapt or use parts of their codes:
   Stefan Grimme, W. Hujo, H. Kruse, P. Pracht,  : VdW corrections, initial TS optimization,
                  C. Bannwarth, S. Ehlert          DFT functionals, gCP, sTDA/sTD-DF
   Ed Valeev, F. Pavosevic, A. Kumar             : LibInt (2-el integral package), F12 methods
   Garnet Chan, S. Sharma, J. Yang, R. Olivares  : DMRG
   Ulf Ekstrom                                   : XCFun DFT Library
   Mihaly Kallay                                 : mrcc  (arbitrary order and MRCC methods)
   Jiri Pittner, Ondrej Demel                    : Mk-CCSD
   Frank Weinhold                                : gennbo (NPA and NBO analysis)
   Christopher J. Cramer and Donald G. Truhlar   : smd solvation model
   Lars Goerigk                                  : TD-DFT with DH, B97 family of functionals
   V. Asgeirsson, H. Jonsson                     : NEB implementation
   FAccTs GmbH                                   : IRC, NEB, NEB-TS, DLPNO-Multilevel, CI-OPT
                                                   MM, QMMM, 2- and 3-layer-ONIOM, Crystal-QMMM,
                                                   LR-CPCM, SF, NACMEs, symmetry and pop. for TD-DFT,
                                                   nearIR, NL-DFT gradient (VV10), updates on ESD,
                                                   ML-optimized integration grids
   S Lehtola, MJT Oliveira, MAL Marques          : LibXC Library
   Liviu Ungur et al                             : ANISO software


 Your calculation uses the libint2 library for the computation of 2-el integrals
 For citations please refer to: http://libint.valeyev.net

 Your ORCA version has been built with support for libXC version: 5.1.0
 For citations please refer to: https://tddft.org/programs/libxc/

 This ORCA versions uses:
   CBLAS   interface :  Fast vector & matrix operations
   LAPACKE interface :  Fast linear algebra routines
   SCALAPACK package :  Parallel linear algebra routines
   Shared memory     :  Shared parallel matrices
   BLAS/LAPACK       :  OpenBLAS 0.3.15  USE64BITINT DYNAMIC_ARCH NO_AFFINITY SkylakeX SINGLE_THREADED
        Core in use  :  SkylakeX
   Copyright (c) 2011-2014, The OpenBLAS Project




***************************************
The coordinates will be read from file: opt.xyz
***************************************


================================================================================

----- Orbital basis set information -----
Your calculation utilizes the basis: EPR-II
   V. Barone, in Recent Advances in Density Functional Methods, Part 1 (ed. D. P. Chong), World Scientific, Singapore, 1995, p. 287.

----- AuxJ basis set information -----
Your calculation utilizes the AutoAux generation procedure.
  G. L. Stoychev, A. A. Auer, F. Neese, J. Chem. Theory Comput. 13, 554 (2017)

----- AuxC basis set information -----
Your calculation utilizes the AutoAux generation procedure.
  G. L. Stoychev, A. A. Auer, F. Neese, J. Chem. Theory Comput. 13, 554 (2017)

----- AuxJK basis set information -----
Your calculation utilizes the AutoAux generation procedure.
  G. L. Stoychev, A. A. Auer, F. Neese, J. Chem. Theory Comput. 13, 554 (2017)

================================================================================
                                        WARNINGS
                       Please study these warnings very carefully!
================================================================================


WARNING: your system is open-shell and RHF/RKS was chosen
  ===> : WILL SWITCH to UHF/UKS


INFO   : the flag for use of the SHARK integral package has been found!

================================================================================
                                       INPUT FILE
================================================================================
NAME = EPRII.inp
|  1> ! B3LYP EPR-II AUTOAUX
|  2> %pal nprocs 16 end
|  3> *XYZFile 0 2 opt.xyz
|  4> %EPRNMR
|  5>         GTENSOR   TRUE
|  6>         NUCLEI    = ALL H {SHIFT, AISO, ADIP, AORB}
|  7> END
|  8> 
|  9>                          ****END OF INPUT****
================================================================================

                       ****************************
                       * Single Point Calculation *
                       ****************************

---------------------------------
CARTESIAN COORDINATES (ANGSTROEM)
---------------------------------
  C     -4.033095    0.125995   -0.120550
  C     -2.818554    0.064283   -0.113733
  C      2.844701   -0.087698   -0.094014
  C     -1.387308    0.001670   -0.109120
  C     -0.717415   -1.248577   -0.131387
  C      0.677891   -1.227304   -0.125201
  C      1.413450   -0.025455   -0.098238
  C      0.743520    1.224786   -0.076040
  C     -0.651774    1.203497   -0.082207
  H      1.237515   -2.162251   -0.141592
  H     -1.211574    2.138326   -0.066066
  C     -1.519082   -2.535740   -0.160319
  H     -2.193391   -2.502424   -1.035822
  H     -2.198917   -2.538057    0.711570
  C     -0.725170   -3.844428   -0.184263
  H     -0.057419   -3.863303   -1.065313
  H     -0.067448   -3.901298    0.702698
  C     -1.630154   -5.082043   -0.216172
  H     -2.302557   -5.063679    0.661573
  H     -2.289170   -5.027876   -1.102556
  C     -0.849650   -6.398680   -0.237162
  H     -0.209987   -6.499597    0.656655
  H     -0.192325   -6.460562   -1.121673
  C      1.544976    2.512262   -0.046310
  H      2.211265    2.483799    0.835489
  H      2.232417    2.510877   -0.912033
  C      0.748806    3.819980   -0.035637
  H      0.094974    3.867835   -0.925718
  H      0.077234    3.843479    0.842094
  C      1.650750    5.059985   -0.009203
  H      2.308780    5.015134    0.879125
  H      2.325397    5.040432   -0.885895
  C      0.871144    6.379748    0.002295
  H      0.196174    6.397851    0.879166
  H      0.212832    6.422731   -0.886310
  C      1.768137    7.622332    0.028249
  H      2.440869    7.614214   -0.849002
  H      2.424364    7.589422    0.917345
  C      0.965992    8.948773    0.039424
  H      0.313046    8.962787   -0.853435
  H      0.295262    8.937141    0.919053
  C      1.821040   10.171631    0.065838
  H      2.200965   10.570215    1.010891
  H      2.218733   10.598274   -0.859437
  C      4.059287   -0.148837   -0.092234
  H     -5.104117    0.181270   -0.124553
  H      5.130370   -0.203000   -0.089533
  H     -1.525743   -7.268664   -0.263008

----------------------------
CARTESIAN COORDINATES (A.U.)
----------------------------
  NO LB      ZA    FRAG     MASS         X           Y           Z
   0 C     6.0000    0    12.011   -7.621445    0.238096   -0.227806
   1 C     6.0000    0    12.011   -5.326295    0.121477   -0.214924
   2 C     6.0000    0    12.011    5.375707   -0.165726   -0.177661
   3 C     6.0000    0    12.011   -2.621633    0.003156   -0.206208
   4 C     6.0000    0    12.011   -1.355718   -2.359469   -0.248285
   5 C     6.0000    0    12.011    1.281028   -2.319269   -0.236597
   6 C     6.0000    0    12.011    2.671033   -0.048104   -0.185643
   7 C     6.0000    0    12.011    1.405050    2.314511   -0.143695
   8 C     6.0000    0    12.011   -1.231674    2.274280   -0.155348
   9 H     1.0000    0     1.008    2.338565   -4.086062   -0.267571
  10 H     1.0000    0     1.008   -2.289542    4.040851   -0.124848
  11 C     6.0000    0    12.011   -2.870649   -4.791855   -0.302959
  12 H     1.0000    0     1.008   -4.144908   -4.728896   -1.957419
  13 H     1.0000    0     1.008   -4.155351   -4.796233    1.344672
  14 C     6.0000    0    12.011   -1.370372   -7.264916   -0.348206
  15 H     1.0000    0     1.008   -0.108507   -7.300585   -2.013149
  16 H     1.0000    0     1.008   -0.127457   -7.372384    1.327906
  17 C     6.0000    0    12.011   -3.080545   -9.603669   -0.408505
  18 H     1.0000    0     1.008   -4.351202   -9.568967    1.250192
  19 H     1.0000    0     1.008   -4.325904   -9.501309   -2.083529
  20 C     6.0000    0    12.011   -1.605605  -12.091753   -0.448172
  21 H     1.0000    0     1.008   -0.396818  -12.282458    1.240898
  22 H     1.0000    0     1.008   -0.363442  -12.208692   -2.119655
  23 C     6.0000    0    12.011    2.919582    4.747487   -0.087513
  24 H     1.0000    0     1.008    4.178684    4.693700    1.578845
  25 H     1.0000    0     1.008    4.218658    4.744871   -1.723493
  26 C     6.0000    0    12.011    1.415038    7.218715   -0.067345
  27 H     1.0000    0     1.008    0.179475    7.309149   -1.749353
  28 H     1.0000    0     1.008    0.145950    7.263122    1.591328
  29 C     6.0000    0    12.011    3.119466    9.561986   -0.017391
  30 H     1.0000    0     1.008    4.362961    9.477230    1.661306
  31 H     1.0000    0     1.008    4.394363    9.525036   -1.674099
  32 C     6.0000    0    12.011    1.646224   12.055976    0.004337
  33 H     1.0000    0     1.008    0.370715   12.090187    1.661383
  34 H     1.0000    0     1.008    0.402194   12.137203   -1.674883
  35 C     6.0000    0    12.011    3.341295   14.404120    0.053382
  36 H     1.0000    0     1.008    4.612574   14.388779   -1.604382
  37 H     1.0000    0     1.008    4.581384   14.341929    1.733531
  38 C     6.0000    0    12.011    1.825460   16.910729    0.074500
  39 H     1.0000    0     1.008    0.591572   16.937213   -1.612758
  40 H     1.0000    0     1.008    0.557964   16.888749    1.736758
  41 C     6.0000    0    12.011    3.441267   19.221597    0.124417
  42 H     1.0000    0     1.008    4.159221   19.974812    1.910308
  43 H     1.0000    0     1.008    4.192798   20.027834   -1.624101
  44 C     6.0000    0    12.011    7.670940   -0.281260   -0.174296
  45 H     1.0000    0     1.008   -9.645384    0.342550   -0.235371
  46 H     1.0000    0     1.008    9.694995   -0.383615   -0.169193
  47 H     1.0000    0     1.008   -2.883236  -13.735785   -0.497013

--------------------------------
INTERNAL COORDINATES (ANGSTROEM)
--------------------------------
 C      0   0   0     0.000000000000     0.00000000     0.00000000
 C      1   0   0     1.216126533425     0.00000000     0.00000000
 C      2   1   0     5.665328879189   178.62311323     0.00000000
 C      2   1   3     1.432622014091   179.57366667   346.36765878
 C      4   2   1     1.418580903656   120.67998894   199.85893781
 C      5   4   2     1.395481891878   117.30089220   180.00194210
 C      6   5   4     1.409331062043   122.33981991     0.00000000
 C      7   6   5     1.418591952718   120.35786033     0.00000000
 C      8   7   6     1.395469875603   117.30166258     0.00000000
 H      6   5   4     1.089758597975   120.02119069   179.99891363
 H      9   8   7     1.089744037995   120.03182786   180.01309598
 C      5   4   2     1.516672751091   119.91158003     0.00000000
 H     12   5   4     1.105579850259   108.17458873    56.23773308
 H     12   5   4     1.105608617036   108.16474260   303.64915849
 C     12   5   4     1.530860730586   116.85196988   179.95762620
 H     15  12   5     1.105665231667   109.89277517   301.89163176
 H     15  12   5     1.105681392118   109.87190177    58.40315050
 C     15  12   5     1.533526994534   112.59361507   180.14702054
 H     18  15  12     1.105847616516   109.20256463   302.48799365
 H     18  15  12     1.105854061265   109.19764228    57.79198366
 C     18  15  12     1.530739018735   113.17514602   180.13028485
 H     21  18  15     1.103748723839   111.28677580    60.02761689
 H     21  18  15     1.103750210883   111.27649423   300.30992875
 C      8   7   6     1.516841639996   119.92338399   179.96555595
 H     24   8   7     1.105585561708   108.19229282   303.17569237
 H     24   8   7     1.105465601363   108.18939608    55.80527247
 C     24   8   7     1.531054090402   116.76610637   179.49268478
 H     27  24   8     1.105454019405   109.81171929   301.92355081
 H     27  24   8     1.105429445798   109.85323597    58.37606105
 C     27  24   8     1.533563296303   112.63818716   180.15281981
 H     30  27  24     1.106409320032   109.32050156   302.31893984
 H     30  27  24     1.106399094548   109.30995567    57.73499914
 C     30  27  24     1.532869910717   113.40155910   180.02000813
 H     33  30  27     1.106713810006   109.28156324    57.69433825
 H     33  30  27     1.106725444466   109.26524721   302.33004611
 C     33  30  27     1.532737960493   113.60794831   180.01918290
 H     36  33  30     1.105532988879   109.67754542    58.04715616
 H     36  33  30     1.105535900967   109.68583839   301.93781246
 C     36  33  30     1.550163098883   113.01602217   179.99164143
 H     39  36  33     1.106223899969   108.08638156   302.50867140
 H     39  36  33     1.106237562865   108.08810700    57.40717091
 C     39  36  33     1.492376628128   113.87849646   179.95243980
 H     42  39  36     1.093772115972   120.85769729   275.06607383
 H     42  39  36     1.093763237714   120.86205473    85.02102555
 C      3   2   1     1.216124220326   178.65063847   189.98545716
 H      1   2   4     1.072455534972   179.88341160   274.34196710
 H     45   3   7     1.072455866565   179.93817679   270.13232413
 H     21  18  15     1.102108103087   111.50000175   180.17420782

---------------------------
INTERNAL COORDINATES (A.U.)
---------------------------
 C      0   0   0     0.000000000000     0.00000000     0.00000000
 C      1   0   0     2.298146092369     0.00000000     0.00000000
 C      2   1   0    10.705920040262   178.62311323     0.00000000
 C      2   1   3     2.707263260058   179.57366667   346.36765878
 C      4   2   1     2.680729406720   120.67998894   199.85893781
 C      5   4   2     2.637078600496   117.30089220   180.00194210
 C      6   5   4     2.663249739289   122.33981991     0.00000000
 C      7   6   5     2.680750286421   120.35786033     0.00000000
 C      8   7   6     2.637055893027   117.30166258     0.00000000
 H      6   5   4     2.059345302259   120.02119069   179.99891363
 H      9   8   7     2.059317787884   120.03182786   180.01309598
 C      5   4   2     2.866096134343   119.91158003     0.00000000
 H     12   5   4     2.089243136171   108.17458873    56.23773308
 H     12   5   4     2.089297497502   108.16474260   303.64915849
 C     12   5   4     2.892907529982   116.85196988   179.95762620
 H     15  12   5     2.089404483649   109.89277517   301.89163176
 H     15  12   5     2.089435022476   109.87190177    58.40315050
 C     15  12   5     2.897946038645   112.59361507   180.14702054
 H     18  15  12     2.089749141065   109.20256463   302.48799365
 H     18  15  12     2.089761319875   109.19764228    57.79198366
 C     18  15  12     2.892677527916   113.17514602   180.13028485
 H     21  18  15     2.085782808721   111.28677580    60.02761689
 H     21  18  15     2.085785618826   111.27649423   300.30992875
 C      8   7   6     2.866415288121   119.92338399   179.96555595
 H     24   8   7     2.089253929245   108.19229282   303.17569237
 H     24   8   7     2.089027237047   108.18939608    55.80527247
 C     24   8   7     2.893272927080   116.76610637   179.49268478
 H     27  24   8     2.089005350317   109.81171929   301.92355081
 H     27  24   8     2.088958912930   109.85323597    58.37606105
 C     27  24   8     2.898014639047   112.63818716   180.15281981
 H     30  27  24     2.090810606878   109.32050156   302.31893984
 H     30  27  24     2.090791283514   109.30995567    57.73499914
 C     30  27  24     2.896704330183   113.40155910   180.02000813
 H     33  30  27     2.091386009539   109.28156324    57.69433825
 H     33  30  27     2.091407995484   109.26524721   302.33004611
 C     33  30  27     2.896454980396   113.60794831   180.01918290
 H     36  33  30     2.089154580996   109.67754542    58.04715616
 H     36  33  30     2.089160084045   109.68583839   301.93781246
 C     36  33  30     2.929383719800   113.01602217   179.99164143
 H     39  36  33     2.090460213740   108.08638156   302.50867140
 H     39  36  33     2.090486032872   108.08810700    57.40717091
 C     39  36  33     2.820183115826   113.87849646   179.95243980
 H     42  39  36     2.066929752106   120.85769729   275.06607383
 H     42  39  36     2.066912974631   120.86205473    85.02102555
 C      3   2   1     2.298141721245   178.65063847   189.98545716
 H      1   2   4     2.026647251906   179.88341160   274.34196710
 H     45   3   7     2.026647878524   179.93817679   270.13232413
 H     21  18  15     2.082682484811   111.50000175   180.17420782

---------------------
BASIS SET INFORMATION
---------------------
There are 2 groups of distinct atoms

 Group   1 Type C   : 10s5p1d contracted to 6s2p1d pattern {511111/41/1}
 Group   2 Type H   : 6s1p contracted to 4s1p pattern {3111/1}

Atom   0C    basis set group =>   1
Atom   1C    basis set group =>   1
Atom   2C    basis set group =>   1
Atom   3C    basis set group =>   1
Atom   4C    basis set group =>   1
Atom   5C    basis set group =>   1
Atom   6C    basis set group =>   1
Atom   7C    basis set group =>   1
Atom   8C    basis set group =>   1
Atom   9H    basis set group =>   2
Atom  10H    basis set group =>   2
Atom  11C    basis set group =>   1
Atom  12H    basis set group =>   2
Atom  13H    basis set group =>   2
Atom  14C    basis set group =>   1
Atom  15H    basis set group =>   2
Atom  16H    basis set group =>   2
Atom  17C    basis set group =>   1
Atom  18H    basis set group =>   2
Atom  19H    basis set group =>   2
Atom  20C    basis set group =>   1
Atom  21H    basis set group =>   2
Atom  22H    basis set group =>   2
Atom  23C    basis set group =>   1
Atom  24H    basis set group =>   2
Atom  25H    basis set group =>   2
Atom  26C    basis set group =>   1
Atom  27H    basis set group =>   2
Atom  28H    basis set group =>   2
Atom  29C    basis set group =>   1
Atom  30H    basis set group =>   2
Atom  31H    basis set group =>   2
Atom  32C    basis set group =>   1
Atom  33H    basis set group =>   2
Atom  34H    basis set group =>   2
Atom  35C    basis set group =>   1
Atom  36H    basis set group =>   2
Atom  37H    basis set group =>   2
Atom  38C    basis set group =>   1
Atom  39H    basis set group =>   2
Atom  40H    basis set group =>   2
Atom  41C    basis set group =>   1
Atom  42H    basis set group =>   2
Atom  43H    basis set group =>   2
Atom  44C    basis set group =>   1
Atom  45H    basis set group =>   2
Atom  46H    basis set group =>   2
Atom  47H    basis set group =>   2
---------------------------------
AUXILIARY/J BASIS SET INFORMATION
---------------------------------
There are 2 groups of distinct atoms

 Group   1 Type C   : 17s13p12d2f contracted to 17s13p12d2f pattern {11111111111111111/1111111111111/111111111111/11}
 Group   2 Type H   : 15s6p1d contracted to 15s6p1d pattern {111111111111111/111111/1}

Atom   0C    basis set group =>   1
Atom   1C    basis set group =>   1
Atom   2C    basis set group =>   1
Atom   3C    basis set group =>   1
Atom   4C    basis set group =>   1
Atom   5C    basis set group =>   1
Atom   6C    basis set group =>   1
Atom   7C    basis set group =>   1
Atom   8C    basis set group =>   1
Atom   9H    basis set group =>   2
Atom  10H    basis set group =>   2
Atom  11C    basis set group =>   1
Atom  12H    basis set group =>   2
Atom  13H    basis set group =>   2
Atom  14C    basis set group =>   1
Atom  15H    basis set group =>   2
Atom  16H    basis set group =>   2
Atom  17C    basis set group =>   1
Atom  18H    basis set group =>   2
Atom  19H    basis set group =>   2
Atom  20C    basis set group =>   1
Atom  21H    basis set group =>   2
Atom  22H    basis set group =>   2
Atom  23C    basis set group =>   1
Atom  24H    basis set group =>   2
Atom  25H    basis set group =>   2
Atom  26C    basis set group =>   1
Atom  27H    basis set group =>   2
Atom  28H    basis set group =>   2
Atom  29C    basis set group =>   1
Atom  30H    basis set group =>   2
Atom  31H    basis set group =>   2
Atom  32C    basis set group =>   1
Atom  33H    basis set group =>   2
Atom  34H    basis set group =>   2
Atom  35C    basis set group =>   1
Atom  36H    basis set group =>   2
Atom  37H    basis set group =>   2
Atom  38C    basis set group =>   1
Atom  39H    basis set group =>   2
Atom  40H    basis set group =>   2
Atom  41C    basis set group =>   1
Atom  42H    basis set group =>   2
Atom  43H    basis set group =>   2
Atom  44C    basis set group =>   1
Atom  45H    basis set group =>   2
Atom  46H    basis set group =>   2
Atom  47H    basis set group =>   2
---------------------------------
AUXILIARY/C BASIS SET INFORMATION
---------------------------------
There are 2 groups of distinct atoms

 Group   1 Type C   : 17s13p12d2f contracted to 17s13p12d2f pattern {11111111111111111/1111111111111/111111111111/11}
 Group   2 Type H   : 15s6p1d contracted to 15s6p1d pattern {111111111111111/111111/1}

Atom   0C    basis set group =>   1
Atom   1C    basis set group =>   1
Atom   2C    basis set group =>   1
Atom   3C    basis set group =>   1
Atom   4C    basis set group =>   1
Atom   5C    basis set group =>   1
Atom   6C    basis set group =>   1
Atom   7C    basis set group =>   1
Atom   8C    basis set group =>   1
Atom   9H    basis set group =>   2
Atom  10H    basis set group =>   2
Atom  11C    basis set group =>   1
Atom  12H    basis set group =>   2
Atom  13H    basis set group =>   2
Atom  14C    basis set group =>   1
Atom  15H    basis set group =>   2
Atom  16H    basis set group =>   2
Atom  17C    basis set group =>   1
Atom  18H    basis set group =>   2
Atom  19H    basis set group =>   2
Atom  20C    basis set group =>   1
Atom  21H    basis set group =>   2
Atom  22H    basis set group =>   2
Atom  23C    basis set group =>   1
Atom  24H    basis set group =>   2
Atom  25H    basis set group =>   2
Atom  26C    basis set group =>   1
Atom  27H    basis set group =>   2
Atom  28H    basis set group =>   2
Atom  29C    basis set group =>   1
Atom  30H    basis set group =>   2
Atom  31H    basis set group =>   2
Atom  32C    basis set group =>   1
Atom  33H    basis set group =>   2
Atom  34H    basis set group =>   2
Atom  35C    basis set group =>   1
Atom  36H    basis set group =>   2
Atom  37H    basis set group =>   2
Atom  38C    basis set group =>   1
Atom  39H    basis set group =>   2
Atom  40H    basis set group =>   2
Atom  41C    basis set group =>   1
Atom  42H    basis set group =>   2
Atom  43H    basis set group =>   2
Atom  44C    basis set group =>   1
Atom  45H    basis set group =>   2
Atom  46H    basis set group =>   2
Atom  47H    basis set group =>   2
----------------------------------
AUXILIARY/JK BASIS SET INFORMATION
----------------------------------
There are 2 groups of distinct atoms

 Group   1 Type C   : 17s13p12d2f contracted to 17s13p12d2f pattern {11111111111111111/1111111111111/111111111111/11}
 Group   2 Type H   : 15s6p1d contracted to 15s6p1d pattern {111111111111111/111111/1}

Atom   0C    basis set group =>   1
Atom   1C    basis set group =>   1
Atom   2C    basis set group =>   1
Atom   3C    basis set group =>   1
Atom   4C    basis set group =>   1
Atom   5C    basis set group =>   1
Atom   6C    basis set group =>   1
Atom   7C    basis set group =>   1
Atom   8C    basis set group =>   1
Atom   9H    basis set group =>   2
Atom  10H    basis set group =>   2
Atom  11C    basis set group =>   1
Atom  12H    basis set group =>   2
Atom  13H    basis set group =>   2
Atom  14C    basis set group =>   1
Atom  15H    basis set group =>   2
Atom  16H    basis set group =>   2
Atom  17C    basis set group =>   1
Atom  18H    basis set group =>   2
Atom  19H    basis set group =>   2
Atom  20C    basis set group =>   1
Atom  21H    basis set group =>   2
Atom  22H    basis set group =>   2
Atom  23C    basis set group =>   1
Atom  24H    basis set group =>   2
Atom  25H    basis set group =>   2
Atom  26C    basis set group =>   1
Atom  27H    basis set group =>   2
Atom  28H    basis set group =>   2
Atom  29C    basis set group =>   1
Atom  30H    basis set group =>   2
Atom  31H    basis set group =>   2
Atom  32C    basis set group =>   1
Atom  33H    basis set group =>   2
Atom  34H    basis set group =>   2
Atom  35C    basis set group =>   1
Atom  36H    basis set group =>   2
Atom  37H    basis set group =>   2
Atom  38C    basis set group =>   1
Atom  39H    basis set group =>   2
Atom  40H    basis set group =>   2
Atom  41C    basis set group =>   1
Atom  42H    basis set group =>   2
Atom  43H    basis set group =>   2
Atom  44C    basis set group =>   1
Atom  45H    basis set group =>   2
Atom  46H    basis set group =>   2
Atom  47H    basis set group =>   2


           ************************************************************
           *        Program running with 16 parallel MPI-processes    *
           *              working on a common directory               *
           ************************************************************
------------------------------------------------------------------------------
                           ORCA GTO INTEGRAL CALCULATION
                           -- RI-GTO INTEGRALS CHOSEN --
------------------------------------------------------------------------------
------------------------------------------------------------------------------
                   ___                                                        
                  /   \      - P O W E R E D   B Y -                         
                 /     \                                                     
                 |  |  |   _    _      __       _____    __    __             
                 |  |  |  | |  | |    /  \     |  _  \  |  |  /  |          
                  \  \/   | |  | |   /    \    | | | |  |  | /  /          
                 / \  \   | |__| |  /  /\  \   | |_| |  |  |/  /          
                |  |  |   |  __  | /  /__\  \  |    /   |      \           
                |  |  |   | |  | | |   __   |  |    \   |  |\   \          
                \     /   | |  | | |  |  |  |  | |\  \  |  | \   \       
                 \___/    |_|  |_| |__|  |__|  |_| \__\ |__|  \__/        
                                                                              
                      - O R C A' S   B I G   F R I E N D -                    
                                      &                                       
                       - I N T E G R A L  F E E D E R -                       
                                                                              
 v1 FN, 2020, v2 2021                                                         
------------------------------------------------------------------------------


Reading SHARK input file EPRII.SHARKINP.tmp ... ok
----------------------
SHARK INTEGRAL PACKAGE
----------------------

Number of atoms                             ...     48
Number of basis functions                   ...    546
Number of shells                            ...    324
Maximum angular momentum                    ...      2
Integral batch strategy                     ... SHARK/LIBINT Hybrid
RI-J (if used) integral strategy            ... SPLIT-RIJ (Revised 2003 algorithm where possible)
Printlevel                                  ...      1
Contraction scheme used                     ... SEGMENTED contraction
Coulomb Range Separation                    ... NOT USED
Exchange Range Separation                   ... NOT USED
Finite Nucleus Model                        ... NOT USED
Auxiliary Coulomb fitting basis             ... AVAILABLE
   # of basis functions in Aux-J            ...   3756
   # of shells in Aux-J                     ...   1518
   Maximum angular momentum in Aux-J        ...      3
Auxiliary J/K fitting basis                 ... AVAILABLE
   # of basis functions in Aux-JK           ...   3756
   # of shells in Aux-JK                    ...   1518
   Maximum angular momentum in Aux-JK       ...      3
Auxiliary Correlation fitting basis         ... AVAILABLE
   # of basis functions in Aux-C            ...   3756
   # of shells in Aux-C                     ...   1518
   Maximum angular momentum in Aux-C        ...      3
Auxiliary 'external' fitting basis          ... NOT available
Integral threshold                          ...     1.000000e-10
Primitive cut-off                           ...     1.000000e-11
Primitive pair pre-selection threshold      ...     1.000000e-11

Calculating pre-screening integrals         ... done (  0.0 sec) Dimension = 324
Organizing shell pair data                  ... done (  0.2 sec)
Shell pair information
Total number of shell pairs                 ...     52650
Shell pairs after pre-screening             ...     26306
Total number of primitive shell pairs       ...    138492
Primitive shell pairs kept                  ...     49274
          la=0 lb=0:  12270 shell pairs
          la=1 lb=0:   9090 shell pairs
          la=1 lb=1:   1571 shell pairs
          la=2 lb=0:   2368 shell pairs
          la=2 lb=1:    872 shell pairs
          la=2 lb=2:    135 shell pairs

Calculating one electron integrals          ... done (  0.0 sec)
Calculating RI/J V-Matrix + Cholesky decomp.... done (  0.9 sec)
Calculating RI/JK V-Matrix + Cholesky decomp... done (  0.8 sec)
Calculating RI/C V-Matrix + Cholesky decomp.... done (  0.8 sec)
Calculating Nuclear repulsion               ... done (  0.0 sec) ENN=   1441.284606657862 Eh

SHARK setup successfully completed in   3.0 seconds

Maximum memory used throughout the entire GTOINT-calculation: 52.6 MB


           ************************************************************
           *        Program running with 16 parallel MPI-processes    *
           *              working on a common directory               *
           ************************************************************
-------------------------------------------------------------------------------
                                 ORCA SCF
-------------------------------------------------------------------------------

------------
SCF SETTINGS
------------
Hamiltonian:
 Density Functional     Method          .... DFT(GTOs)
 Exchange Functional    Exchange        .... B88
   X-Alpha parameter    XAlpha          ....  0.666667
   Becke's b parameter  XBeta           ....  0.004200
 Correlation Functional Correlation     .... LYP
 LDA part of GGA corr.  LDAOpt          .... VWN-5
 Gradients option       PostSCFGGA      .... off
 Hybrid DFT is turned on
   Fraction HF Exchange ScalHFX         ....  0.200000
   Scaling of DF-GGA-X  ScalDFX         ....  0.720000
   Scaling of DF-GGA-C  ScalDFC         ....  0.810000
   Scaling of DF-LDA-C  ScalLDAC        ....  1.000000
   Perturbative correction              ....  0.000000
   Density functional embedding theory  .... OFF
   NL short-range parameter             ....  4.800000
 RI-approximation to the Coulomb term is turned on
   Number of AuxJ basis functions       .... 3756
   RIJ-COSX (HFX calculated with COS-X)).... on


General Settings:
 Integral files         IntName         .... EPRII
 Hartree-Fock type      HFTyp           .... UHF
 Total Charge           Charge          ....    0
 Multiplicity           Mult            ....    2
 Number of Electrons    NEL             ....  153
 Basis Dimension        Dim             ....  546
 Nuclear Repulsion      ENuc            ....   1441.2846066579 Eh

Convergence Acceleration:
 DIIS                   CNVDIIS         .... on
   Start iteration      DIISMaxIt       ....    12
   Startup error        DIISStart       ....  0.200000
   # of expansion vecs  DIISMaxEq       ....     5
   Bias factor          DIISBfac        ....   1.050
   Max. coefficient     DIISMaxC        ....  10.000
 Trust-Rad. Augm. Hess. CNVTRAH         .... auto
   Auto Start mean grad. ratio tolernc. ....  1.125000
   Auto Start start iteration           ....    20
   Auto Start num. interpolation iter.  ....    10
   Max. Number of Micro iterations      ....    16
   Max. Number of Macro iterations      .... Maxiter - #DIIS iter
   Number of Davidson start vectors     ....     2
   Converg. threshold I  (grad. norm)   ....   5.000e-05
   Converg. threshold II (energy diff.) ....   1.000e-06
   Grad. Scal. Fac. for Micro threshold ....   0.100
   Minimum threshold for Micro iter.    ....   0.010
   NR start threshold (gradient norm)   ....   0.001
   Initial trust radius                 ....   0.400
   Minimum AH scaling param. (alpha)    ....   1.000
   Maximum AH scaling param. (alpha)    .... 1000.000
   Orbital update algorithm             .... Taylor
   White noise on init. David. guess    .... on
   Maximum white noise                  ....   0.010
   Quad. conv. algorithm                .... NR
 SOSCF                  CNVSOSCF        .... off
 Level Shifting         CNVShift        .... on
   Level shift para.    LevelShift      ....    0.2500
   Turn off err/grad.   ShiftErr        ....    0.0010
 Zerner damping         CNVZerner       .... off
 Static damping         CNVDamp         .... on
   Fraction old density DampFac         ....    0.7000
   Max. Damping (<1)    DampMax         ....    0.9800
   Min. Damping (>=0)   DampMin         ....    0.0000
   Turn off err/grad.   DampErr         ....    0.1000
 Fernandez-Rico         CNVRico         .... off

SCF Procedure:
 Maximum # iterations   MaxIter         ....   125
 SCF integral mode      SCFMode         .... Direct
   Integral package                     .... SHARK and LIBINT hybrid scheme
 Reset frequency        DirectResetFreq ....    20
 Integral Threshold     Thresh          ....  1.000e-10 Eh
 Primitive CutOff       TCut            ....  1.000e-11 Eh

Convergence Tolerance:
 Convergence Check Mode ConvCheckMode   .... Total+1el-Energy
 Convergence forced     ConvForced      .... 0
 Energy Change          TolE            ....  1.000e-06 Eh
 1-El. energy change                    ....  1.000e-03 Eh
 DIIS Error             TolErr          ....  1.000e-06


Diagonalization of the overlap matrix:
Smallest eigenvalue                        ... 1.350e-04
Time for diagonalization                   ...    0.051 sec
Threshold for overlap eigenvalues          ... 1.000e-08
Number of eigenvalues below threshold      ... 0
Time for construction of square roots      ...    0.052 sec
Total time needed                          ...    0.105 sec

Time for model grid setup =    0.280 sec

------------------------------
INITIAL GUESS: MODEL POTENTIAL
------------------------------
Loading Hartree-Fock densities                     ... done
Calculating cut-offs                               ... done
Initializing the effective Hamiltonian             ... done
Setting up the integral package (SHARK)            ... done
Starting the Coulomb interaction                   ... done (   0.3 sec)
Reading the grid                                   ... done
Mapping shells                                     ... done
Starting the XC term evaluation                    ... done (   0.1 sec)
  promolecular density results
     # of electrons  =    153.001149613
     EX              =   -115.836141229
     EC              =     -4.990179165
     EX+EC           =   -120.826320394
Transforming the Hamiltonian                       ... done (   0.0 sec)
Diagonalizing the Hamiltonian                      ... done (   0.0 sec)
Back transforming the eigenvectors                 ... done (   0.0 sec)
Now organizing SCF variables                       ... done
                      ------------------
                      INITIAL GUESS DONE (   1.1 sec)
                      ------------------
-------------------
DFT GRID GENERATION
-------------------

General Integration Accuracy     IntAcc      ... 4.388
Radial Grid Type                 RadialGrid  ... OptM3 with GC (2021)
Angular Grid (max. ang.)         AngularGrid ... 4 (Lebedev-302)
Angular grid pruning method      GridPruning ... 4 (adaptive)
Weight generation scheme         WeightScheme... Becke
Basis function cutoff            BFCut       ... 1.0000e-10
Integration weight cutoff        WCut        ... 1.0000e-14
Angular grids for H and He will be reduced by one unit
Partially contracted basis set               ... off
Rotationally invariant grid construction     ... off

Total number of grid points                  ...   211461
Total number of batches                      ...     3328
Average number of points per batch           ...       63
Average number of grid points per atom       ...     4405
Time for grid setup =    1.191 sec

--------------------
COSX GRID GENERATION
--------------------

GRIDX 1
-------
General Integration Accuracy     IntAcc      ... 3.816
Radial Grid Type                 RadialGrid  ... OptM3 with GC (2021)
Angular Grid (max. ang.)         AngularGrid ... 1 (Lebedev-50)
Angular grid pruning method      GridPruning ... 4 (adaptive)
Weight generation scheme         WeightScheme... Becke
Basis function cutoff            BFCut       ... 1.0000e-10
Integration weight cutoff        WCut        ... 1.0000e-14
Angular grids for H and He will be reduced by one unit
Partially contracted basis set               ... on
Rotationally invariant grid construction     ... off

Total number of grid points                  ...    26948
Total number of batches                      ...      452
Average number of points per batch           ...       59
Average number of grid points per atom       ...      561
UseSFitting                                  ... on

GRIDX 2
-------
General Integration Accuracy     IntAcc      ... 4.020
Radial Grid Type                 RadialGrid  ... OptM3 with GC (2021)
Angular Grid (max. ang.)         AngularGrid ... 2 (Lebedev-110)
Angular grid pruning method      GridPruning ... 4 (adaptive)
Weight generation scheme         WeightScheme... Becke
Basis function cutoff            BFCut       ... 1.0000e-10
Integration weight cutoff        WCut        ... 1.0000e-14
Angular grids for H and He will be reduced by one unit
Partially contracted basis set               ... on
Rotationally invariant grid construction     ... off

Total number of grid points                  ...    56897
Total number of batches                      ...      915
Average number of points per batch           ...       62
Average number of grid points per atom       ...     1185
UseSFitting                                  ... on

GRIDX 3
-------
General Integration Accuracy     IntAcc      ... 4.338
Radial Grid Type                 RadialGrid  ... OptM3 with GC (2021)
Angular Grid (max. ang.)         AngularGrid ... 3 (Lebedev-194)
Angular grid pruning method      GridPruning ... 4 (adaptive)
Weight generation scheme         WeightScheme... Becke
Basis function cutoff            BFCut       ... 1.0000e-10
Integration weight cutoff        WCut        ... 1.0000e-14
Angular grids for H and He will be reduced by one unit
Partially contracted basis set               ... on
Rotationally invariant grid construction     ... off

Total number of grid points                  ...   124299
Total number of batches                      ...     1965
Average number of points per batch           ...       63
Average number of grid points per atom       ...     2590
UseSFitting                                  ... on

Time for X-Grid setup             =    2.099 sec

--------------
SCF ITERATIONS
--------------
ITER       Energy         Delta-E        Max-DP      RMS-DP      [F,P]     Damp
               ***  Starting incremental Fock matrix formation  ***
  0   -815.3555689090   0.000000000000 0.05453294  0.00083115  0.0796784 0.7000
  1   -815.5867852981  -0.231216389168 0.03881646  0.00063010  0.0426629 0.7000
                               ***Turning on DIIS***
  2   -815.6901662425  -0.103380944414 0.12204404  0.00136456  0.0177160 0.0000
  3   -815.8329180949  -0.142751852320 0.02601712  0.00035461  0.0233953 0.0000
  4   -815.8734103921  -0.040492297237 0.02879426  0.00020253  0.0048225 0.0000
  5   -815.8751008094  -0.001690417325 0.01729189  0.00010588  0.0014983 0.0000
  6   -815.8752521243  -0.000151314883 0.01043588  0.00006666  0.0006233 0.0000
               *** Restarting incremental Fock matrix formation ***
                                   *** Resetting DIIS ***
  7   -815.8756157216  -0.000363597326 0.00301179  0.00001992  0.0010424 0.0000
  8   -815.8756122910   0.000003430593 0.00059070  0.00000530  0.0012494 0.0000
  9   -815.8756256568  -0.000013365721 0.00043971  0.00000344  0.0004349 0.0000
 10   -815.8756272592  -0.000001602445 0.00014129  0.00000117  0.0000649 0.0000
 11   -815.8756277008  -0.000000441547 0.00008123  0.00000058  0.0000259 0.0000
                 **** Energy Check signals convergence ****

               *****************************************************
               *                     SUCCESS                       *
               *           SCF CONVERGED AFTER  12 CYCLES          *
               *****************************************************

Old exchange energy                            =    -23.642368863 Eh
New exchange energy                            =    -23.642280160 Eh
Exchange energy change after final integration =      0.000088703 Eh
Total energy after final integration           =   -815.875538776 Eh
Final COS-X integration done in                =     8.286 sec

----------------
TOTAL SCF ENERGY
----------------

Total Energy       :         -815.87553878 Eh          -22201.10209 eV

Components:
Nuclear Repulsion  :         1441.28460666 Eh           39219.34802 eV
Electronic Energy  :        -2257.16014543 Eh          -61420.45011 eV
One Electron Energy:        -3961.16261239 Eh         -107788.71456 eV
Two Electron Energy:         1704.00246696 Eh           46368.26444 eV
Max COSX asymmetry :            0.00000326 Eh               0.00009 eV

Virial components:
Potential Energy   :        -1625.20464196 Eh          -44224.06662 eV
Kinetic Energy     :          809.32910318 Eh           22022.96452 eV
Virial Ratio       :            2.00808872


DFT components:
N(Alpha)           :       77.000149853527 electrons
N(Beta)            :       76.000160647902 electrons
N(Total)           :      153.000310501429 electrons
E(X)               :      -93.740119535220 Eh       
E(C)               :       -5.898496857073 Eh       
E(XC)              :      -99.638616392293 Eh       
DFET-embed. en.    :        0.000000000000 Eh       

---------------
SCF CONVERGENCE
---------------

  Last Energy change         ...    2.2232e-07  Tolerance :   1.0000e-06
  Last MAX-Density change    ...    0.0000e+00  Tolerance :   1.0000e-05
  Last RMS-Density change    ...    0.0000e+00  Tolerance :   1.0000e-06
  Last DIIS Error            ...    6.8739e-06  Tolerance :   1.0000e-06

             **** THE GBW FILE WAS UPDATED (EPRII.gbw) ****
             **** DENSITY EPRII.scfp WAS UPDATED ****
             **** ENERGY FILE WAS UPDATED (EPRII.en.tmp) ****
----------------------
UHF SPIN CONTAMINATION
----------------------

Warning: in a DFT calculation there is little theoretical justification to 
         calculate <S**2> as in Hartree-Fock theory. We will do it anyways
         but you should keep in mind that the values have only limited relevance

Expectation value of <S**2>     :     0.753827
Ideal value S*(S+1) for S=0.5   :     0.750000
Deviation                       :     0.003827

             **** THE GBW FILE WAS UPDATED (EPRII.gbw) ****
             **** DENSITY EPRII.scfp WAS UPDATED ****
----------------
ORBITAL ENERGIES
----------------
                 SPIN UP ORBITALS
  NO   OCC          E(Eh)            E(eV) 
   0   1.0000     -10.223303      -278.1902 
   1   1.0000     -10.223290      -278.1899 
   2   1.0000     -10.211523      -277.8697 
   3   1.0000     -10.211481      -277.8685 
   4   1.0000     -10.206314      -277.7279 
   5   1.0000     -10.206307      -277.7277 
   6   1.0000     -10.199865      -277.5524 
   7   1.0000     -10.199819      -277.5512 
   8   1.0000     -10.198137      -277.5054 
   9   1.0000     -10.198125      -277.5051 
  10   1.0000     -10.188906      -277.2542 
  11   1.0000     -10.188591      -277.2457 
  12   1.0000     -10.188294      -277.2376 
  13   1.0000     -10.185868      -277.1716 
  14   1.0000     -10.183473      -277.1064 
  15   1.0000     -10.182878      -277.0902 
  16   1.0000     -10.182497      -277.0798 
  17   1.0000     -10.182422      -277.0778 
  18   1.0000     -10.181082      -277.0413 
  19   1.0000     -10.180221      -277.0179 
  20   1.0000     -10.173290      -276.8293 
  21   1.0000      -0.874850       -23.8059 
  22   1.0000      -0.818419       -22.2703 
  23   1.0000      -0.804695       -21.8969 
  24   1.0000      -0.794944       -21.6315 
  25   1.0000      -0.784128       -21.3372 
  26   1.0000      -0.761681       -20.7264 
  27   1.0000      -0.753905       -20.5148 
  28   1.0000      -0.732093       -19.9213 
  29   1.0000      -0.722164       -19.6511 
  30   1.0000      -0.705297       -19.1921 
  31   1.0000      -0.669685       -18.2231 
  32   1.0000      -0.642373       -17.4798 
  33   1.0000      -0.636396       -17.3172 
  34   1.0000      -0.610379       -16.6092 
  35   1.0000      -0.589380       -16.0379 
  36   1.0000      -0.577130       -15.7045 
  37   1.0000      -0.570729       -15.5303 
  38   1.0000      -0.563101       -15.3228 
  39   1.0000      -0.543701       -14.7949 
  40   1.0000      -0.526670       -14.3314 
  41   1.0000      -0.499835       -13.6012 
  42   1.0000      -0.485546       -13.2124 
  43   1.0000      -0.480836       -13.0842 
  44   1.0000      -0.475850       -12.9485 
  45   1.0000      -0.470274       -12.7968 
  46   1.0000      -0.460301       -12.5254 
  47   1.0000      -0.430831       -11.7235 
  48   1.0000      -0.428361       -11.6563 
  49   1.0000      -0.426707       -11.6113 
  50   1.0000      -0.420128       -11.4323 
  51   1.0000      -0.419763       -11.4223 
  52   1.0000      -0.412296       -11.2191 
  53   1.0000      -0.401854       -10.9350 
  54   1.0000      -0.392155       -10.6711 
  55   1.0000      -0.388839       -10.5809 
  56   1.0000      -0.373889       -10.1740 
  57   1.0000      -0.373152       -10.1540 
  58   1.0000      -0.363068        -9.8796 
  59   1.0000      -0.359320        -9.7776 
  60   1.0000      -0.354008        -9.6330 
  61   1.0000      -0.342303        -9.3145 
  62   1.0000      -0.341447        -9.2913 
  63   1.0000      -0.330203        -8.9853 
  64   1.0000      -0.329450        -8.9648 
  65   1.0000      -0.326424        -8.8825 
  66   1.0000      -0.323235        -8.7957 
  67   1.0000      -0.323174        -8.7940 
  68   1.0000      -0.320265        -8.7149 
  69   1.0000      -0.318421        -8.6647 
  70   1.0000      -0.316398        -8.6096 
  71   1.0000      -0.281124        -7.6498 
  72   1.0000      -0.278188        -7.5699 
  73   1.0000      -0.276985        -7.5371 
  74   1.0000      -0.246803        -6.7158 
  75   1.0000      -0.220901        -6.0110 
  76   1.0000      -0.198985        -5.4147 
  77   0.0000      -0.053617        -1.4590 
  78   0.0000      -0.005571        -0.1516 
  79   0.0000       0.018596         0.5060 
  80   0.0000       0.021244         0.5781 
  81   0.0000       0.023923         0.6510 
  82   0.0000       0.029329         0.7981 
  83   0.0000       0.032284         0.8785 
  84   0.0000       0.037220         1.0128 
  85   0.0000       0.038616         1.0508 
  86   0.0000       0.042094         1.1454 
  87   0.0000       0.043318         1.1787 
  88   0.0000       0.044078         1.1994 
  89   0.0000       0.045206         1.2301 
  90   0.0000       0.051820         1.4101 
  91   0.0000       0.058909         1.6030 
  92   0.0000       0.071544         1.9468 
  93   0.0000       0.081574         2.2197 
  94   0.0000       0.089472         2.4347 
  95   0.0000       0.095867         2.6087 
  96   0.0000       0.105281         2.8649 
  97   0.0000       0.107815         2.9338 
  98   0.0000       0.116032         3.1574 
  99   0.0000       0.126121         3.4319 
 100   0.0000       0.147551         4.0151 
 101   0.0000       0.151658         4.1268 
 102   0.0000       0.153396         4.1741 
 103   0.0000       0.155623         4.2347 
 104   0.0000       0.159238         4.3331 
 105   0.0000       0.165256         4.4968 
 106   0.0000       0.166961         4.5432 
 107   0.0000       0.176992         4.8162 
 108   0.0000       0.182574         4.9681 
 109   0.0000       0.186028         5.0621 
 110   0.0000       0.191640         5.2148 
 111   0.0000       0.192956         5.2506 
 112   0.0000       0.193225         5.2579 
 113   0.0000       0.198267         5.3951 
 114   0.0000       0.200265         5.4495 
 115   0.0000       0.206045         5.6068 
 116   0.0000       0.213436         5.8079 
 117   0.0000       0.214696         5.8422 
 118   0.0000       0.215785         5.8718 
 119   0.0000       0.220386         5.9970 
 120   0.0000       0.222192         6.0462 
 121   0.0000       0.225492         6.1360 
 122   0.0000       0.231657         6.3037 
 123   0.0000       0.237666         6.4672 
 124   0.0000       0.247920         6.7462 
 125   0.0000       0.248839         6.7712 
 126   0.0000       0.250944         6.8285 
 127   0.0000       0.253124         6.8879 
 128   0.0000       0.256819         6.9884 
 129   0.0000       0.261535         7.1167 
 130   0.0000       0.264089         7.1862 
 131   0.0000       0.271694         7.3932 
 132   0.0000       0.277737         7.5576 
 133   0.0000       0.279360         7.6018 
 134   0.0000       0.279431         7.6037 
 135   0.0000       0.285297         7.7633 
 136   0.0000       0.290227         7.8975 
 137   0.0000       0.291594         7.9347 
 138   0.0000       0.295002         8.0274 
 139   0.0000       0.299026         8.1369 
 140   0.0000       0.301073         8.1926 
 141   0.0000       0.307224         8.3600 
 142   0.0000       0.308798         8.4028 
 143   0.0000       0.310719         8.4551 
 144   0.0000       0.314861         8.5678 
 145   0.0000       0.317494         8.6395 
 146   0.0000       0.319544         8.6952 
 147   0.0000       0.320982         8.7344 
 148   0.0000       0.325595         8.8599 
 149   0.0000       0.328644         8.9429 
 150   0.0000       0.332158         9.0385 
 151   0.0000       0.341303         9.2873 
 152   0.0000       0.346668         9.4333 
 153   0.0000       0.350363         9.5339 
 154   0.0000       0.353293         9.6136 
 155   0.0000       0.359800         9.7906 
 156   0.0000       0.363872         9.9015 
 157   0.0000       0.367427         9.9982 
 158   0.0000       0.370253        10.0751 
 159   0.0000       0.376176        10.2363 
 160   0.0000       0.376644        10.2490 
 161   0.0000       0.385724        10.4961 
 162   0.0000       0.394872        10.7450 
 163   0.0000       0.401940        10.9374 
 164   0.0000       0.404043        10.9946 
 165   0.0000       0.405392        11.0313 
 166   0.0000       0.409747        11.1498 
 167   0.0000       0.417653        11.3649 
 168   0.0000       0.418014        11.3747 
 169   0.0000       0.425851        11.5880 
 170   0.0000       0.429171        11.6783 
 171   0.0000       0.429457        11.6861 
 172   0.0000       0.441760        12.0209 
 173   0.0000       0.443839        12.0775 
 174   0.0000       0.451981        12.2990 
 175   0.0000       0.456811        12.4305 
 176   0.0000       0.460387        12.5278 
 177   0.0000       0.463351        12.6084 
 178   0.0000       0.471132        12.8202 
 179   0.0000       0.474300        12.9064 
 180   0.0000       0.475915        12.9503 
 181   0.0000       0.482753        13.1364 
 182   0.0000       0.500398        13.6165 
 183   0.0000       0.504347        13.7240 
 184   0.0000       0.509162        13.8550 
 185   0.0000       0.513769        13.9804 
 186   0.0000       0.517413        14.0795 
 187   0.0000       0.519746        14.1430 
 188   0.0000       0.536592        14.6014 
 189   0.0000       0.537960        14.6386 
 190   0.0000       0.540397        14.7049 
 191   0.0000       0.542681        14.7671 
 192   0.0000       0.550261        14.9734 
 193   0.0000       0.552597        15.0369 
 194   0.0000       0.568875        15.4799 
 195   0.0000       0.581531        15.8243 
 196   0.0000       0.582792        15.8586 
 197   0.0000       0.583471        15.8771 
 198   0.0000       0.588320        16.0090 
 199   0.0000       0.595865        16.2143 
 200   0.0000       0.605918        16.4879 
 201   0.0000       0.610915        16.6238 
 202   0.0000       0.618929        16.8419 
 203   0.0000       0.636813        17.3286 
 204   0.0000       0.654470        17.8090 
 205   0.0000       0.660716        17.9790 
 206   0.0000       0.673685        18.3319 
 207   0.0000       0.683646        18.6029 
 208   0.0000       0.711468        19.3600 
 209   0.0000       0.725750        19.7487 
 210   0.0000       0.742840        20.2137 
 211   0.0000       0.771953        21.0059 
 212   0.0000       0.774808        21.0836 
 213   0.0000       0.796015        21.6607 
 214   0.0000       0.800211        21.7748 
 215   0.0000       0.810959        22.0673 
 216   0.0000       0.830098        22.5881 
 217   0.0000       0.836311        22.7572 
 218   0.0000       0.845525        23.0079 
 219   0.0000       0.845961        23.0198 
 220   0.0000       0.851731        23.1768 
 221   0.0000       0.861836        23.4518 
 222   0.0000       0.862799        23.4780 
 223   0.0000       0.866352        23.5746 
 224   0.0000       0.879075        23.9208 
 225   0.0000       0.882037        24.0014 
 226   0.0000       0.888490        24.1770 
 227   0.0000       0.900722        24.5099 
 228   0.0000       0.900799        24.5120 
 229   0.0000       0.908221        24.7140 
 230   0.0000       0.918174        24.9848 
 231   0.0000       0.920639        25.0519 
 232   0.0000       0.921788        25.0831 
 233   0.0000       0.924537        25.1579 
 234   0.0000       0.925004        25.1706 
 235   0.0000       0.927624        25.2419 
 236   0.0000       0.937970        25.5235 
 237   0.0000       0.944853        25.7108 
 238   0.0000       0.945124        25.7181 
 239   0.0000       0.966194        26.2915 
 240   0.0000       0.967936        26.3389 
 241   0.0000       0.971622        26.4392 
 242   0.0000       0.972943        26.4751 
 243   0.0000       0.979663        26.6580 
 244   0.0000       0.987033        26.8585 
 245   0.0000       0.990821        26.9616 
 246   0.0000       0.991365        26.9764 
 247   0.0000       0.996969        27.1289 
 248   0.0000       1.000936        27.2369 
 249   0.0000       1.012082        27.5401 
 250   0.0000       1.014167        27.5969 
 251   0.0000       1.029946        28.0262 
 252   0.0000       1.031201        28.0604 
 253   0.0000       1.032660        28.1001 
 254   0.0000       1.033564        28.1247 
 255   0.0000       1.039313        28.2811 
 256   0.0000       1.045604        28.4523 
 257   0.0000       1.049608        28.5613 
 258   0.0000       1.059048        28.8182 
 259   0.0000       1.068565        29.0771 
 260   0.0000       1.080996        29.4154 
 261   0.0000       1.092881        29.7388 
 262   0.0000       1.104528        30.0557 
 263   0.0000       1.105723        30.0883 
 264   0.0000       1.107310        30.1314 
 265   0.0000       1.113960        30.3124 
 266   0.0000       1.132195        30.8086 
 267   0.0000       1.141505        31.0619 
 268   0.0000       1.151879        31.3442 
 269   0.0000       1.152537        31.3621 
 270   0.0000       1.157271        31.4909 
 271   0.0000       1.160672        31.5835 
 272   0.0000       1.176457        32.0130 
 273   0.0000       1.186063        32.2744 
 274   0.0000       1.190288        32.3894 
 275   0.0000       1.190538        32.3962 
 276   0.0000       1.201867        32.7045 
 277   0.0000       1.205973        32.8162 
 278   0.0000       1.210416        32.9371 
 279   0.0000       1.212966        33.0065 
 280   0.0000       1.223876        33.3034 
 281   0.0000       1.233091        33.5541 
 282   0.0000       1.236567        33.6487 
 283   0.0000       1.244559        33.8662 
 284   0.0000       1.245996        33.9053 
 285   0.0000       1.256208        34.1831 
 286   0.0000       1.267836        34.4996 
 287   0.0000       1.278600        34.7925 
 288   0.0000       1.294009        35.2118 
 289   0.0000       1.295821        35.2611 
 290   0.0000       1.304954        35.5096 
 291   0.0000       1.308794        35.6141 
 292   0.0000       1.314215        35.7616 
 293   0.0000       1.342936        36.5431 
 294   0.0000       1.350878        36.7593 
 295   0.0000       1.355845        36.8944 
 296   0.0000       1.368871        37.2489 
 297   0.0000       1.378010        37.4976 
 298   0.0000       1.380598        37.5680 
 299   0.0000       1.385331        37.6968 
 300   0.0000       1.391977        37.8776 
 301   0.0000       1.395974        37.9864 
 302   0.0000       1.402258        38.1574 
 303   0.0000       1.410478        38.3811 
 304   0.0000       1.414192        38.4821 
 305   0.0000       1.427249        38.8374 
 306   0.0000       1.439309        39.1656 
 307   0.0000       1.445119        39.3237 
 308   0.0000       1.448818        39.4243 
 309   0.0000       1.453531        39.5526 
 310   0.0000       1.466061        39.8935 
 311   0.0000       1.489139        40.5215 
 312   0.0000       1.498652        40.7804 
 313   0.0000       1.503207        40.9043 
 314   0.0000       1.505407        40.9642 
 315   0.0000       1.518248        41.3136 
 316   0.0000       1.525254        41.5043 
 317   0.0000       1.526416        41.5359 
 318   0.0000       1.529095        41.6088 
 319   0.0000       1.551369        42.2149 
 320   0.0000       1.557793        42.3897 
 321   0.0000       1.560021        42.4503 
 322   0.0000       1.578887        42.9637 
 323   0.0000       1.580133        42.9976 
 324   0.0000       1.583430        43.0873 
 325   0.0000       1.586668        43.1754 
 326   0.0000       1.597005        43.4567 
 327   0.0000       1.598790        43.5053 
 328   0.0000       1.603699        43.6389 
 329   0.0000       1.609442        43.7951 
 330   0.0000       1.611924        43.8627 
 331   0.0000       1.613257        43.8989 
 332   0.0000       1.624948        44.2171 
 333   0.0000       1.627140        44.2767 
 334   0.0000       1.639451        44.6117 
 335   0.0000       1.639751        44.6199 
 336   0.0000       1.653855        45.0037 
 337   0.0000       1.660100        45.1736 
 338   0.0000       1.676728        45.6261 
 339   0.0000       1.680417        45.7265 
 340   0.0000       1.686909        45.9031 
 341   0.0000       1.694433        46.1079 
 342   0.0000       1.700760        46.2800 
 343   0.0000       1.705899        46.4199 
 344   0.0000       1.710438        46.5434 
 345   0.0000       1.721833        46.8535 
 346   0.0000       1.723745        46.9055 
 347   0.0000       1.727732        47.0140 
 348   0.0000       1.735190        47.2169 
 349   0.0000       1.740634        47.3651 
 350   0.0000       1.751782        47.6684 
 351   0.0000       1.755052        47.7574 
 352   0.0000       1.760954        47.9180 
 353   0.0000       1.762604        47.9629 
 354   0.0000       1.774272        48.2804 
 355   0.0000       1.778755        48.4024 
 356   0.0000       1.783320        48.5266 
 357   0.0000       1.791992        48.7626 
 358   0.0000       1.795261        48.8515 
 359   0.0000       1.798740        48.9462 
 360   0.0000       1.806358        49.1535 
 361   0.0000       1.811799        49.3016 
 362   0.0000       1.827876        49.7390 
 363   0.0000       1.828666        49.7605 
 364   0.0000       1.840986        50.0958 
 365   0.0000       1.868183        50.8359 
 366   0.0000       1.872084        50.9420 
 367   0.0000       1.898538        51.6618 
 368   0.0000       1.907883        51.9161 
 369   0.0000       1.914412        52.0938 
 370   0.0000       1.917925        52.1894 
 371   0.0000       1.930543        52.5328 
 372   0.0000       1.933145        52.6036 
 373   0.0000       1.946522        52.9676 
 374   0.0000       1.959867        53.3307 
 375   0.0000       1.969809        53.6012 
 376   0.0000       1.988799        54.1180 
 377   0.0000       1.996637        54.3313 
 378   0.0000       2.006915        54.6109 
 379   0.0000       2.040458        55.5237 
 380   0.0000       2.058628        56.0181 
 381   0.0000       2.065823        56.2139 
 382   0.0000       2.068981        56.2998 
 383   0.0000       2.076140        56.4946 
 384   0.0000       2.098010        57.0897 
 385   0.0000       2.111576        57.4589 
 386   0.0000       2.126622        57.8683 
 387   0.0000       2.146061        58.3973 
 388   0.0000       2.156034        58.6687 
 389   0.0000       2.158044        58.7234 
 390   0.0000       2.163458        58.8707 
 391   0.0000       2.190881        59.6169 
 392   0.0000       2.202871        59.9432 
 393   0.0000       2.211696        60.1833 
 394   0.0000       2.226364        60.5824 
 395   0.0000       2.232966        60.7621 
 396   0.0000       2.240733        60.9734 
 397   0.0000       2.251137        61.2566 
 398   0.0000       2.254227        61.3406 
 399   0.0000       2.262629        61.5693 
 400   0.0000       2.268930        61.7407 
 401   0.0000       2.288157        62.2639 
 402   0.0000       2.299796        62.5806 
 403   0.0000       2.307000        62.7767 
 404   0.0000       2.311234        62.8919 
 405   0.0000       2.312114        62.9158 
 406   0.0000       2.323361        63.2219 
 407   0.0000       2.331721        63.4493 
 408   0.0000       2.332594        63.4731 
 409   0.0000       2.352278        64.0087 
 410   0.0000       2.355753        64.1033 
 411   0.0000       2.368995        64.4636 
 412   0.0000       2.375257        64.6340 
 413   0.0000       2.399446        65.2922 
 414   0.0000       2.411204        65.6122 
 415   0.0000       2.430448        66.1359 
 416   0.0000       2.432178        66.1829 
 417   0.0000       2.437807        66.3361 
 418   0.0000       2.447408        66.5973 
 419   0.0000       2.457658        66.8763 
 420   0.0000       2.458254        66.8925 
 421   0.0000       2.475544        67.3630 
 422   0.0000       2.478873        67.4536 
 423   0.0000       2.487828        67.6972 
 424   0.0000       2.494884        67.8892 
 425   0.0000       2.501972        68.0821 
 426   0.0000       2.515737        68.4567 
 427   0.0000       2.522400        68.6380 
 428   0.0000       2.532809        68.9212 
 429   0.0000       2.534047        68.9549 
 430   0.0000       2.557066        69.5813 
 431   0.0000       2.564562        69.7853 
 432   0.0000       2.570264        69.9404 
 433   0.0000       2.576112        70.0996 
 434   0.0000       2.600420        70.7610 
 435   0.0000       2.609369        71.0045 
 436   0.0000       2.615775        71.1788 
 437   0.0000       2.623371        71.3856 
 438   0.0000       2.630037        71.5669 
 439   0.0000       2.654838        72.2418 
 440   0.0000       2.696607        73.3784 
 441   0.0000       2.713505        73.8382 
 442   0.0000       2.769214        75.3541 
 443   0.0000       2.784996        75.7836 
 444   0.0000       2.816994        76.6543 
 445   0.0000       2.867506        78.0288 
 446   0.0000       2.945821        80.1599 
 447   0.0000       2.962580        80.6159 
 448   0.0000       2.967305        80.7445 
 449   0.0000       3.274155        89.0943 
 450   0.0000       4.985132       135.6523 
 451   0.0000       4.993147       135.8704 
 452   0.0000       5.003840       136.1614 
 453   0.0000       5.009913       136.3267 
 454   0.0000       5.011905       136.3809 
 455   0.0000       5.017145       136.5235 
 456   0.0000       5.022981       136.6823 
 457   0.0000       5.028075       136.8209 
 458   0.0000       5.034823       137.0045 
 459   0.0000       5.047483       137.3490 
 460   0.0000       5.053743       137.5193 
 461   0.0000       5.055714       137.5730 
 462   0.0000       5.072740       138.0363 
 463   0.0000       5.150641       140.1561 
 464   0.0000       5.203112       141.5839 
 465   0.0000       5.221024       142.0713 
 466   0.0000       5.228660       142.2791 
 467   0.0000       5.232627       142.3870 
 468   0.0000       5.256221       143.0291 
 469   0.0000       5.264392       143.2514 
 470   0.0000       5.281688       143.7220 
 471   0.0000       5.302147       144.2788 
 472   0.0000       5.303732       144.3219 
 473   0.0000       5.307926       144.4360 
 474   0.0000       5.331778       145.0850 
 475   0.0000       5.336027       145.2007 
 476   0.0000       5.365441       146.0011 
 477   0.0000       5.381110       146.4274 
 478   0.0000       5.395350       146.8149 
 479   0.0000       5.405446       147.0897 
 480   0.0000       5.443400       148.1224 
 481   0.0000       5.448142       148.2515 
 482   0.0000       5.510574       149.9503 
 483   0.0000       5.559897       151.2925 
 484   0.0000       5.584740       151.9685 
 485   0.0000       5.610262       152.6630 
 486   0.0000       5.626203       153.0968 
 487   0.0000       5.652070       153.8006 
 488   0.0000       5.714624       155.5028 
 489   0.0000       5.729752       155.9145 
 490   0.0000       5.761884       156.7888 
 491   0.0000       5.806764       158.0101 
 492   0.0000       5.828313       158.5965 
 493   0.0000       5.865449       159.6070 
 494   0.0000       5.905163       160.6877 
 495   0.0000       6.021129       163.8433 
 496   0.0000       6.246582       169.9781 
 497   0.0000       6.361286       173.0994 
 498   0.0000      29.619492       805.9874 
 499   0.0000      29.720635       808.7396 
 500   0.0000      29.812919       811.2508 
 501   0.0000      29.846427       812.1626 
 502   0.0000      29.858977       812.5041 
 503   0.0000      29.929995       814.4366 
 504   0.0000      29.981722       815.8441 
 505   0.0000      30.014053       816.7239 
 506   0.0000      30.056746       817.8856 
 507   0.0000      30.095191       818.9318 
 508   0.0000      30.098859       819.0316 
 509   0.0000      30.121834       819.6568 
 510   0.0000      30.154755       820.5526 
 511   0.0000      30.192043       821.5672 
 512   0.0000      30.208047       822.0027 
 513   0.0000      30.250881       823.1683 
 514   0.0000      30.276013       823.8522 
 515   0.0000      30.313966       824.8850 
 516   0.0000      30.341094       825.6231 
 517   0.0000      30.454613       828.7122 
 518   0.0000      30.585776       832.2813 
 519   0.0000      36.613281       996.2980 
 520   0.0000      36.620466       996.4936 
 521   0.0000      36.629877       996.7496 
 522   0.0000      36.631824       996.8026 
 523   0.0000      36.637565       996.9588 
 524   0.0000      36.641805       997.0742 
 525   0.0000      36.647871       997.2393 
 526   0.0000      36.661433       997.6083 
 527   0.0000      36.672639       997.9132 
 528   0.0000      36.679921       998.1114 
 529   0.0000      36.684501       998.2360 
 530   0.0000      36.699366       998.6405 
 531   0.0000      36.781703      1000.8810 
 532   0.0000      36.818882      1001.8927 
 533   0.0000      36.839359      1002.4499 
 534   0.0000      36.855523      1002.8898 
 535   0.0000      36.864948      1003.1462 
 536   0.0000      36.869143      1003.2604 
 537   0.0000      36.873883      1003.3894 
 538   0.0000      36.882624      1003.6272 
 539   0.0000      36.885943      1003.7175 
 540   0.0000      36.921042      1004.6726 
 541   0.0000      36.934114      1005.0283 
 542   0.0000      36.947415      1005.3903 
 543   0.0000      36.961582      1005.7758 
 544   0.0000      36.998776      1006.7879 
 545   0.0000      37.025379      1007.5118 

                 SPIN DOWN ORBITALS
  NO   OCC          E(Eh)            E(eV) 
   0   1.0000     -10.223302      -278.1902 
   1   1.0000     -10.223290      -278.1899 
   2   1.0000     -10.211520      -277.8696 
   3   1.0000     -10.211481      -277.8685 
   4   1.0000     -10.206314      -277.7279 
   5   1.0000     -10.206307      -277.7277 
   6   1.0000     -10.199865      -277.5524 
   7   1.0000     -10.199818      -277.5512 
   8   1.0000     -10.198137      -277.5054 
   9   1.0000     -10.198125      -277.5051 
  10   1.0000     -10.188585      -277.2455 
  11   1.0000     -10.188294      -277.2376 
  12   1.0000     -10.186725      -277.1949 
  13   1.0000     -10.183437      -277.1054 
  14   1.0000     -10.182878      -277.0902 
  15   1.0000     -10.182497      -277.0798 
  16   1.0000     -10.181049      -277.0404 
  17   1.0000     -10.180860      -277.0353 
  18   1.0000     -10.180030      -277.0127 
  19   1.0000     -10.175122      -276.8791 
  20   1.0000     -10.173290      -276.8293 
  21   1.0000      -0.874848       -23.8058 
  22   1.0000      -0.818292       -22.2668 
  23   1.0000      -0.802936       -21.8490 
  24   1.0000      -0.794913       -21.6307 
  25   1.0000      -0.781149       -21.2562 
  26   1.0000      -0.759143       -20.6573 
  27   1.0000      -0.753296       -20.4982 
  28   1.0000      -0.728338       -19.8191 
  29   1.0000      -0.722104       -19.6495 
  30   1.0000      -0.701585       -19.0911 
  31   1.0000      -0.664152       -18.0725 
  32   1.0000      -0.641655       -17.4603 
  33   1.0000      -0.633087       -17.2272 
  34   1.0000      -0.605781       -16.4841 
  35   1.0000      -0.586114       -15.9490 
  36   1.0000      -0.575401       -15.6575 
  37   1.0000      -0.565923       -15.3996 
  38   1.0000      -0.559293       -15.2191 
  39   1.0000      -0.543696       -14.7947 
  40   1.0000      -0.526646       -14.3308 
  41   1.0000      -0.499808       -13.6005 
  42   1.0000      -0.485542       -13.2123 
  43   1.0000      -0.480035       -13.0624 
  44   1.0000      -0.475797       -12.9471 
  45   1.0000      -0.470267       -12.7966 
  46   1.0000      -0.458040       -12.4639 
  47   1.0000      -0.430683       -11.7195 
  48   1.0000      -0.425957       -11.5909 
  49   1.0000      -0.425847       -11.5879 
  50   1.0000      -0.419287       -11.4094 
  51   1.0000      -0.418969       -11.4007 
  52   1.0000      -0.410118       -11.1599 
  53   1.0000      -0.398926       -10.8553 
  54   1.0000      -0.390230       -10.6187 
  55   1.0000      -0.386114       -10.5067 
  56   1.0000      -0.372142       -10.1265 
  57   1.0000      -0.371067       -10.0973 
  58   1.0000      -0.360999        -9.8233 
  59   1.0000      -0.358758        -9.7623 
  60   1.0000      -0.353212        -9.6114 
  61   1.0000      -0.340671        -9.2701 
  62   1.0000      -0.339974        -9.2512 
  63   1.0000      -0.329812        -8.9746 
  64   1.0000      -0.328952        -8.9513 
  65   1.0000      -0.325918        -8.8687 
  66   1.0000      -0.322737        -8.7821 
  67   1.0000      -0.322625        -8.7791 
  68   1.0000      -0.320086        -8.7100 
  69   1.0000      -0.317961        -8.6522 
  70   1.0000      -0.312513        -8.5039 
  71   1.0000      -0.281124        -7.6498 
  72   1.0000      -0.278188        -7.5699 
  73   1.0000      -0.276969        -7.5367 
  74   1.0000      -0.246802        -6.7158 
  75   1.0000      -0.220900        -6.0110 
  76   0.0000      -0.053617        -1.4590 
  77   0.0000      -0.051335        -1.3969 
  78   0.0000      -0.005570        -0.1516 
  79   0.0000       0.018610         0.5064 
  80   0.0000       0.021267         0.5787 
  81   0.0000       0.024084         0.6554 
  82   0.0000       0.029476         0.8021 
  83   0.0000       0.033729         0.9178 
  84   0.0000       0.037315         1.0154 
  85   0.0000       0.039276         1.0688 
  86   0.0000       0.042464         1.1555 
  87   0.0000       0.043318         1.1787 
  88   0.0000       0.044672         1.2156 
  89   0.0000       0.045311         1.2330 
  90   0.0000       0.053274         1.4497 
  91   0.0000       0.059911         1.6303 
  92   0.0000       0.072059         1.9608 
  93   0.0000       0.082443         2.2434 
  94   0.0000       0.089637         2.4391 
  95   0.0000       0.096530         2.6267 
  96   0.0000       0.105282         2.8649 
  97   0.0000       0.107832         2.9343 
  98   0.0000       0.117032         3.1846 
  99   0.0000       0.126402         3.4396 
 100   0.0000       0.147773         4.0211 
 101   0.0000       0.151929         4.1342 
 102   0.0000       0.153465         4.1760 
 103   0.0000       0.155839         4.2406 
 104   0.0000       0.160503         4.3675 
 105   0.0000       0.167447         4.5565 
 106   0.0000       0.170512         4.6399 
 107   0.0000       0.178256         4.8506 
 108   0.0000       0.183077         4.9818 
 109   0.0000       0.186535         5.0759 
 110   0.0000       0.192810         5.2466 
 111   0.0000       0.193624         5.2688 
 112   0.0000       0.194084         5.2813 
 113   0.0000       0.198305         5.3962 
 114   0.0000       0.201059         5.4711 
 115   0.0000       0.206345         5.6149 
 116   0.0000       0.214109         5.8262 
 117   0.0000       0.215087         5.8528 
 118   0.0000       0.215842         5.8734 
 119   0.0000       0.220528         6.0009 
 120   0.0000       0.222754         6.0614 
 121   0.0000       0.225980         6.1492 
[...]
  Z           0.8510100           -0.0553888           -0.5222202

Notes:  (1) The A matrix conforms to the "SAI" spin Hamiltonian convention.
        (2) Tensor is right-handed.

 -----------------------------------------------------------
 Nucleus  45H : A:ISTP=    1 I=  0.5 P=533.5514 MHz/au**3
                Q:ISTP=    2 I=  1.0 Q=  0.0029 barn     
 -----------------------------------------------------------
 Solving for nuclear perturbation:
Forming RHS of the CP-SCF equations         ... 
Calc. nucleus orbit integrals (SHARK)       ... done

------------------------------------------------------------------------------
                           ORCA CP-SCF CALCULATION
------------------------------------------------------------------------------

Input orbitals are from        ... EPRII.gbw
Input Perturbation             ... EPRII.pin.tmp
Wavefunction output            ... EPRII.pout.tmp
Perturbation mode              ... Imaginary perturbation
Solver                         ... POPLE
Max. number of iterations      ... 64
Convergence tolerance          ... 1.000e-03
Integral handling              ... Direct
DFT GridXC                     ... 1
COSX GridX                     ... 1
COSX IntAccX                   ... 3.067
COSX Algorithm                 ... Auto
Number of perturbations        ... 3
Number of operators            ... 2
Orbital ranges used for CP-SCF:
 Operator 0:  Orbitals   0... 76  to  77...545
 Operator 1:  Orbitals   0... 75  to  76...545
Variables per perturbation     ... 71833
DFT calculation                         ... on
XC functional terms                     ... off
Hybrid DFT                              ... on
   Exchange mixing (SCF)                ...  0.200
   Exchange mixing (CP-SCF)             ...  0.200
   GGA exch. scaling(SCF)               ...  0.720
   GGA exch. scaling (CP-SCF)           ...  0.720
   GGA corr. scaling (SCF)              ...  0.810
   GGA corr. scaling (CP-SCF)           ...  0.810

CP-SCF GRID
-----------

General Integration Accuracy     IntAcc      ... 3.467
Radial Grid Type                 RadialGrid  ... OptM3 with GC (2021)
Angular Grid (max. ang.)         AngularGrid ... 1 (Lebedev-50)
Angular grid pruning method      GridPruning ... 4 (adaptive)
Weight generation scheme         WeightScheme... Becke
Basis function cutoff            BFCut       ... 1.0000e-10
Integration weight cutoff        WCut        ... 1.0000e-14
Angular grids for H and He will be reduced by one unit
Partially contracted basis set               ... off
Rotationally invariant grid construction     ... off

Total number of grid points                  ...    29724
Total number of batches                      ...      486
Average number of points per batch           ...       61
Average number of grid points per atom       ...      619

CP-SCF GRIDX
------------

General Integration Accuracy     IntAcc      ... 3.067
Radial Grid Type                 RadialGrid  ... OptM3 with GC (2021)
Angular Grid (max. ang.)         AngularGrid ... 1 (Lebedev-50)
Angular grid pruning method      GridPruning ... 4 (adaptive)
Weight generation scheme         WeightScheme... Becke
Basis function cutoff            BFCut       ... 1.0000e-10
Integration weight cutoff        WCut        ... 1.0000e-14
Angular grids for H and He will be reduced by one unit
Partially contracted basis set               ... on
Rotationally invariant grid construction     ... off

Total number of grid points                  ...    14089
Total number of batches                      ...      249
Average number of points per batch           ...       56
Average number of grid points per atom       ...      294

Memory available               ... 863.8 MB
Memory needed per perturbation ...  17.4 MB
Perturbations treated per batch... 3
Number of batches              ... 1
     CP-SCF ITERATION   0:   1.0125e-01 (   1.9 sec   0/  3 done)
     CP-SCF ITERATION   1:   1.6997e-03 (   1.8 sec   2/  3 done)
     CP-SCF ITERATION   2:   8.6306e-05 (   1.5 sec   3/  3 done)
                    *** THE CP-SCF HAS CONVERGED ***

Forming final perturbed densities           ... done
Transforming perturbed density to AO basis  ... done

 Raw HFC matrix (all values in MHz): 
 -----------------------------------
                 0.0005               0.0649               0.0012
                 0.0649               0.0459               0.0018
                 0.0012               0.0018              -0.0464

 A(FC)          -0.0000              -0.0000              -0.0000
 A(SD)          -0.0455              -0.0464               0.0919
 A(ORB+DIA)      0.0000               0.0000               0.0000    A(PC) =   0.0000
 A(ORB)         -0.0000              -0.0000               0.0000    A(PC) =  -0.0000
 A(DIA)          0.0000               0.0000               0.0000    A(PC) =   0.0000
             ----------           ----------           ----------
 A(Tot)         -0.0455              -0.0464               0.0920    A(iso)=    0.0000
 Orientation: 
  X           0.8155144            0.0071356            0.5786928
  Y          -0.5787322            0.0140707            0.8153963
  Z          -0.0023243           -0.9998755            0.0156044

Notes:  (1) The A matrix conforms to the "SAI" spin Hamiltonian convention.
        (2) Tensor is right-handed.

 -----------------------------------------------------------
 Nucleus  46H : A:ISTP=    1 I=  0.5 P=533.5514 MHz/au**3
                Q:ISTP=    2 I=  1.0 Q=  0.0029 barn     
 -----------------------------------------------------------
 Solving for nuclear perturbation:
Forming RHS of the CP-SCF equations         ... 
Calc. nucleus orbit integrals (SHARK)       ... done

------------------------------------------------------------------------------
                           ORCA CP-SCF CALCULATION
------------------------------------------------------------------------------

Input orbitals are from        ... EPRII.gbw
Input Perturbation             ... EPRII.pin.tmp
Wavefunction output            ... EPRII.pout.tmp
Perturbation mode              ... Imaginary perturbation
Solver                         ... POPLE
Max. number of iterations      ... 64
Convergence tolerance          ... 1.000e-03
Integral handling              ... Direct
DFT GridXC                     ... 1
COSX GridX                     ... 1
COSX IntAccX                   ... 3.067
COSX Algorithm                 ... Auto
Number of perturbations        ... 3
Number of operators            ... 2
Orbital ranges used for CP-SCF:
 Operator 0:  Orbitals   0... 76  to  77...545
 Operator 1:  Orbitals   0... 75  to  76...545
Variables per perturbation     ... 71833
DFT calculation                         ... on
XC functional terms                     ... off
Hybrid DFT                              ... on
   Exchange mixing (SCF)                ...  0.200
   Exchange mixing (CP-SCF)             ...  0.200
   GGA exch. scaling(SCF)               ...  0.720
   GGA exch. scaling (CP-SCF)           ...  0.720
   GGA corr. scaling (SCF)              ...  0.810
   GGA corr. scaling (CP-SCF)           ...  0.810

CP-SCF GRID
-----------

General Integration Accuracy     IntAcc      ... 3.467
Radial Grid Type                 RadialGrid  ... OptM3 with GC (2021)
Angular Grid (max. ang.)         AngularGrid ... 1 (Lebedev-50)
Angular grid pruning method      GridPruning ... 4 (adaptive)
Weight generation scheme         WeightScheme... Becke
Basis function cutoff            BFCut       ... 1.0000e-10
Integration weight cutoff        WCut        ... 1.0000e-14
Angular grids for H and He will be reduced by one unit
Partially contracted basis set               ... off
Rotationally invariant grid construction     ... off

Total number of grid points                  ...    29724
Total number of batches                      ...      486
Average number of points per batch           ...       61
Average number of grid points per atom       ...      619

CP-SCF GRIDX
------------

General Integration Accuracy     IntAcc      ... 3.067
Radial Grid Type                 RadialGrid  ... OptM3 with GC (2021)
Angular Grid (max. ang.)         AngularGrid ... 1 (Lebedev-50)
Angular grid pruning method      GridPruning ... 4 (adaptive)
Weight generation scheme         WeightScheme... Becke
Basis function cutoff            BFCut       ... 1.0000e-10
Integration weight cutoff        WCut        ... 1.0000e-14
Angular grids for H and He will be reduced by one unit
Partially contracted basis set               ... on
Rotationally invariant grid construction     ... off

Total number of grid points                  ...    14089
Total number of batches                      ...      249
Average number of points per batch           ...       56
Average number of grid points per atom       ...      294

Memory available               ... 863.2 MB
Memory needed per perturbation ...  17.4 MB
Perturbations treated per batch... 3
Number of batches              ... 1
     CP-SCF ITERATION   0:   1.0125e-01 (   1.8 sec   0/  3 done)
     CP-SCF ITERATION   1:   1.7032e-03 (   1.8 sec   2/  3 done)
     CP-SCF ITERATION   2:   8.6370e-05 (   1.5 sec   3/  3 done)
                    *** THE CP-SCF HAS CONVERGED ***

Forming final perturbed densities           ... done
Transforming perturbed density to AO basis  ... done

 Raw HFC matrix (all values in MHz): 
 -----------------------------------
                -0.0439              -0.0586              -0.0009
                -0.0587               0.1098               0.0026
                -0.0009               0.0026              -0.0652

 A(FC)           0.0002               0.0002               0.0002
 A(SD)          -0.0640              -0.0654               0.1294
 A(ORB+DIA)      0.0000               0.0000               0.0000    A(PC) =   0.0000
 A(ORB)         -0.0000              -0.0000               0.0000    A(PC) =  -0.0000
 A(DIA)          0.0000               0.0000               0.0000    A(PC) =   0.0000
             ----------           ----------           ----------
 A(Tot)         -0.0637              -0.0652               0.1297    A(iso)=    0.0003
 Orientation: 
  X           0.9473292            0.0041217           -0.3202348
  Y           0.3201306            0.0163783            0.9472318
  Z           0.0091492           -0.9998574            0.0141962

Notes:  (1) The A matrix conforms to the "SAI" spin Hamiltonian convention.
        (2) Tensor is right-handed.

 -----------------------------------------------------------
 Nucleus  47H : A:ISTP=    1 I=  0.5 P=533.5514 MHz/au**3
                Q:ISTP=    2 I=  1.0 Q=  0.0029 barn     
 -----------------------------------------------------------
 Solving for nuclear perturbation:
Forming RHS of the CP-SCF equations         ... 
Calc. nucleus orbit integrals (SHARK)       ... done

------------------------------------------------------------------------------
                           ORCA CP-SCF CALCULATION
------------------------------------------------------------------------------

Input orbitals are from        ... EPRII.gbw
Input Perturbation             ... EPRII.pin.tmp
Wavefunction output            ... EPRII.pout.tmp
Perturbation mode              ... Imaginary perturbation
Solver                         ... POPLE
Max. number of iterations      ... 64
Convergence tolerance          ... 1.000e-03
Integral handling              ... Direct
DFT GridXC                     ... 1
COSX GridX                     ... 1
COSX IntAccX                   ... 3.067
COSX Algorithm                 ... Auto
Number of perturbations        ... 3
Number of operators            ... 2
Orbital ranges used for CP-SCF:
 Operator 0:  Orbitals   0... 76  to  77...545
 Operator 1:  Orbitals   0... 75  to  76...545
Variables per perturbation     ... 71833
DFT calculation                         ... on
XC functional terms                     ... off
Hybrid DFT                              ... on
   Exchange mixing (SCF)                ...  0.200
   Exchange mixing (CP-SCF)             ...  0.200
   GGA exch. scaling(SCF)               ...  0.720
   GGA exch. scaling (CP-SCF)           ...  0.720
   GGA corr. scaling (SCF)              ...  0.810
   GGA corr. scaling (CP-SCF)           ...  0.810

CP-SCF GRID
-----------

General Integration Accuracy     IntAcc      ... 3.467
Radial Grid Type                 RadialGrid  ... OptM3 with GC (2021)
Angular Grid (max. ang.)         AngularGrid ... 1 (Lebedev-50)
Angular grid pruning method      GridPruning ... 4 (adaptive)
Weight generation scheme         WeightScheme... Becke
Basis function cutoff            BFCut       ... 1.0000e-10
Integration weight cutoff        WCut        ... 1.0000e-14
Angular grids for H and He will be reduced by one unit
Partially contracted basis set               ... off
Rotationally invariant grid construction     ... off

Total number of grid points                  ...    29724
Total number of batches                      ...      486
Average number of points per batch           ...       61
Average number of grid points per atom       ...      619

CP-SCF GRIDX
------------

General Integration Accuracy     IntAcc      ... 3.067
Radial Grid Type                 RadialGrid  ... OptM3 with GC (2021)
Angular Grid (max. ang.)         AngularGrid ... 1 (Lebedev-50)
Angular grid pruning method      GridPruning ... 4 (adaptive)
Weight generation scheme         WeightScheme... Becke
Basis function cutoff            BFCut       ... 1.0000e-10
Integration weight cutoff        WCut        ... 1.0000e-14
Angular grids for H and He will be reduced by one unit
Partially contracted basis set               ... on
Rotationally invariant grid construction     ... off

Total number of grid points                  ...    14089
Total number of batches                      ...      249
Average number of points per batch           ...       56
Average number of grid points per atom       ...      294

Memory available               ... 862.6 MB
Memory needed per perturbation ...  17.4 MB
Perturbations treated per batch... 3
Number of batches              ... 1
     CP-SCF ITERATION   0:   3.7080e-02 (   1.9 sec   0/  3 done)
     CP-SCF ITERATION   1:   6.1899e-04 (   1.8 sec   3/  3 done)
                    *** THE CP-SCF HAS CONVERGED ***

Forming final perturbed densities           ... done
Transforming perturbed density to AO basis  ... done

 Raw HFC matrix (all values in MHz): 
 -----------------------------------
                -0.0130               0.0081               0.0002
                 0.0081               0.0276               0.0008
                 0.0002               0.0008              -0.0146

 A(FC)           0.0000               0.0000               0.0000
 A(SD)          -0.0146              -0.0146               0.0292
 A(ORB+DIA)      0.0000               0.0000               0.0000    A(PC) =   0.0000
 A(ORB)         -0.0000              -0.0000               0.0000    A(PC) =  -0.0000
 A(DIA)          0.0000               0.0000               0.0000    A(PC) =   0.0000
             ----------           ----------           ----------
 A(Tot)         -0.0146              -0.0146               0.0292    A(iso)=    0.0000
 Orientation: 
  X           0.9820512            0.0106525            0.1883136
  Y          -0.1884739            0.0168629            0.9819334
  Z           0.0072845           -0.9998011            0.0185679

Notes:  (1) The A matrix conforms to the "SAI" spin Hamiltonian convention.
        (2) Tensor is right-handed.


--------------------------------------------------------------------------------
----------------------------------------------------------------------------
                           ORCA EULER ANGLE PROGRAM
----------------------------------------------------------------------------

Only g-tensor available        -->  using g-tensor as reference tensor

Reference tensor               ...  g

g-tensor ordering              ...  |g_min> --> |gx>
                                    |g_mid> --> |gy>
                                    |g_max> --> |gz>

A- and EFG-tensor ordering     ...  the axes |Ax>, |Qx>, |Ay>, etc. are assigned
                                    such that the Euler rotation is minimal. You
                                    can find the respective eigenvalues as Ax,
                                    EFGx, Ay, etc. in the tables below.
                                    The relation of |Ax>, |Ay>,  etc. to Amin, Amid, etc.
                                    (as printed in the ORCA EPR/NMR CALCULATION Output)
                                    is obtained in the detailed printout.

Euler rotation around          ...  z - y - z
   First rotation              -->  by alpha around z
   Second rotation             -->  by beta around y'
   Third rotation              -->  by gamma around z''
   Positive / Negative angle   -->  clockwise / counterclockwise rotation

Plot EFG-tensors                    (-)
Plot HFC-tensors                    (-)
Detailed Printout                   (-)

-------------------------------------------------------------------------
          Euler rotation of hyperfine tensor to g-tensor
-------------------------------------------------------------------------

-------------------------------------------------------------------
 Atom  |   Alpha    Beta    Gamma   |   Ax       Ay       Az 
       |          [degrees]         |           [MHz]         
-------------------------------------------------------------------
  9H     -179.2     31.6    179.3      -0.04    -0.04     0.10
 10H     -179.0     11.2    178.8      -0.13    -0.15     0.28
 12H     -161.1     16.6    164.9      -0.04    -0.04     0.07
 13H      163.8     16.5   -167.4      -0.04    -0.04     0.07
 15H     -167.0     26.6    170.8      -0.03    -0.03     0.06
 16H      169.1     26.5   -172.6      -0.03    -0.03     0.06
 18H      166.7     18.9   -171.1      -0.02    -0.02     0.04
 19H     -163.8     19.0    168.6      -0.02    -0.02     0.04
 21H      173.7     27.2   -174.1      -0.02    -0.02     0.03
 22H     -171.7     27.3    172.3      -0.02    -0.02     0.03
 24H     -156.2     40.4   -167.4      -0.19    -0.23     0.38
 25H      157.4     40.6    166.8      -0.19    -0.23     0.38
 27H      -98.5     18.7    138.0      -0.36    -0.49     0.56
 28H      100.3     18.2   -139.5      -0.36    -0.49     0.56
 30H      -16.6     46.3     43.3       1.56    -0.54    -0.31
 31H       15.9     45.8    -42.7       1.56    -0.54    -0.31
 33H       59.0     17.3    -99.3      -1.39    -2.28     1.70
 34H      -58.6     18.0     99.0      -1.39    -2.28     1.70
 36H       24.2     28.7    -60.8       3.27    -9.72    -6.30
 37H      -24.9     29.3     61.5       3.28    -9.72    -6.29
 39H      -95.8     26.1     66.2      29.54    29.14    43.19
 40H       95.1     25.4    -65.4      29.72    29.33    43.38
 42H       77.3     30.4    -82.3     -65.21   -24.91  -102.16
 43H      -77.5     31.1     82.6     -65.21   -24.91  -102.16
 45H      -10.4      1.4     10.4      -0.05    -0.05     0.09
 46H       -0.5     37.4      0.1       0.13    -0.07    -0.06
 47H     -178.7     23.1    178.8      -0.01    -0.01     0.03
-------------------------------------------------------------------


Maximum memory used throughout the entire EPRNMR-calculation: 246.8 MB

Timings for individual modules:

Sum of individual times         ...     4656.505 sec (=  77.608 min)
GTO integral calculation        ...        5.306 sec (=   0.088 min)   0.1 %
Spin-Orbit-Coupling Matrices    ...       12.224 sec (=   0.204 min)   0.3 %
SCF iterations                  ...       93.847 sec (=   1.564 min)   2.0 %
EPR/NMR calculation             ...     4545.129 sec (=  75.752 min)  97.6 %
                             ****ORCA TERMINATED NORMALLY****
TOTAL RUN TIME: 0 days 1 hours 17 minutes 40 seconds 736 msec
