
                                 *****************
                                 * O   R   C   A *
                                 *****************

                                            #,                                       
                                            ###                                      
                                            ####                                     
                                            #####                                    
                                            ######                                   
                                           ########,                                 
                                     ,,################,,,,,                         
                               ,,#################################,,                 
                          ,,##########################################,,             
                       ,#########################################, ''#####,          
                    ,#############################################,,   '####,        
                  ,##################################################,,,,####,       
                ,###########''''           ''''###############################       
              ,#####''   ,,,,##########,,,,          '''####'''          '####       
            ,##' ,,,,###########################,,,                        '##       
           ' ,,###''''                  '''############,,,                           
         ,,##''                                '''############,,,,        ,,,,,,###''
      ,#''                                            '''#######################'''  
     '                                                          ''''####''''         
             ,#######,   #######,   ,#######,      ##                                
            ,#'     '#,  ##    ##  ,#'     '#,    #''#        ######   ,####,        
            ##       ##  ##   ,#'  ##            #'  '#       #        #'  '#        
            ##       ##  #######   ##           ,######,      #####,   #    #        
            '#,     ,#'  ##    ##  '#,     ,#' ,#      #,         ##   #,  ,#        
             '#######'   ##     ##  '#######'  #'      '#     #####' # '####'        



                  #######################################################
                  #                        -***-                        #
                  #          Department of theory and spectroscopy      #
                  #    Directorship and core code : Frank Neese         #
                  #        Max Planck Institute fuer Kohlenforschung    #
                  #                Kaiser Wilhelm Platz 1               #
                  #                 D-45470 Muelheim/Ruhr               #
                  #                      Germany                        #
                  #                                                     #
                  #                  All rights reserved                #
                  #                        -***-                        #
                  #######################################################


                         Program Version 5.0.4 -  RELEASE  -


 With contributions from (in alphabetic order):
   Daniel Aravena         : Magnetic Suceptibility
   Michael Atanasov       : Ab Initio Ligand Field Theory (pilot matlab implementation)
   Alexander A. Auer      : GIAO ZORA, VPT2 properties, NMR spectrum
   Ute Becker             : Parallelization
   Giovanni Bistoni       : ED, misc. LED, open-shell LED, HFLD
   Martin Brehm           : Molecular dynamics
   Dmytro Bykov           : SCF Hessian
   Vijay G. Chilkuri      : MRCI spin determinant printing, contributions to CSF-ICE
   Dipayan Datta          : RHF DLPNO-CCSD density
   Achintya Kumar Dutta   : EOM-CC, STEOM-CC
   Dmitry Ganyushin       : Spin-Orbit,Spin-Spin,Magnetic field MRCI
   Miquel Garcia          : C-PCM and meta-GGA Hessian, CC/C-PCM, Gaussian charge scheme
   Yang Guo               : DLPNO-NEVPT2, F12-NEVPT2, CIM, IAO-localization
   Andreas Hansen         : Spin unrestricted coupled pair/coupled cluster methods
   Benjamin Helmich-Paris : MC-RPA, TRAH-SCF, COSX integrals
   Lee Huntington         : MR-EOM, pCC
   Robert Izsak           : Overlap fitted RIJCOSX, COSX-SCS-MP3, EOM
   Marcus Kettner         : VPT2
   Christian Kollmar      : KDIIS, OOCD, Brueckner-CCSD(T), CCSD density, CASPT2, CASPT2-K
   Simone Kossmann        : Meta GGA functionals, TD-DFT gradient, OOMP2, MP2 Hessian
   Martin Krupicka        : Initial AUTO-CI
   Lucas Lang             : DCDCAS
   Marvin Lechner         : AUTO-CI (C++ implementation), FIC-MRCC
   Dagmar Lenk            : GEPOL surface, SMD
   Dimitrios Liakos       : Extrapolation schemes; Compound Job, initial MDCI parallelization
   Dimitrios Manganas     : Further ROCIS development; embedding schemes
   Dimitrios Pantazis     : SARC Basis sets
   Anastasios Papadopoulos: AUTO-CI, single reference methods and gradients
   Taras Petrenko         : DFT Hessian,TD-DFT gradient, ASA, ECA, R-Raman, ABS, FL, XAS/XES, NRVS
   Peter Pinski           : DLPNO-MP2, DLPNO-MP2 Gradient
   Christoph Reimann      : Effective Core Potentials
   Marius Retegan         : Local ZFS, SOC
   Christoph Riplinger    : Optimizer, TS searches, QM/MM, DLPNO-CCSD(T), (RO)-DLPNO pert. Triples
   Tobias Risthaus        : Range-separated hybrids, TD-DFT gradient, RPA, STAB
   Michael Roemelt        : Original ROCIS implementation
   Masaaki Saitow         : Open-shell DLPNO-CCSD energy and density
   Barbara Sandhoefer     : DKH picture change effects
   Avijit Sen             : IP-ROCIS
   Kantharuban Sivalingam : CASSCF convergence, NEVPT2, FIC-MRCI
   Bernardo de Souza      : ESD, SOC TD-DFT
   Georgi Stoychev        : AutoAux, RI-MP2 NMR, DLPNO-MP2 response
   Willem Van den Heuvel  : Paramagnetic NMR
   Boris Wezisla          : Elementary symmetry handling
   Frank Wennmohs         : Technical directorship


 We gratefully acknowledge several colleagues who have allowed us to
 interface, adapt or use parts of their codes:
   Stefan Grimme, W. Hujo, H. Kruse, P. Pracht,  : VdW corrections, initial TS optimization,
                  C. Bannwarth, S. Ehlert          DFT functionals, gCP, sTDA/sTD-DF
   Ed Valeev, F. Pavosevic, A. Kumar             : LibInt (2-el integral package), F12 methods
   Garnet Chan, S. Sharma, J. Yang, R. Olivares  : DMRG
   Ulf Ekstrom                                   : XCFun DFT Library
   Mihaly Kallay                                 : mrcc  (arbitrary order and MRCC methods)
   Jiri Pittner, Ondrej Demel                    : Mk-CCSD
   Frank Weinhold                                : gennbo (NPA and NBO analysis)
   Christopher J. Cramer and Donald G. Truhlar   : smd solvation model
   Lars Goerigk                                  : TD-DFT with DH, B97 family of functionals
   V. Asgeirsson, H. Jonsson                     : NEB implementation
   FAccTs GmbH                                   : IRC, NEB, NEB-TS, DLPNO-Multilevel, CI-OPT
                                                   MM, QMMM, 2- and 3-layer-ONIOM, Crystal-QMMM,
                                                   LR-CPCM, SF, NACMEs, symmetry and pop. for TD-DFT,
                                                   nearIR, NL-DFT gradient (VV10), updates on ESD,
                                                   ML-optimized integration grids
   S Lehtola, MJT Oliveira, MAL Marques          : LibXC Library
   Liviu Ungur et al                             : ANISO software


 Your calculation uses the libint2 library for the computation of 2-el integrals
 For citations please refer to: http://libint.valeyev.net

 Your ORCA version has been built with support for libXC version: 5.1.0
 For citations please refer to: https://tddft.org/programs/libxc/

 This ORCA versions uses:
   CBLAS   interface :  Fast vector & matrix operations
   LAPACKE interface :  Fast linear algebra routines
   SCALAPACK package :  Parallel linear algebra routines
   Shared memory     :  Shared parallel matrices
   BLAS/LAPACK       :  OpenBLAS 0.3.15  USE64BITINT DYNAMIC_ARCH NO_AFFINITY SkylakeX SINGLE_THREADED
        Core in use  :  SkylakeX
   Copyright (c) 2011-2014, The OpenBLAS Project




***************************************
The coordinates will be read from file: opt_EPRII.xyz
***************************************


================================================================================

----- Orbital basis set information -----
Your calculation utilizes the basis: EPR-II
   V. Barone, in Recent Advances in Density Functional Methods, Part 1 (ed. D. P. Chong), World Scientific, Singapore, 1995, p. 287.

----- AuxJ basis set information -----
Your calculation utilizes the AutoAux generation procedure.
  G. L. Stoychev, A. A. Auer, F. Neese, J. Chem. Theory Comput. 13, 554 (2017)

----- AuxC basis set information -----
Your calculation utilizes the AutoAux generation procedure.
  G. L. Stoychev, A. A. Auer, F. Neese, J. Chem. Theory Comput. 13, 554 (2017)

----- AuxJK basis set information -----
Your calculation utilizes the AutoAux generation procedure.
  G. L. Stoychev, A. A. Auer, F. Neese, J. Chem. Theory Comput. 13, 554 (2017)

================================================================================
                                        WARNINGS
                       Please study these warnings very carefully!
================================================================================

WARNING: Old DensityContainer found on disk!
         Will remove this file - 
         If you want to keep old densities, please start your calculation with a different basename. 


WARNING: your system is open-shell and RHF/RKS was chosen
  ===> : WILL SWITCH to UHF/UKS


INFO   : the flag for use of the SHARK integral package has been found!

================================================================================
                                       INPUT FILE
================================================================================
NAME = EPRII_i.inp
|  1> ! B3LYP EPR-II AUTOAUX
|  2> %pal nprocs 16 end
|  3> *XYZFile 0 2 opt_EPRII.xyz
|  4> %EPRNMR
|  5>         GTENSOR   TRUE
|  6>         NUCLEI    = ALL H {SHIFT, AISO, ADIP, AORB}
|  7>         ORI       GIAO
|  8> END
|  9> 
| 10>                          ****END OF INPUT****
================================================================================

                       ****************************
                       * Single Point Calculation *
                       ****************************

---------------------------------
CARTESIAN COORDINATES (ANGSTROEM)
---------------------------------
  C     -4.043960    0.123850   -0.115421
  C     -2.824765    0.066623   -0.110425
  C      2.847272   -0.096982   -0.096248
  C     -1.390635    0.001448   -0.107709
  C     -0.723242   -1.253427   -0.131233
  C      0.675781   -1.236876   -0.126215
  C      1.413158   -0.031895   -0.099373
  C      0.745817    1.223035   -0.076136
  C     -0.653224    1.206423   -0.081055
  H      1.228967   -2.168663   -0.143294
  H     -1.206700    2.138042   -0.064205
  C     -1.530787   -2.542336   -0.160737
  H     -2.195015   -2.511226   -1.034763
  H     -2.202763   -2.546428    0.707879
  C     -0.728376   -3.852735   -0.183555
  H     -0.066727   -3.871511   -1.059841
  H     -0.079418   -3.909438    0.700584
  C     -1.636313   -5.095494   -0.217215
  H     -2.301835   -5.081265    0.656067
  H     -2.286547   -5.044637   -1.100589
  C     -0.845902   -6.415387   -0.238116
  H     -0.212809   -6.509736    0.651351
  H     -0.193301   -6.469815   -1.116752
  C      1.553504    2.511933   -0.046606
  H      2.211021    2.484958    0.832648
  H      2.232061    2.511813   -0.909979
  C      0.750474    3.822014   -0.036147
  H      0.105361    3.870902   -0.923381
  H      0.084996    3.845297    0.836938
  C      1.657834    5.065227   -0.007147
  H      2.304874    5.022269    0.879951
  H      2.327749    5.046713   -0.877945
  C      0.871154    6.387976    0.000939
  H      0.200697    6.405471    0.871534
  H      0.224756    6.430177   -0.886849
  C      1.773941    7.634144    0.030704
  H      2.442887    7.627036   -0.839358
  H      2.417177    7.603737    0.919451
  C      0.964463    8.963164    0.036488
  H      0.323854    8.977674   -0.855362
  H      0.297037    8.953751    0.908535
  C      1.825864   10.190007    0.066240
  H      2.192894   10.590708    1.006515
  H      2.220659   10.616394   -0.851208
  C      4.066492   -0.153706   -0.095147
  H     -5.108664    0.175163   -0.117826
  H      5.131232   -0.204226   -0.093239
  H     -1.515951   -7.280914   -0.265020

----------------------------
CARTESIAN COORDINATES (A.U.)
----------------------------
  NO LB      ZA    FRAG     MASS         X           Y           Z
   0 C     6.0000    0    12.011   -7.641976    0.234043   -0.218115
   1 C     6.0000    0    12.011   -5.338032    0.125899   -0.208674
   2 C     6.0000    0    12.011    5.380565   -0.183270   -0.181883
   3 C     6.0000    0    12.011   -2.627918    0.002737   -0.203540
   4 C     6.0000    0    12.011   -1.366729   -2.368635   -0.247995
   5 C     6.0000    0    12.011    1.277041   -2.337357   -0.238511
   6 C     6.0000    0    12.011    2.670481   -0.060273   -0.187787
   7 C     6.0000    0    12.011    1.409389    2.311202   -0.143877
   8 C     6.0000    0    12.011   -1.234415    2.279810   -0.153171
   9 H     1.0000    0     1.008    2.322411   -4.098178   -0.270787
  10 H     1.0000    0     1.008   -2.280333    4.040314   -0.121331
  11 C     6.0000    0    12.011   -2.892768   -4.804318   -0.303749
  12 H     1.0000    0     1.008   -4.147977   -4.745529   -1.955420
  13 H     1.0000    0     1.008   -4.162619   -4.812052    1.337697
  14 C     6.0000    0    12.011   -1.376430   -7.280614   -0.346869
  15 H     1.0000    0     1.008   -0.126095   -7.316096   -2.002808
  16 H     1.0000    0     1.008   -0.150078   -7.387767    1.323912
  17 C     6.0000    0    12.011   -3.092184   -9.629087   -0.410476
  18 H     1.0000    0     1.008   -4.349839   -9.602199    1.239787
  19 H     1.0000    0     1.008   -4.320947   -9.532982   -2.079812
  20 C     6.0000    0    12.011   -1.598524  -12.123324   -0.449974
  21 H     1.0000    0     1.008   -0.402151  -12.301618    1.230875
  22 H     1.0000    0     1.008   -0.365287  -12.226179   -2.110355
  23 C     6.0000    0    12.011    2.935697    4.746866   -0.088073
  24 H     1.0000    0     1.008    4.178224    4.695890    1.573477
  25 H     1.0000    0     1.008    4.217984    4.746638   -1.719611
  26 C     6.0000    0    12.011    1.418191    7.222559   -0.068308
  27 H     1.0000    0     1.008    0.199103    7.314944   -1.744938
  28 H     1.0000    0     1.008    0.160619    7.266559    1.581584
  29 C     6.0000    0    12.011    3.132853    9.571893   -0.013505
  30 H     1.0000    0     1.008    4.355581    9.490712    1.662867
  31 H     1.0000    0     1.008    4.398808    9.536905   -1.659075
  32 C     6.0000    0    12.011    1.646242   12.071525    0.001775
  33 H     1.0000    0     1.008    0.379262   12.104587    1.646962
  34 H     1.0000    0     1.008    0.424728   12.151273   -1.675902
  35 C     6.0000    0    12.011    3.352263   14.426441    0.058022
  36 H     1.0000    0     1.008    4.616387   14.413010   -1.586156
  37 H     1.0000    0     1.008    4.567803   14.368981    1.737510
  38 C     6.0000    0    12.011    1.822570   16.937925    0.068953
  39 H     1.0000    0     1.008    0.611996   16.965345   -1.616400
  40 H     1.0000    0     1.008    0.561319   16.920137    1.716882
  41 C     6.0000    0    12.011    3.450382   19.256323    0.125176
  42 H     1.0000    0     1.008    4.143970   20.013537    1.902038
  43 H     1.0000    0     1.008    4.196438   20.062076   -1.608549
  44 C     6.0000    0    12.011    7.684557   -0.290462   -0.179802
  45 H     1.0000    0     1.008   -9.653976    0.331011   -0.222659
  46 H     1.0000    0     1.008    9.696624   -0.385931   -0.176196
  47 H     1.0000    0     1.008   -2.864733  -13.758933   -0.500816

--------------------------------
INTERNAL COORDINATES (ANGSTROEM)
--------------------------------
 C      0   0   0     0.000000000000     0.00000000     0.00000000
 C      1   0   0     1.220547531459     0.00000000     0.00000000
 C      2   1   0     5.674413749995   178.96073941     0.00000000
 C      2   1   3     1.435612881340   179.84770594   309.14936006
 C      4   2   1     1.421505980066   120.60106161   237.05937715
 C      5   4   2     1.399129966434   117.31991753   180.03438554
 C      6   5   4     1.412948407442   122.13986257     0.00000000
 C      7   6   5     1.421525414744   120.54295020     0.00000000
 C      8   7   6     1.399148108511   117.31480968     0.00000000
 H      6   5   4     1.083758539364   120.01098373   179.98806775
 H      9   8   7     1.083758836863   120.02650146   180.01284263
 C      5   4   2     1.521277028016   119.93613065     0.04948976
 H     12   5   4     1.098220733389   108.20960348    56.71692780
 H     12   5   4     1.098208456775   108.21759910   303.39689377
 C     12   5   4     1.536727375370   116.46051696   180.05704487
 H     15  12   5     1.098183951637   109.93924288   301.66734796
 H     15  12   5     1.098209166001   109.91514716    58.69632339
 C     15  12   5     1.539458849935   112.37981409   180.18674802
 H     18  15  12     1.098063289202   109.24491263   302.17067532
 H     18  15  12     1.098061884771   109.23514847    58.03601521
 C     18  15  12     1.538604632403   112.94417624   180.08937596
 H     21  18  15     1.095837418373   111.07697289    60.03642744
 H     21  18  15     1.095833819915   111.06550936   300.31240496
 C      8   7   6     1.521344119525   119.93412649   179.96713617
 H     24   8   7     1.098245959252   108.21487739   302.77653484
 H     24   8   7     1.098113374955   108.22245987    56.10179212
 C     24   8   7     1.536644799000   116.42243055   179.44241700
 H     27  24   8     1.098065106170   109.84504420   301.56412329
 H     27  24   8     1.098035191331   109.88970935    58.52030647
 C     27  24   8     1.539390416242   112.37265395   180.04137955
 H     30  27  24     1.098839678702   109.31212530   301.92082585
 H     30  27  24     1.098825709718   109.31831843    57.85746962
 C     30  27  24     1.539023945532   113.13634368   179.88868564
 H     33  30  27     1.098979102953   109.24975938    57.89880647
 H     33  30  27     1.098989962376   109.23283987   302.01729485
 C     33  30  27     1.539105375668   113.33860670   179.96825020
 H     36  33  30     1.097518229304   109.69067394    58.26076764
 H     36  33  30     1.097518937883   109.69449344   301.57475437
 C     36  33  30     1.556144075935   112.73360084   179.91685692
 H     39  36  33     1.098174268296   108.16222793   302.24963877
 H     39  36  33     1.098184789904   108.16614385    57.67831717
 C     39  36  33     1.499347030743   113.58101859   179.96457303
 H     42  39  36     1.085996584392   120.88115674   274.57904584
 H     42  39  36     1.085992503017   120.88777897    85.45739688
 C      3   2   1     1.220539389580   178.98434569   190.21034263
 H      1   2   4     1.065942962755   179.87257924   248.39247272
 H     45   3   7     1.065939609510   179.92665696   267.85580215
 H     21  18  15     1.094909175098   111.35135182   180.17654223

---------------------------
INTERNAL COORDINATES (A.U.)
---------------------------
 C      0   0   0     0.000000000000     0.00000000     0.00000000
 C      1   0   0     2.306500567892     0.00000000     0.00000000
 C      2   1   0    10.723087958047   178.96073941     0.00000000
 C      2   1   3     2.712915180063   179.84770594   309.14936006
 C      4   2   1     2.686257000055   120.60106161   237.05937715
 C      5   4   2     2.643972462323   117.31991753   180.03438554
 C      6   5   4     2.670085531426   122.13986257     0.00000000
 C      7   6   5     2.686293726276   120.54295020     0.00000000
 C      8   7   6     2.644006745879   117.31480968     0.00000000
 H      6   5   4     2.048006834696   120.01098373   179.98806775
 H      9   8   7     2.048007396889   120.02650146   180.01284263
 C      5   4   2     2.874796956775   119.93613065     0.04948976
 H     12   5   4     2.075336420700   108.20960348    56.71692780
 H     12   5   4     2.075313221260   108.21759910   303.39689377
 C     12   5   4     2.903993881949   116.46051696   180.05704487
 H     15  12   5     2.075266913260   109.93924288   301.66734796
 H     15  12   5     2.075314561505   109.91514716    58.69632339
 C     15  12   5     2.909155620818   112.37981409   180.18674802
 H     18  15  12     2.075038894304   109.24491263   302.17067532
 H     18  15  12     2.075036240315   109.23514847    58.03601521
 C     18  15  12     2.907541383625   112.94417624   180.08937596
 H     21  18  15     2.070832608028   111.07697289    60.03642744
 H     21  18  15     2.070825807928   111.06550936   300.31240496
 C      8   7   6     2.874923741354   119.93412649   179.96713617
 H     24   8   7     2.075384090671   108.21487739   302.77653484
 H     24   8   7     2.075133542661   108.22245987    56.10179212
 C     24   8   7     2.903837835224   116.42243055   179.44241700
 H     27  24   8     2.075042327877   109.84504420   301.56412329
 H     27  24   8     2.074985797024   109.88970935    58.52030647
 C     27  24   8     2.909026299880   112.37265395   180.04137955
 H     30  27  24     2.076506057833   109.31212530   301.92082585
 H     30  27  24     2.076479660278   109.31831843    57.85746962
 C     30  27  24     2.908333770602   113.13634368   179.88868564
 H     33  30  27     2.076769531484   109.24975938    57.89880647
 H     33  30  27     2.076790052819   109.23283987   302.01729485
 C     33  30  27     2.908487651259   113.33860670   179.96825020
 H     36  33  30     2.074008880371   109.69067394    58.26076764
 H     36  33  30     2.074010219390   109.69449344   301.57475437
 C     36  33  30     2.940686128441   112.73360084   179.91685692
 H     39  36  33     2.075248614399   108.16222793   302.24963877
 H     39  36  33     2.075268497356   108.16614385    57.67831717
 C     39  36  33     2.833355267812   113.58101859   179.96457303
 H     42  39  36     2.052236126876   120.88115674   274.57904584
 H     42  39  36     2.052228414194   120.88777897    85.45739688
 C      3   2   1     2.306485181969   178.98434569   190.21034263
 H      1   2   4     2.014340273987   179.87257924   248.39247272
 H     45   3   7     2.014333937273   179.92665696   267.85580215
 H     21  18  15     2.069078482453   111.35135182   180.17654223

---------------------
BASIS SET INFORMATION
---------------------
There are 2 groups of distinct atoms

 Group   1 Type C   : 10s5p1d contracted to 6s2p1d pattern {511111/41/1}
 Group   2 Type H   : 6s1p contracted to 4s1p pattern {3111/1}

Atom   0C    basis set group =>   1
Atom   1C    basis set group =>   1
Atom   2C    basis set group =>   1
Atom   3C    basis set group =>   1
Atom   4C    basis set group =>   1
Atom   5C    basis set group =>   1
Atom   6C    basis set group =>   1
Atom   7C    basis set group =>   1
Atom   8C    basis set group =>   1
Atom   9H    basis set group =>   2
Atom  10H    basis set group =>   2
Atom  11C    basis set group =>   1
Atom  12H    basis set group =>   2
Atom  13H    basis set group =>   2
Atom  14C    basis set group =>   1
Atom  15H    basis set group =>   2
Atom  16H    basis set group =>   2
Atom  17C    basis set group =>   1
Atom  18H    basis set group =>   2
Atom  19H    basis set group =>   2
Atom  20C    basis set group =>   1
Atom  21H    basis set group =>   2
Atom  22H    basis set group =>   2
Atom  23C    basis set group =>   1
Atom  24H    basis set group =>   2
Atom  25H    basis set group =>   2
Atom  26C    basis set group =>   1
Atom  27H    basis set group =>   2
Atom  28H    basis set group =>   2
Atom  29C    basis set group =>   1
Atom  30H    basis set group =>   2
Atom  31H    basis set group =>   2
Atom  32C    basis set group =>   1
Atom  33H    basis set group =>   2
Atom  34H    basis set group =>   2
Atom  35C    basis set group =>   1
Atom  36H    basis set group =>   2
Atom  37H    basis set group =>   2
Atom  38C    basis set group =>   1
Atom  39H    basis set group =>   2
Atom  40H    basis set group =>   2
Atom  41C    basis set group =>   1
Atom  42H    basis set group =>   2
Atom  43H    basis set group =>   2
Atom  44C    basis set group =>   1
Atom  45H    basis set group =>   2
Atom  46H    basis set group =>   2
Atom  47H    basis set group =>   2
---------------------------------
AUXILIARY/J BASIS SET INFORMATION
---------------------------------
There are 2 groups of distinct atoms

 Group   1 Type C   : 17s13p12d2f contracted to 17s13p12d2f pattern {11111111111111111/1111111111111/111111111111/11}
 Group   2 Type H   : 15s6p1d contracted to 15s6p1d pattern {111111111111111/111111/1}

Atom   0C    basis set group =>   1
Atom   1C    basis set group =>   1
Atom   2C    basis set group =>   1
Atom   3C    basis set group =>   1
Atom   4C    basis set group =>   1
Atom   5C    basis set group =>   1
Atom   6C    basis set group =>   1
Atom   7C    basis set group =>   1
Atom   8C    basis set group =>   1
Atom   9H    basis set group =>   2
Atom  10H    basis set group =>   2
Atom  11C    basis set group =>   1
Atom  12H    basis set group =>   2
Atom  13H    basis set group =>   2
Atom  14C    basis set group =>   1
Atom  15H    basis set group =>   2
Atom  16H    basis set group =>   2
Atom  17C    basis set group =>   1
Atom  18H    basis set group =>   2
Atom  19H    basis set group =>   2
Atom  20C    basis set group =>   1
Atom  21H    basis set group =>   2
Atom  22H    basis set group =>   2
Atom  23C    basis set group =>   1
Atom  24H    basis set group =>   2
Atom  25H    basis set group =>   2
Atom  26C    basis set group =>   1
Atom  27H    basis set group =>   2
Atom  28H    basis set group =>   2
Atom  29C    basis set group =>   1
Atom  30H    basis set group =>   2
Atom  31H    basis set group =>   2
Atom  32C    basis set group =>   1
Atom  33H    basis set group =>   2
Atom  34H    basis set group =>   2
Atom  35C    basis set group =>   1
Atom  36H    basis set group =>   2
Atom  37H    basis set group =>   2
Atom  38C    basis set group =>   1
Atom  39H    basis set group =>   2
Atom  40H    basis set group =>   2
Atom  41C    basis set group =>   1
Atom  42H    basis set group =>   2
Atom  43H    basis set group =>   2
Atom  44C    basis set group =>   1
Atom  45H    basis set group =>   2
Atom  46H    basis set group =>   2
Atom  47H    basis set group =>   2
---------------------------------
AUXILIARY/C BASIS SET INFORMATION
---------------------------------
There are 2 groups of distinct atoms

 Group   1 Type C   : 17s13p12d2f contracted to 17s13p12d2f pattern {11111111111111111/1111111111111/111111111111/11}
 Group   2 Type H   : 15s6p1d contracted to 15s6p1d pattern {111111111111111/111111/1}

Atom   0C    basis set group =>   1
Atom   1C    basis set group =>   1
Atom   2C    basis set group =>   1
Atom   3C    basis set group =>   1
Atom   4C    basis set group =>   1
Atom   5C    basis set group =>   1
Atom   6C    basis set group =>   1
Atom   7C    basis set group =>   1
Atom   8C    basis set group =>   1
Atom   9H    basis set group =>   2
Atom  10H    basis set group =>   2
Atom  11C    basis set group =>   1
Atom  12H    basis set group =>   2
Atom  13H    basis set group =>   2
Atom  14C    basis set group =>   1
Atom  15H    basis set group =>   2
Atom  16H    basis set group =>   2
Atom  17C    basis set group =>   1
Atom  18H    basis set group =>   2
Atom  19H    basis set group =>   2
Atom  20C    basis set group =>   1
Atom  21H    basis set group =>   2
Atom  22H    basis set group =>   2
Atom  23C    basis set group =>   1
Atom  24H    basis set group =>   2
Atom  25H    basis set group =>   2
Atom  26C    basis set group =>   1
Atom  27H    basis set group =>   2
Atom  28H    basis set group =>   2
Atom  29C    basis set group =>   1
Atom  30H    basis set group =>   2
Atom  31H    basis set group =>   2
Atom  32C    basis set group =>   1
Atom  33H    basis set group =>   2
Atom  34H    basis set group =>   2
Atom  35C    basis set group =>   1
Atom  36H    basis set group =>   2
Atom  37H    basis set group =>   2
Atom  38C    basis set group =>   1
Atom  39H    basis set group =>   2
Atom  40H    basis set group =>   2
Atom  41C    basis set group =>   1
Atom  42H    basis set group =>   2
Atom  43H    basis set group =>   2
Atom  44C    basis set group =>   1
Atom  45H    basis set group =>   2
Atom  46H    basis set group =>   2
Atom  47H    basis set group =>   2
----------------------------------
AUXILIARY/JK BASIS SET INFORMATION
----------------------------------
There are 2 groups of distinct atoms

 Group   1 Type C   : 17s13p12d2f contracted to 17s13p12d2f pattern {11111111111111111/1111111111111/111111111111/11}
 Group   2 Type H   : 15s6p1d contracted to 15s6p1d pattern {111111111111111/111111/1}

Atom   0C    basis set group =>   1
Atom   1C    basis set group =>   1
Atom   2C    basis set group =>   1
Atom   3C    basis set group =>   1
Atom   4C    basis set group =>   1
Atom   5C    basis set group =>   1
Atom   6C    basis set group =>   1
Atom   7C    basis set group =>   1
Atom   8C    basis set group =>   1
Atom   9H    basis set group =>   2
Atom  10H    basis set group =>   2
Atom  11C    basis set group =>   1
Atom  12H    basis set group =>   2
Atom  13H    basis set group =>   2
Atom  14C    basis set group =>   1
Atom  15H    basis set group =>   2
Atom  16H    basis set group =>   2
Atom  17C    basis set group =>   1
Atom  18H    basis set group =>   2
Atom  19H    basis set group =>   2
Atom  20C    basis set group =>   1
Atom  21H    basis set group =>   2
Atom  22H    basis set group =>   2
Atom  23C    basis set group =>   1
Atom  24H    basis set group =>   2
Atom  25H    basis set group =>   2
Atom  26C    basis set group =>   1
Atom  27H    basis set group =>   2
Atom  28H    basis set group =>   2
Atom  29C    basis set group =>   1
Atom  30H    basis set group =>   2
Atom  31H    basis set group =>   2
Atom  32C    basis set group =>   1
Atom  33H    basis set group =>   2
Atom  34H    basis set group =>   2
Atom  35C    basis set group =>   1
Atom  36H    basis set group =>   2
Atom  37H    basis set group =>   2
Atom  38C    basis set group =>   1
Atom  39H    basis set group =>   2
Atom  40H    basis set group =>   2
Atom  41C    basis set group =>   1
Atom  42H    basis set group =>   2
Atom  43H    basis set group =>   2
Atom  44C    basis set group =>   1
Atom  45H    basis set group =>   2
Atom  46H    basis set group =>   2
Atom  47H    basis set group =>   2

Checking for AutoStart:
The File: EPRII_i.gbw exists
Trying to determine its content:
     ... Fine, the file contains calculation information
     ... Fine, the calculation information was read
     ... Fine, the file contains a basis set
     ... Fine, the basis set was read
     ... Fine, the file contains a geometry
     ... Fine, the geometry was read
     ... Fine, the file contains a set of orbitals
     ... Fine, the orbitals can be read
     => possible old guess file was deleted
     => GBW file was renamed to GES file
     => GES file is set as startup file
     => Guess is set to MORead
     ... now leaving AutoStart



           ************************************************************
           *        Program running with 16 parallel MPI-processes    *
           *              working on a common directory               *
           ************************************************************
------------------------------------------------------------------------------
                           ORCA GTO INTEGRAL CALCULATION
                           -- RI-GTO INTEGRALS CHOSEN --
------------------------------------------------------------------------------
------------------------------------------------------------------------------
                   ___                                                        
                  /   \      - P O W E R E D   B Y -                         
                 /     \                                                     
                 |  |  |   _    _      __       _____    __    __             
                 |  |  |  | |  | |    /  \     |  _  \  |  |  /  |          
                  \  \/   | |  | |   /    \    | | | |  |  | /  /          
                 / \  \   | |__| |  /  /\  \   | |_| |  |  |/  /          
                |  |  |   |  __  | /  /__\  \  |    /   |      \           
                |  |  |   | |  | | |   __   |  |    \   |  |\   \          
                \     /   | |  | | |  |  |  |  | |\  \  |  | \   \       
                 \___/    |_|  |_| |__|  |__|  |_| \__\ |__|  \__/        
                                                                              
                      - O R C A' S   B I G   F R I E N D -                    
                                      &                                       
                       - I N T E G R A L  F E E D E R -                       
                                                                              
 v1 FN, 2020, v2 2021                                                         
------------------------------------------------------------------------------


Reading SHARK input file EPRII_i.SHARKINP.tmp ... ok
----------------------
SHARK INTEGRAL PACKAGE
----------------------

Number of atoms                             ...     48
Number of basis functions                   ...    546
Number of shells                            ...    324
Maximum angular momentum                    ...      2
Integral batch strategy                     ... SHARK/LIBINT Hybrid
RI-J (if used) integral strategy            ... SPLIT-RIJ (Revised 2003 algorithm where possible)
Printlevel                                  ...      1
Contraction scheme used                     ... SEGMENTED contraction
Coulomb Range Separation                    ... NOT USED
Exchange Range Separation                   ... NOT USED
Finite Nucleus Model                        ... NOT USED
Auxiliary Coulomb fitting basis             ... AVAILABLE
   # of basis functions in Aux-J            ...   3756
   # of shells in Aux-J                     ...   1518
   Maximum angular momentum in Aux-J        ...      3
Auxiliary J/K fitting basis                 ... AVAILABLE
   # of basis functions in Aux-JK           ...   3756
   # of shells in Aux-JK                    ...   1518
   Maximum angular momentum in Aux-JK       ...      3
Auxiliary Correlation fitting basis         ... AVAILABLE
   # of basis functions in Aux-C            ...   3756
   # of shells in Aux-C                     ...   1518
   Maximum angular momentum in Aux-C        ...      3
Auxiliary 'external' fitting basis          ... NOT available
Integral threshold                          ...     1.000000e-10
Primitive cut-off                           ...     1.000000e-11
Primitive pair pre-selection threshold      ...     1.000000e-11

Calculating pre-screening integrals         ... done (  0.0 sec) Dimension = 324
Organizing shell pair data                  ... done (  0.2 sec)
Shell pair information
Total number of shell pairs                 ...     52650
Shell pairs after pre-screening             ...     26281
Total number of primitive shell pairs       ...    138492
Primitive shell pairs kept                  ...     49232
          la=0 lb=0:  12260 shell pairs
          la=1 lb=0:   9077 shell pairs
          la=1 lb=1:   1570 shell pairs
          la=2 lb=0:   2368 shell pairs
          la=2 lb=1:    871 shell pairs
          la=2 lb=2:    135 shell pairs

Calculating one electron integrals          ... done (  0.0 sec)
Calculating RI/J V-Matrix + Cholesky decomp.... done (  0.8 sec)
Calculating RI/JK V-Matrix + Cholesky decomp... done (  0.8 sec)
Calculating RI/C V-Matrix + Cholesky decomp.... done (  0.8 sec)
Calculating Nuclear repulsion               ... done (  0.0 sec) ENN=   1439.063194090239 Eh

SHARK setup successfully completed in   3.0 seconds

Maximum memory used throughout the entire GTOINT-calculation: 52.6 MB


           ************************************************************
           *        Program running with 16 parallel MPI-processes    *
           *              working on a common directory               *
           ************************************************************
-------------------------------------------------------------------------------
                                 ORCA SCF
-------------------------------------------------------------------------------

------------
SCF SETTINGS
------------
Hamiltonian:
 Density Functional     Method          .... DFT(GTOs)
 Exchange Functional    Exchange        .... B88
   X-Alpha parameter    XAlpha          ....  0.666667
   Becke's b parameter  XBeta           ....  0.004200
 Correlation Functional Correlation     .... LYP
 LDA part of GGA corr.  LDAOpt          .... VWN-5
 Gradients option       PostSCFGGA      .... off
 Hybrid DFT is turned on
   Fraction HF Exchange ScalHFX         ....  0.200000
   Scaling of DF-GGA-X  ScalDFX         ....  0.720000
   Scaling of DF-GGA-C  ScalDFC         ....  0.810000
   Scaling of DF-LDA-C  ScalLDAC        ....  1.000000
   Perturbative correction              ....  0.000000
   Density functional embedding theory  .... OFF
   NL short-range parameter             ....  4.800000
 RI-approximation to the Coulomb term is turned on
   Number of AuxJ basis functions       .... 3756
   RIJ-COSX (HFX calculated with COS-X)).... on


General Settings:
 Integral files         IntName         .... EPRII_i
 Hartree-Fock type      HFTyp           .... UHF
 Total Charge           Charge          ....    0
 Multiplicity           Mult            ....    2
 Number of Electrons    NEL             ....  153
 Basis Dimension        Dim             ....  546
 Nuclear Repulsion      ENuc            ....   1439.0631940902 Eh

Convergence Acceleration:
 DIIS                   CNVDIIS         .... on
   Start iteration      DIISMaxIt       ....    12
   Startup error        DIISStart       ....  0.200000
   # of expansion vecs  DIISMaxEq       ....     5
   Bias factor          DIISBfac        ....   1.050
   Max. coefficient     DIISMaxC        ....  10.000
 Trust-Rad. Augm. Hess. CNVTRAH         .... auto
   Auto Start mean grad. ratio tolernc. ....  1.125000
   Auto Start start iteration           ....     1
   Auto Start num. interpolation iter.  ....    10
   Max. Number of Micro iterations      ....    16
   Max. Number of Macro iterations      .... Maxiter - #DIIS iter
   Number of Davidson start vectors     ....     2
   Converg. threshold I  (grad. norm)   ....   5.000e-05
   Converg. threshold II (energy diff.) ....   1.000e-06
   Grad. Scal. Fac. for Micro threshold ....   0.100
   Minimum threshold for Micro iter.    ....   0.010
   NR start threshold (gradient norm)   ....   0.001
   Initial trust radius                 ....   0.400
   Minimum AH scaling param. (alpha)    ....   1.000
   Maximum AH scaling param. (alpha)    .... 1000.000
   Orbital update algorithm             .... Taylor
   White noise on init. David. guess    .... on
   Maximum white noise                  ....   0.010
   Quad. conv. algorithm                .... NR
 SOSCF                  CNVSOSCF        .... off
 Level Shifting         CNVShift        .... on
   Level shift para.    LevelShift      ....    0.2500
   Turn off err/grad.   ShiftErr        ....    0.0010
 Zerner damping         CNVZerner       .... off
 Static damping         CNVDamp         .... on
   Fraction old density DampFac         ....    0.7000
   Max. Damping (<1)    DampMax         ....    0.9800
   Min. Damping (>=0)   DampMin         ....    0.0000
   Turn off err/grad.   DampErr         ....    0.1000
 Fernandez-Rico         CNVRico         .... off

SCF Procedure:
 Maximum # iterations   MaxIter         ....   125
 SCF integral mode      SCFMode         .... Direct
   Integral package                     .... SHARK and LIBINT hybrid scheme
 Reset frequency        DirectResetFreq ....    20
 Integral Threshold     Thresh          ....  1.000e-10 Eh
 Primitive CutOff       TCut            ....  1.000e-11 Eh

Convergence Tolerance:
 Convergence Check Mode ConvCheckMode   .... Total+1el-Energy
 Convergence forced     ConvForced      .... 0
 Energy Change          TolE            ....  1.000e-06 Eh
 1-El. energy change                    ....  1.000e-03 Eh
 DIIS Error             TolErr          ....  1.000e-06


Diagonalization of the overlap matrix:
Smallest eigenvalue                        ... 1.376e-04
Time for diagonalization                   ...    0.069 sec
Threshold for overlap eigenvalues          ... 1.000e-08
Number of eigenvalues below threshold      ... 0
Time for construction of square roots      ...    0.054 sec
Total time needed                          ...    0.125 sec

---------------------
INITIAL GUESS: MOREAD
---------------------
Guess MOs are being read from file: EPRII_i.ges
Input geometry compatible with but different from current geometry
Input basis set matches current basis set (good)
MOs were renormalized
MOs were reorthogonalized (Cholesky)
                      ------------------
                      INITIAL GUESS DONE (   0.2 sec)
                      ------------------
-------------------
DFT GRID GENERATION
-------------------

General Integration Accuracy     IntAcc      ... 4.388
Radial Grid Type                 RadialGrid  ... OptM3 with GC (2021)
Angular Grid (max. ang.)         AngularGrid ... 4 (Lebedev-302)
Angular grid pruning method      GridPruning ... 4 (adaptive)
Weight generation scheme         WeightScheme... Becke
Basis function cutoff            BFCut       ... 1.0000e-10
Integration weight cutoff        WCut        ... 1.0000e-14
Angular grids for H and He will be reduced by one unit
Partially contracted basis set               ... off
Rotationally invariant grid construction     ... off

Total number of grid points                  ...   211482
Total number of batches                      ...     3328
Average number of points per batch           ...       63
Average number of grid points per atom       ...     4406
Time for grid setup =    1.137 sec

--------------------
COSX GRID GENERATION
--------------------

GRIDX 1
-------
General Integration Accuracy     IntAcc      ... 3.816
Radial Grid Type                 RadialGrid  ... OptM3 with GC (2021)
Angular Grid (max. ang.)         AngularGrid ... 1 (Lebedev-50)
Angular grid pruning method      GridPruning ... 4 (adaptive)
Weight generation scheme         WeightScheme... Becke
Basis function cutoff            BFCut       ... 1.0000e-10
Integration weight cutoff        WCut        ... 1.0000e-14
Angular grids for H and He will be reduced by one unit
Partially contracted basis set               ... on
Rotationally invariant grid construction     ... off

Total number of grid points                  ...    26953
Total number of batches                      ...      451
Average number of points per batch           ...       59
Average number of grid points per atom       ...      562
UseSFitting                                  ... on

GRIDX 2
-------
General Integration Accuracy     IntAcc      ... 4.020
Radial Grid Type                 RadialGrid  ... OptM3 with GC (2021)
Angular Grid (max. ang.)         AngularGrid ... 2 (Lebedev-110)
Angular grid pruning method      GridPruning ... 4 (adaptive)
Weight generation scheme         WeightScheme... Becke
Basis function cutoff            BFCut       ... 1.0000e-10
Integration weight cutoff        WCut        ... 1.0000e-14
Angular grids for H and He will be reduced by one unit
Partially contracted basis set               ... on
Rotationally invariant grid construction     ... off

Total number of grid points                  ...    56906
Total number of batches                      ...      913
Average number of points per batch           ...       62
Average number of grid points per atom       ...     1186
UseSFitting                                  ... on

GRIDX 3
-------
General Integration Accuracy     IntAcc      ... 4.338
Radial Grid Type                 RadialGrid  ... OptM3 with GC (2021)
Angular Grid (max. ang.)         AngularGrid ... 3 (Lebedev-194)
Angular grid pruning method      GridPruning ... 4 (adaptive)
Weight generation scheme         WeightScheme... Becke
Basis function cutoff            BFCut       ... 1.0000e-10
Integration weight cutoff        WCut        ... 1.0000e-14
Angular grids for H and He will be reduced by one unit
Partially contracted basis set               ... on
Rotationally invariant grid construction     ... off

Total number of grid points                  ...   124297
Total number of batches                      ...     1963
Average number of points per batch           ...       63
Average number of grid points per atom       ...     2590
UseSFitting                                  ... on

Time for X-Grid setup             =    2.000 sec

--------------
SCF ITERATIONS
--------------
ITER       Energy         Delta-E        Max-DP      RMS-DP      [F,P]     Damp
               ***  Starting incremental Fock matrix formation  ***
  0   -815.8762826993   0.000000000000 0.00260165  0.00003667  0.0022723 0.7000
  1   -815.8764429483  -0.000160248949 0.00256548  0.00003111  0.0016395 0.7000
                               ***Turning on DIIS***
  2   -815.8765554401  -0.000112491818 0.00675114  0.00007578  0.0011626 0.0000
  3   -815.8768126688  -0.000257228710 0.00097485  0.00001126  0.0003352 0.0000
               *** Restarting incremental Fock matrix formation ***
                                   *** Resetting DIIS ***
  4   -815.8768046967   0.000007972067 0.00090454  0.00001158  0.0003811 0.0000
  5   -815.8768009913   0.000003705447 0.00046549  0.00000617  0.0004493 0.0000
  6   -815.8768114602  -0.000010468881 0.00018983  0.00000144  0.0001607 0.0000
  7   -815.8768113576   0.000000102542 0.00009631  0.00000084  0.0001531 0.0000
                 **** Energy Check signals convergence ****

               *****************************************************
               *                     SUCCESS                       *
               *           SCF CONVERGED AFTER   8 CYCLES          *
               *****************************************************

Old exchange energy                            =    -23.647233479 Eh
New exchange energy                            =    -23.647147732 Eh
Exchange energy change after final integration =      0.000085748 Eh
Total energy after final integration           =   -815.876726018 Eh
Final COS-X integration done in                =     8.904 sec

----------------
TOTAL SCF ENERGY
----------------

Total Energy       :         -815.87672602 Eh          -22201.13440 eV

Components:
Nuclear Repulsion  :         1439.06319409 Eh           39158.90031 eV
Electronic Energy  :        -2254.93992011 Eh          -61360.03471 eV
One Electron Energy:        -3956.70705034 Eh         -107667.47255 eV
Two Electron Energy:         1701.76713023 Eh           46307.43784 eV
Max COSX asymmetry :            0.00000320 Eh               0.00009 eV

Virial components:
Potential Energy   :        -1625.27936236 Eh          -44226.09986 eV
Kinetic Energy     :          809.40263634 Eh           22024.96546 eV
Virial Ratio       :            2.00799860


DFT components:
N(Alpha)           :       77.000148275564 electrons
N(Beta)            :       76.000158941363 electrons
N(Total)           :      153.000307216927 electrons
E(X)               :      -93.758880910848 Eh       
E(C)               :       -5.898683108157 Eh       
E(XC)              :      -99.657564019005 Eh       
DFET-embed. en.    :        0.000000000000 Eh       

---------------
SCF CONVERGENCE
---------------

  Last Energy change         ...   -4.0842e-07  Tolerance :   1.0000e-06
  Last MAX-Density change    ...    0.0000e+00  Tolerance :   1.0000e-05
  Last RMS-Density change    ...    0.0000e+00  Tolerance :   1.0000e-06
  Last DIIS Error            ...    1.0822e-05  Tolerance :   1.0000e-06

             **** THE GBW FILE WAS UPDATED (EPRII_i.gbw) ****
             **** DENSITY EPRII_i.scfp WAS UPDATED ****
             **** ENERGY FILE WAS UPDATED (EPRII_i.en.tmp) ****
----------------------
UHF SPIN CONTAMINATION
----------------------

Warning: in a DFT calculation there is little theoretical justification to 
         calculate <S**2> as in Hartree-Fock theory. We will do it anyways
         but you should keep in mind that the values have only limited relevance

Expectation value of <S**2>     :     0.753807
Ideal value S*(S+1) for S=0.5   :     0.750000
Deviation                       :     0.003807

             **** THE GBW FILE WAS UPDATED (EPRII_i.gbw) ****
             **** DENSITY EPRII_i.scfp WAS UPDATED ****
----------------
ORBITAL ENERGIES
----------------
                 SPIN UP ORBITALS
  NO   OCC          E(Eh)            E(eV) 
   0   1.0000     -10.224377      -278.2194 
   1   1.0000     -10.224371      -278.2193 
   2   1.0000     -10.212490      -277.8960 
   3   1.0000     -10.212453      -277.8950 
   4   1.0000     -10.207367      -277.7566 
   5   1.0000     -10.207355      -277.7562 
   6   1.0000     -10.200351      -277.5657 
   7   1.0000     -10.200297      -277.5642 
   8   1.0000     -10.198421      -277.5131 
   9   1.0000     -10.198406      -277.5127 
  10   1.0000     -10.187707      -277.2216 
  11   1.0000     -10.187456      -277.2148 
  12   1.0000     -10.187437      -277.2143 
  13   1.0000     -10.184549      -277.1357 
  14   1.0000     -10.182295      -277.0743 
  15   1.0000     -10.181733      -277.0590 
  16   1.0000     -10.181224      -277.0452 
  17   1.0000     -10.181010      -277.0394 
  18   1.0000     -10.179788      -277.0061 
  19   1.0000     -10.178902      -276.9820 
  20   1.0000     -10.171101      -276.7697 
  21   1.0000      -0.873241       -23.7621 
  22   1.0000      -0.817216       -22.2376 
  23   1.0000      -0.803457       -21.8632 
  24   1.0000      -0.793974       -21.6051 
  25   1.0000      -0.783130       -21.3101 
  26   1.0000      -0.760809       -20.7027 
  27   1.0000      -0.752839       -20.4858 
  28   1.0000      -0.731505       -19.9053 
  29   1.0000      -0.721465       -19.6321 
  30   1.0000      -0.704964       -19.1830 
  31   1.0000      -0.669775       -18.2255 
  32   1.0000      -0.642293       -17.4777 
  33   1.0000      -0.636706       -17.3257 
  34   1.0000      -0.611565       -16.6415 
  35   1.0000      -0.590551       -16.0697 
  36   1.0000      -0.578916       -15.7531 
  37   1.0000      -0.572606       -15.5814 
  38   1.0000      -0.564758       -15.3678 
  39   1.0000      -0.544834       -14.8257 
  40   1.0000      -0.527649       -14.3581 
  41   1.0000      -0.499942       -13.6041 
  42   1.0000      -0.485549       -13.2125 
  43   1.0000      -0.481597       -13.1049 
  44   1.0000      -0.475034       -12.9263 
  45   1.0000      -0.471163       -12.8210 
  46   1.0000      -0.461293       -12.5524 
  47   1.0000      -0.431664       -11.7462 
  48   1.0000      -0.429514       -11.6877 
  49   1.0000      -0.425342       -11.5741 
  50   1.0000      -0.421016       -11.4564 
  51   1.0000      -0.419260       -11.4086 
  52   1.0000      -0.412096       -11.2137 
  53   1.0000      -0.400490       -10.8979 
  54   1.0000      -0.393284       -10.7018 
  55   1.0000      -0.388139       -10.5618 
  56   1.0000      -0.374178       -10.1819 
  57   1.0000      -0.373442       -10.1619 
  58   1.0000      -0.362532        -9.8650 
  59   1.0000      -0.359294        -9.7769 
  60   1.0000      -0.355881        -9.6840 
  61   1.0000      -0.343615        -9.3502 
  62   1.0000      -0.342192        -9.3115 
  63   1.0000      -0.331135        -9.0106 
  64   1.0000      -0.329013        -8.9529 
  65   1.0000      -0.325959        -8.8698 
  66   1.0000      -0.325525        -8.8580 
  67   1.0000      -0.322324        -8.7709 
  68   1.0000      -0.321933        -8.7602 
  69   1.0000      -0.320553        -8.7227 
  70   1.0000      -0.314539        -8.5590 
  71   1.0000      -0.280390        -7.6298 
  72   1.0000      -0.277510        -7.5514 
  73   1.0000      -0.276418        -7.5217 
  74   1.0000      -0.246876        -6.7178 
  75   1.0000      -0.220712        -6.0059 
  76   1.0000      -0.198695        -5.4068 
  77   0.0000      -0.054168        -1.4740 
  78   0.0000      -0.006506        -0.1771 
  79   0.0000       0.018469         0.5026 
  80   0.0000       0.021649         0.5891 
  81   0.0000       0.024055         0.6546 
  82   0.0000       0.029569         0.8046 
  83   0.0000       0.032645         0.8883 
  84   0.0000       0.036434         0.9914 
  85   0.0000       0.038520         1.0482 
  86   0.0000       0.041326         1.1245 
  87   0.0000       0.042247         1.1496 
  88   0.0000       0.044461         1.2099 
  89   0.0000       0.045397         1.2353 
  90   0.0000       0.052076         1.4171 
  91   0.0000       0.059449         1.6177 
  92   0.0000       0.071827         1.9545 
  93   0.0000       0.081889         2.2283 
  94   0.0000       0.089849         2.4449 
  95   0.0000       0.096519         2.6264 
  96   0.0000       0.104048         2.8313 
  97   0.0000       0.108305         2.9471 
  98   0.0000       0.116309         3.1649 
  99   0.0000       0.126547         3.4435 
 100   0.0000       0.148041         4.0284 
 101   0.0000       0.151372         4.1191 
 102   0.0000       0.155046         4.2190 
 103   0.0000       0.155168         4.2223 
 104   0.0000       0.159175         4.3314 
 105   0.0000       0.165307         4.4982 
 106   0.0000       0.171519         4.6673 
 107   0.0000       0.176570         4.8047 
 108   0.0000       0.185543         5.0489 
 109   0.0000       0.186992         5.0883 
 110   0.0000       0.190436         5.1820 
 111   0.0000       0.192382         5.2350 
 112   0.0000       0.196690         5.3522 
 113   0.0000       0.199449         5.4273 
 114   0.0000       0.200295         5.4503 
 115   0.0000       0.209542         5.7019 
 116   0.0000       0.212667         5.7870 
 117   0.0000       0.218279         5.9397 
 118   0.0000       0.219122         5.9626 
 119   0.0000       0.219417         5.9706 
 120   0.0000       0.222096         6.0435 
 121   0.0000       0.228193         6.2094 
 122   0.0000       0.230898         6.2831 
 123   0.0000       0.237525         6.4634 
 124   0.0000       0.247639         6.7386 
 125   0.0000       0.248635         6.7657 
 126   0.0000       0.251132         6.8336 
 127   0.0000       0.254619         6.9285 
 128   0.0000       0.256629         6.9832 
 129   0.0000       0.262055         7.1309 
 130   0.0000       0.263129         7.1601 
 131   0.0000       0.271611         7.3909 
 132   0.0000       0.277594         7.5537 
 133   0.0000       0.279761         7.6127 
 134   0.0000       0.280329         7.6281 
 135   0.0000       0.285879         7.7792 
 136   0.0000       0.290235         7.8977 
 137   0.0000       0.291319         7.9272 
 138   0.0000       0.295811         8.0494 
 139   0.0000       0.299313         8.1447 
 140   0.0000       0.300400         8.1743 
 141   0.0000       0.307494         8.3673 
 142   0.0000       0.307696         8.3728 
 143   0.0000       0.309196         8.4137 
 144   0.0000       0.314558         8.5596 
 145   0.0000       0.316677         8.6172 
 146   0.0000       0.317805         8.6479 
 147   0.0000       0.319925         8.7056 
 148   0.0000       0.325256         8.8507 
 149   0.0000       0.327471         8.9110 
 150   0.0000       0.331372         9.0171 
 151   0.0000       0.341359         9.2889 
 152   0.0000       0.346368         9.4251 
 153   0.0000       0.350315         9.5326 
 154   0.0000       0.352737         9.5984 
 155   0.0000       0.358893         9.7660 
 156   0.0000       0.362910         9.8753 
 157   0.0000       0.368056        10.0153 
 158   0.0000       0.370354        10.0778 
 159   0.0000       0.375162        10.2087 
 160   0.0000       0.376409        10.2426 
 161   0.0000       0.385536        10.4910 
 162   0.0000       0.395736        10.7685 
 163   0.0000       0.401685        10.9304 
 164   0.0000       0.404315        11.0020 
 165   0.0000       0.404635        11.0107 
 166   0.0000       0.409579        11.1452 
 167   0.0000       0.416483        11.3331 
 168   0.0000       0.418570        11.3899 
 169   0.0000       0.426611        11.6087 
 170   0.0000       0.427444        11.6314 
 171   0.0000       0.429920        11.6987 
 172   0.0000       0.441558        12.0154 
 173   0.0000       0.443280        12.0623 
 174   0.0000       0.452426        12.3111 
 175   0.0000       0.455623        12.3981 
 176   0.0000       0.459748        12.5104 
 177   0.0000       0.462196        12.5770 
 178   0.0000       0.470496        12.8028 
 179   0.0000       0.473646        12.8886 
 180   0.0000       0.474673        12.9165 
 181   0.0000       0.481838        13.1115 
 182   0.0000       0.499399        13.5893 
 183   0.0000       0.503409        13.6985 
 184   0.0000       0.507794        13.8178 
 185   0.0000       0.512784        13.9536 
 186   0.0000       0.515888        14.0380 
 187   0.0000       0.518851        14.1187 
 188   0.0000       0.534956        14.5569 
 189   0.0000       0.536643        14.6028 
 190   0.0000       0.538735        14.6597 
 191   0.0000       0.542301        14.7568 
 192   0.0000       0.548989        14.9387 
 193   0.0000       0.551370        15.0035 
 194   0.0000       0.568086        15.4584 
 195   0.0000       0.580071        15.7845 
 196   0.0000       0.581409        15.8209 
 197   0.0000       0.582159        15.8414 
 198   0.0000       0.586378        15.9562 
 199   0.0000       0.594721        16.1832 
 200   0.0000       0.605042        16.4640 
 201   0.0000       0.610206        16.6046 
 202   0.0000       0.618588        16.8326 
 203   0.0000       0.636000        17.3064 
 204   0.0000       0.653372        17.7792 
 205   0.0000       0.659597        17.9486 
 206   0.0000       0.670838        18.2544 
 207   0.0000       0.681870        18.5546 
 208   0.0000       0.711071        19.3492 
 209   0.0000       0.725007        19.7284 
 210   0.0000       0.747673        20.3452 
 211   0.0000       0.773541        21.0491 
 212   0.0000       0.776545        21.1309 
 213   0.0000       0.796465        21.6729 
 214   0.0000       0.799822        21.7643 
 215   0.0000       0.815250        22.1841 
 216   0.0000       0.833107        22.6700 
 217   0.0000       0.834415        22.7056 
 218   0.0000       0.846585        23.0367 
 219   0.0000       0.849325        23.1113 
 220   0.0000       0.851632        23.1741 
 221   0.0000       0.861062        23.4307 
 222   0.0000       0.865384        23.5483 
 223   0.0000       0.869848        23.6698 
 224   0.0000       0.880081        23.9482 
 225   0.0000       0.885844        24.1051 
 226   0.0000       0.892704        24.2917 
 227   0.0000       0.899772        24.4840 
 228   0.0000       0.904550        24.6141 
 229   0.0000       0.908507        24.7217 
 230   0.0000       0.918936        25.0055 
 231   0.0000       0.919897        25.0317 
 232   0.0000       0.923322        25.1249 
 233   0.0000       0.926933        25.2231 
 234   0.0000       0.928785        25.2735 
 235   0.0000       0.929563        25.2947 
 236   0.0000       0.940454        25.5911 
 237   0.0000       0.947393        25.7799 
 238   0.0000       0.948334        25.8055 
 239   0.0000       0.967329        26.3224 
 240   0.0000       0.969021        26.3684 
 241   0.0000       0.974166        26.5084 
 242   0.0000       0.976064        26.5600 
 243   0.0000       0.980483        26.6803 
 244   0.0000       0.985609        26.8198 
 245   0.0000       0.991448        26.9787 
 246   0.0000       0.992296        27.0017 
 247   0.0000       0.997586        27.1457 
 248   0.0000       1.001385        27.2491 
 249   0.0000       1.011510        27.5246 
 250   0.0000       1.014821        27.6147 
 251   0.0000       1.029315        28.0091 
 252   0.0000       1.030725        28.0474 
 253   0.0000       1.032805        28.1040 
 254   0.0000       1.034834        28.1593 
 255   0.0000       1.039273        28.2801 
 256   0.0000       1.045391        28.4465 
 257   0.0000       1.049619        28.5616 
 258   0.0000       1.058234        28.7960 
 259   0.0000       1.068287        29.0696 
 260   0.0000       1.080918        29.4133 
 261   0.0000       1.091790        29.7091 
 262   0.0000       1.104654        30.0592 
 263   0.0000       1.107925        30.1482 
 264   0.0000       1.112222        30.2651 
 265   0.0000       1.114041        30.3146 
 266   0.0000       1.132243        30.8099 
 267   0.0000       1.140311        31.0294 
 268   0.0000       1.151808        31.3423 
 269   0.0000       1.152239        31.3540 
 270   0.0000       1.158950        31.5366 
 271   0.0000       1.160863        31.5887 
 272   0.0000       1.177693        32.0466 
 273   0.0000       1.184027        32.2190 
 274   0.0000       1.188304        32.3354 
 275   0.0000       1.191131        32.4123 
 276   0.0000       1.201919        32.7059 
 277   0.0000       1.205749        32.8101 
 278   0.0000       1.210436        32.9376 
 279   0.0000       1.211965        32.9792 
 280   0.0000       1.222130        33.2559 
 281   0.0000       1.231947        33.5230 
 282   0.0000       1.236484        33.6464 
 283   0.0000       1.244416        33.8623 
 284   0.0000       1.244763        33.8717 
 285   0.0000       1.255629        34.1674 
 286   0.0000       1.265033        34.4233 
 287   0.0000       1.278920        34.8012 
 288   0.0000       1.293175        35.1891 
 289   0.0000       1.294334        35.2206 
 290   0.0000       1.302821        35.4516 
 291   0.0000       1.307600        35.5816 
 292   0.0000       1.315156        35.7872 
 293   0.0000       1.341293        36.4984 
 294   0.0000       1.351957        36.7886 
 295   0.0000       1.356031        36.8995 
 296   0.0000       1.367807        37.2199 
 297   0.0000       1.381912        37.6037 
 298   0.0000       1.381994        37.6060 
 299   0.0000       1.387439        37.7541 
 300   0.0000       1.392926        37.9034 
 301   0.0000       1.394632        37.9499 
 302   0.0000       1.401081        38.1254 
 303   0.0000       1.412220        38.4285 
 304   0.0000       1.413045        38.4509 
 305   0.0000       1.430447        38.9244 
 306   0.0000       1.439954        39.1831 
 307   0.0000       1.444552        39.3082 
 308   0.0000       1.450810        39.4785 
 309   0.0000       1.452121        39.5142 
 310   0.0000       1.466618        39.9087 
 311   0.0000       1.485640        40.4263 
 312   0.0000       1.497499        40.7490 
 313   0.0000       1.501465        40.8569 
 314   0.0000       1.506042        40.9815 
 315   0.0000       1.517489        41.2930 
 316   0.0000       1.523164        41.4474 
 317   0.0000       1.526228        41.5308 
 318   0.0000       1.527355        41.5615 
 319   0.0000       1.551210        42.2106 
 320   0.0000       1.556536        42.3555 
 321   0.0000       1.561331        42.4860 
 322   0.0000       1.575472        42.8708 
 323   0.0000       1.581173        43.0259 
 324   0.0000       1.584175        43.1076 
 325   0.0000       1.587374        43.1946 
 326   0.0000       1.597250        43.4634 
 327   0.0000       1.597650        43.4743 
 328   0.0000       1.604298        43.6552 
 329   0.0000       1.609050        43.7845 
 330   0.0000       1.611440        43.8495 
 331   0.0000       1.611672        43.8558 
 332   0.0000       1.624968        44.2176 
 333   0.0000       1.626467        44.2584 
 334   0.0000       1.638972        44.5987 
 335   0.0000       1.642063        44.6828 
 336   0.0000       1.652957        44.9793 
 337   0.0000       1.659934        45.1691 
 338   0.0000       1.679329        45.6969 
 339   0.0000       1.680185        45.7202 
 340   0.0000       1.684968        45.8503 
 341   0.0000       1.695917        46.1482 
 342   0.0000       1.705090        46.3979 
 343   0.0000       1.706555        46.4377 
 344   0.0000       1.710097        46.5341 
 345   0.0000       1.723546        46.9001 
 346   0.0000       1.725257        46.9466 
 347   0.0000       1.731268        47.1102 
 348   0.0000       1.734393        47.1952 
 349   0.0000       1.744305        47.4650 
 350   0.0000       1.754524        47.7430 
 351   0.0000       1.756393        47.7939 
 352   0.0000       1.761242        47.9258 
 353   0.0000       1.767175        48.0873 
 354   0.0000       1.777533        48.3691 
 355   0.0000       1.779444        48.4211 
 356   0.0000       1.783179        48.5228 
 357   0.0000       1.793634        48.8073 
 358   0.0000       1.796375        48.8819 
 359   0.0000       1.803336        49.0713 
 360   0.0000       1.804799        49.1111 
 361   0.0000       1.814319        49.3701 
 362   0.0000       1.829232        49.7759 
 363   0.0000       1.832128        49.8547 
 364   0.0000       1.839860        50.0651 
 365   0.0000       1.870448        50.8975 
 366   0.0000       1.872235        50.9461 
 367   0.0000       1.901629        51.7460 
 368   0.0000       1.905031        51.8385 
 369   0.0000       1.916772        52.1580 
 370   0.0000       1.918728        52.2112 
 371   0.0000       1.932790        52.5939 
 372   0.0000       1.933592        52.6157 
 373   0.0000       1.945369        52.9362 
 374   0.0000       1.959659        53.3250 
 375   0.0000       1.968464        53.5646 
 376   0.0000       1.988013        54.0966 
 377   0.0000       2.001774        54.4710 
 378   0.0000       2.005897        54.5832 
 379   0.0000       2.039860        55.5074 
 380   0.0000       2.058196        56.0063 
 381   0.0000       2.068278        56.2807 
 382   0.0000       2.071550        56.3697 
 383   0.0000       2.074952        56.4623 
 384   0.0000       2.096939        57.0606 
 385   0.0000       2.112305        57.4787 
 386   0.0000       2.129438        57.9450 
 387   0.0000       2.154240        58.6199 
 388   0.0000       2.157548        58.7099 
 389   0.0000       2.159580        58.7652 
 390   0.0000       2.170776        59.0698 
 391   0.0000       2.190305        59.6012 
 392   0.0000       2.204201        59.9794 
 393   0.0000       2.211299        60.1725 
 394   0.0000       2.225864        60.5688 
 395   0.0000       2.240155        60.9577 
 396   0.0000       2.243732        61.0551 
 397   0.0000       2.254324        61.3433 
 398   0.0000       2.261804        61.5468 
 399   0.0000       2.267045        61.6894 
 400   0.0000       2.272412        61.8355 
 401   0.0000       2.292996        62.3956 
 402   0.0000       2.308317        62.8125 
 403   0.0000       2.313394        62.9507 
 404   0.0000       2.317442        63.0608 
 405   0.0000       2.321245        63.1643 
 406   0.0000       2.329069        63.3772 
 407   0.0000       2.337188        63.5981 
 408   0.0000       2.338339        63.6295 
 409   0.0000       2.359154        64.1959 
 410   0.0000       2.363472        64.3133 
 411   0.0000       2.376108        64.6572 
 412   0.0000       2.383748        64.8651 
 413   0.0000       2.411261        65.6138 
 414   0.0000       2.419887        65.8485 
 415   0.0000       2.432201        66.1835 
 416   0.0000       2.437748        66.3345 
 417   0.0000       2.447120        66.5895 
 418   0.0000       2.458911        66.9104 
 419   0.0000       2.464620        67.0657 
 420   0.0000       2.464821        67.0712 
 421   0.0000       2.484703        67.6122 
 422   0.0000       2.487196        67.6801 
 423   0.0000       2.497416        67.9582 
 424   0.0000       2.504633        68.1545 
 425   0.0000       2.510076        68.3026 
 426   0.0000       2.518976        68.5448 
 427   0.0000       2.530529        68.8592 
 428   0.0000       2.538856        69.0858 
 429   0.0000       2.539650        69.1074 
 430   0.0000       2.564674        69.7883 
 431   0.0000       2.573003        70.0150 
 432   0.0000       2.575427        70.0809 
 433   0.0000       2.580302        70.2136 
 434   0.0000       2.604801        70.8802 
 435   0.0000       2.609380        71.0048 
 436   0.0000       2.620055        71.2953 
 437   0.0000       2.622802        71.3701 
 438   0.0000       2.631955        71.6191 
 439   0.0000       2.657870        72.3243 
 440   0.0000       2.699295        73.4516 
 441   0.0000       2.710381        73.7532 
 442   0.0000       2.763514        75.1990 
 443   0.0000       2.780712        75.6670 
 444   0.0000       2.810057        76.4655 
 445   0.0000       2.860415        77.8358 
 446   0.0000       2.939298        79.9824 
 447   0.0000       2.960551        80.5607 
 448   0.0000       2.964728        80.6744 
 449   0.0000       3.263565        88.8061 
 450   0.0000       4.991107       135.8149 
 451   0.0000       4.998640       136.0199 
 452   0.0000       5.004071       136.1677 
 453   0.0000       5.014910       136.4626 
 454   0.0000       5.016470       136.5051 
 455   0.0000       5.020575       136.6168 
 456   0.0000       5.027358       136.8014 
 457   0.0000       5.032986       136.9545 
 458   0.0000       5.039373       137.1283 
 459   0.0000       5.051696       137.4636 
 460   0.0000       5.057976       137.6345 
 461   0.0000       5.060391       137.7002 
 462   0.0000       5.081895       138.2854 
 463   0.0000       5.152036       140.1940 
 464   0.0000       5.208734       141.7369 
 465   0.0000       5.221992       142.0976 
 466   0.0000       5.231124       142.3461 
 467   0.0000       5.236246       142.4855 
 468   0.0000       5.260806       143.1538 
 469   0.0000       5.268613       143.3662 
 470   0.0000       5.285842       143.8351 
 471   0.0000       5.307679       144.4293 
 472   0.0000       5.311976       144.5462 
 473   0.0000       5.313665       144.5922 
 474   0.0000       5.337152       145.2313 
 475   0.0000       5.342865       145.3867 
 476   0.0000       5.370154       146.1293 
 477   0.0000       5.386161       146.5649 
 478   0.0000       5.399910       146.9390 
 479   0.0000       5.410527       147.2279 
 480   0.0000       5.446596       148.2094 
 481   0.0000       5.450476       148.3150 
 482   0.0000       5.513507       150.0301 
 483   0.0000       5.560997       151.3224 
 484   0.0000       5.587241       152.0366 
 485   0.0000       5.608527       152.6158 
 486   0.0000       5.626312       153.0997 
 487   0.0000       5.650831       153.7669 
 488   0.0000       5.712035       155.4324 
 489   0.0000       5.727702       155.8587 
 490   0.0000       5.759588       156.7263 
 491   0.0000       5.801215       157.8591 
 492   0.0000       5.824232       158.4854 
 493   0.0000       5.861715       159.5054 
 494   0.0000       5.901297       160.5825 
 495   0.0000       6.018659       163.7760 
 496   0.0000       6.255381       170.2176 
 497   0.0000       6.363662       173.1640 
 498   0.0000      29.615748       805.8855 
 499   0.0000      29.717830       808.6633 
 500   0.0000      29.812156       811.2300 
 501   0.0000      29.846050       812.1523 
 502   0.0000      29.855198       812.4012 
 503   0.0000      29.932883       814.5151 
 504   0.0000      29.985074       815.9353 
 505   0.0000      30.017047       816.8054 
 506   0.0000      30.053421       817.7952 
 507   0.0000      30.091972       818.8442 
 508   0.0000      30.097279       818.9886 
 509   0.0000      30.123213       819.6943 
 510   0.0000      30.152618       820.4945 
 511   0.0000      30.188169       821.4619 
 512   0.0000      30.204053       821.8941 
 513   0.0000      30.250647       823.1620 
 514   0.0000      30.275779       823.8458 
 515   0.0000      30.314044       824.8871 
 516   0.0000      30.343155       825.6792 
 517   0.0000      30.462769       828.9341 
 518   0.0000      30.586199       832.2928 
 519   0.0000      36.617980       996.4259 
 520   0.0000      36.624095       996.5923 
 521   0.0000      36.632911       996.8322 
 522   0.0000      36.636434       996.9280 
 523   0.0000      36.640999       997.0523 
 524   0.0000      36.645309       997.1696 
 525   0.0000      36.651236       997.3308 
 526   0.0000      36.664613       997.6948 
 527   0.0000      36.675655       997.9953 
 528   0.0000      36.683126       998.1986 
 529   0.0000      36.687984       998.3308 
 530   0.0000      36.707324       998.8571 
 531   0.0000      36.785852      1000.9939 
 532   0.0000      36.821806      1001.9723 
 533   0.0000      36.842340      1002.5310 
 534   0.0000      36.858485      1002.9704 
 535   0.0000      36.867886      1003.2262 
 536   0.0000      36.872311      1003.3466 
 537   0.0000      36.877001      1003.4742 
 538   0.0000      36.886106      1003.7220 
 539   0.0000      36.889568      1003.8162 
 540   0.0000      36.925070      1004.7822 
 541   0.0000      36.938972      1005.1605 
 542   0.0000      36.950831      1005.4832 
 543   0.0000      36.965834      1005.8915 
 544   0.0000      37.002659      1006.8936 
 545   0.0000      37.029004      1007.6104 

                 SPIN DOWN ORBITALS
  NO   OCC          E(Eh)            E(eV) 
   0   1.0000     -10.224376      -278.2194 
   1   1.0000     -10.224371      -278.2193 
   2   1.0000     -10.212487      -277.8959 
   3   1.0000     -10.212453      -277.8950 
   4   1.0000     -10.207367      -277.7566 
   5   1.0000     -10.207355      -277.7562 
   6   1.0000     -10.200351      -277.5657 
   7   1.0000     -10.200297      -277.5642 
   8   1.0000     -10.198421      -277.5131 
   9   1.0000     -10.198406      -277.5127 
  10   1.0000     -10.187700      -277.2214 
  11   1.0000     -10.187456      -277.2148 
  12   1.0000     -10.185403      -277.1589 
  13   1.0000     -10.182259      -277.0733 
  14   1.0000     -10.181733      -277.0590 
  15   1.0000     -10.181224      -277.0452 
  16   1.0000     -10.179754      -277.0052 
  17   1.0000     -10.179464      -276.9973 
  18   1.0000     -10.178711      -276.9768 
  19   1.0000     -10.173665      -276.8395 
  20   1.0000     -10.171101      -276.7697 
  21   1.0000      -0.873239       -23.7620 
  22   1.0000      -0.817090       -22.2342 
  23   1.0000      -0.801740       -21.8164 
  24   1.0000      -0.793941       -21.6042 
  25   1.0000      -0.780172       -21.2296 
  26   1.0000      -0.758284       -20.6339 
  27   1.0000      -0.752229       -20.4692 
  28   1.0000      -0.727777       -19.8038 
  29   1.0000      -0.721391       -19.6300 
  30   1.0000      -0.701244       -19.0818 
  31   1.0000      -0.664192       -18.0736 
  32   1.0000      -0.641342       -17.4518 
  33   1.0000      -0.633687       -17.2435 
  34   1.0000      -0.606797       -16.5118 
  35   1.0000      -0.587433       -15.9849 
  36   1.0000      -0.577099       -15.7037 
  37   1.0000      -0.567521       -15.4430 
  38   1.0000      -0.561334       -15.2747 
  39   1.0000      -0.544831       -14.8256 
  40   1.0000      -0.527630       -14.3575 
  41   1.0000      -0.499918       -13.6034 
  42   1.0000      -0.485546       -13.2124 
  43   1.0000      -0.480811       -13.0835 
  44   1.0000      -0.474986       -12.9250 
  45   1.0000      -0.471156       -12.8208 
  46   1.0000      -0.459038       -12.4911 
  47   1.0000      -0.431571       -11.7436 
  48   1.0000      -0.427016       -11.6197 
  49   1.0000      -0.424502       -11.5513 
  50   1.0000      -0.420607       -11.4453 
  51   1.0000      -0.418333       -11.3834 
  52   1.0000      -0.409702       -11.1486 
  53   1.0000      -0.397707       -10.8222 
  54   1.0000      -0.391234       -10.6460 
  55   1.0000      -0.385379       -10.4867 
  56   1.0000      -0.373262       -10.1570 
  57   1.0000      -0.370715       -10.0877 
  58   1.0000      -0.360358        -9.8058 
  59   1.0000      -0.358669        -9.7599 
  60   1.0000      -0.355051        -9.6614 
  61   1.0000      -0.342838        -9.3291 
  62   1.0000      -0.339890        -9.2489 
  63   1.0000      -0.330675        -8.9981 
  64   1.0000      -0.328704        -8.9445 
  65   1.0000      -0.325286        -8.8515 
  66   1.0000      -0.325123        -8.8470 
  67   1.0000      -0.321892        -8.7591 
  68   1.0000      -0.321622        -8.7518 
  69   1.0000      -0.320235        -8.7140 
  70   1.0000      -0.310397        -8.4463 
  71   1.0000      -0.280390        -7.6298 
  72   1.0000      -0.277510        -7.5514 
  73   1.0000      -0.276401        -7.5213 
  74   1.0000      -0.246875        -6.7178 
  75   1.0000      -0.220712        -6.0059 
  76   0.0000      -0.054168        -1.4740 
  77   0.0000      -0.051079        -1.3899 
  78   0.0000      -0.006505        -0.1770 
  79   0.0000       0.018482         0.5029 
  80   0.0000       0.021670         0.5897 
  81   0.0000       0.024214         0.6589 
  82   0.0000       0.029743         0.8093 
  83   0.0000       0.034072         0.9271 
  84   0.0000       0.036454         0.9920 
  85   0.0000       0.039069         1.0631 
  86   0.0000       0.041859         1.1390 
  87   0.0000       0.042249         1.1496 
  88   0.0000       0.045075         1.2266 
  89   0.0000       0.045447         1.2367 
  90   0.0000       0.053565         1.4576 
  91   0.0000       0.060418         1.6441 
  92   0.0000       0.072345         1.9686 
  93   0.0000       0.082764         2.2521 
  94   0.0000       0.089999         2.4490 
  95   0.0000       0.097167         2.6440 
  96   0.0000       0.104049         2.8313 
  97   0.0000       0.108321         2.9476 
  98   0.0000       0.117313         3.1923 
  99   0.0000       0.126819         3.4509 
 100   0.0000       0.148273         4.0347 
 101   0.0000       0.151607         4.1254 
 102   0.0000       0.155082         4.2200 
 103   0.0000       0.155449         4.2300 
 104   0.0000       0.160334         4.3629 
 105   0.0000       0.170442         4.6380 
 106   0.0000       0.172039         4.6814 
 107   0.0000       0.177860         4.8398 
 108   0.0000       0.186113         5.0644 
 109   0.0000       0.187383         5.0989 
 110   0.0000       0.191505         5.2111 
 111   0.0000       0.193041         5.2529 
 112   0.0000       0.197566         5.3760 
 113   0.0000       0.200284         5.4500 
 114   0.0000       0.200397         5.4531 
 115   0.0000       0.209845         5.7102 
 116   0.0000       0.213331         5.8050 
 117   0.0000       0.218714         5.9515 
 118   0.0000       0.219197         5.9646 
 119   0.0000       0.219518         5.9734 
 120   0.0000       0.222618         6.0578 
 121   0.0000       0.228645         6.2217 
 122   0.0000       0.232382         6.3234 
 123   0.0000       0.238590         6.4924 
 124   0.0000       0.248741         6.7686 
 125   0.0000       0.249050         6.7770 
 126   0.0000       0.254683         6.9303 
 127   0.0000       0.256145         6.9701 
[...]
  Z           0.8500178           -0.0549871           -0.5238760

Notes:  (1) The A matrix conforms to the "SAI" spin Hamiltonian convention.
        (2) Tensor is right-handed.

 -----------------------------------------------------------
 Nucleus  45H : A:ISTP=    1 I=  0.5 P=533.5514 MHz/au**3
                Q:ISTP=    2 I=  1.0 Q=  0.0029 barn     
 -----------------------------------------------------------
 Solving for nuclear perturbation:
Forming RHS of the CP-SCF equations         ... 
Calc. nucleus orbit integrals (SHARK)       ... done

------------------------------------------------------------------------------
                           ORCA CP-SCF CALCULATION
------------------------------------------------------------------------------

Input orbitals are from        ... EPRII_i.gbw
Input Perturbation             ... EPRII_i.pin.tmp
Wavefunction output            ... EPRII_i.pout.tmp
Perturbation mode              ... Imaginary perturbation
Solver                         ... POPLE
Max. number of iterations      ... 64
Convergence tolerance          ... 1.000e-03
Integral handling              ... Direct
DFT GridXC                     ... 1
COSX GridX                     ... 1
COSX IntAccX                   ... 3.067
COSX Algorithm                 ... Auto
Number of perturbations        ... 3
Number of operators            ... 2
Orbital ranges used for CP-SCF:
 Operator 0:  Orbitals   0... 76  to  77...545
 Operator 1:  Orbitals   0... 75  to  76...545
Variables per perturbation     ... 71833
DFT calculation                         ... on
XC functional terms                     ... off
Hybrid DFT                              ... on
   Exchange mixing (SCF)                ...  0.200
   Exchange mixing (CP-SCF)             ...  0.200
   GGA exch. scaling(SCF)               ...  0.720
   GGA exch. scaling (CP-SCF)           ...  0.720
   GGA corr. scaling (SCF)              ...  0.810
   GGA corr. scaling (CP-SCF)           ...  0.810

CP-SCF GRID
-----------

General Integration Accuracy     IntAcc      ... 3.467
Radial Grid Type                 RadialGrid  ... OptM3 with GC (2021)
Angular Grid (max. ang.)         AngularGrid ... 1 (Lebedev-50)
Angular grid pruning method      GridPruning ... 4 (adaptive)
Weight generation scheme         WeightScheme... Becke
Basis function cutoff            BFCut       ... 1.0000e-10
Integration weight cutoff        WCut        ... 1.0000e-14
Angular grids for H and He will be reduced by one unit
Partially contracted basis set               ... off
Rotationally invariant grid construction     ... off

Total number of grid points                  ...    29730
Total number of batches                      ...      486
Average number of points per batch           ...       61
Average number of grid points per atom       ...      619

CP-SCF GRIDX
------------

General Integration Accuracy     IntAcc      ... 3.067
Radial Grid Type                 RadialGrid  ... OptM3 with GC (2021)
Angular Grid (max. ang.)         AngularGrid ... 1 (Lebedev-50)
Angular grid pruning method      GridPruning ... 4 (adaptive)
Weight generation scheme         WeightScheme... Becke
Basis function cutoff            BFCut       ... 1.0000e-10
Integration weight cutoff        WCut        ... 1.0000e-14
Angular grids for H and He will be reduced by one unit
Partially contracted basis set               ... on
Rotationally invariant grid construction     ... off

Total number of grid points                  ...    14092
Total number of batches                      ...      249
Average number of points per batch           ...       56
Average number of grid points per atom       ...      294

Memory available               ... 863.9 MB
Memory needed per perturbation ...  17.4 MB
Perturbations treated per batch... 3
Number of batches              ... 1
     CP-SCF ITERATION   0:   1.0411e-01 (   1.8 sec   0/  3 done)
     CP-SCF ITERATION   1:   1.7416e-03 (   1.9 sec   2/  3 done)
     CP-SCF ITERATION   2:   8.8636e-05 (   1.3 sec   3/  3 done)
                    *** THE CP-SCF HAS CONVERGED ***

Forming final perturbed densities           ... done
Transforming perturbed density to AO basis  ... done

 Raw HFC matrix (all values in MHz): 
 -----------------------------------
                 0.0005               0.0644               0.0012
                 0.0644               0.0455               0.0017
                 0.0012               0.0017              -0.0461

 A(FC)          -0.0000              -0.0000              -0.0000
 A(SD)          -0.0452              -0.0461               0.0913
 A(ORB+DIA)      0.0000               0.0000               0.0000    A(PC) =   0.0000
 A(ORB)         -0.0000              -0.0000               0.0000    A(PC) =   0.0000
 A(DIA)          0.0000               0.0000               0.0000    A(PC) =   0.0000
             ----------           ----------           ----------
 A(Tot)         -0.0452              -0.0461               0.0913    A(iso)=   -0.0000
 Orientation: 
  X           0.8154130            0.0083936            0.5788188
  Y          -0.5788796            0.0124449            0.8153181
  Z          -0.0003599           -0.9998873            0.0150066

Notes:  (1) The A matrix conforms to the "SAI" spin Hamiltonian convention.
        (2) Tensor is right-handed.

 -----------------------------------------------------------
 Nucleus  46H : A:ISTP=    1 I=  0.5 P=533.5514 MHz/au**3
                Q:ISTP=    2 I=  1.0 Q=  0.0029 barn     
 -----------------------------------------------------------
 Solving for nuclear perturbation:
Forming RHS of the CP-SCF equations         ... 
Calc. nucleus orbit integrals (SHARK)       ... done

------------------------------------------------------------------------------
                           ORCA CP-SCF CALCULATION
------------------------------------------------------------------------------

Input orbitals are from        ... EPRII_i.gbw
Input Perturbation             ... EPRII_i.pin.tmp
Wavefunction output            ... EPRII_i.pout.tmp
Perturbation mode              ... Imaginary perturbation
Solver                         ... POPLE
Max. number of iterations      ... 64
Convergence tolerance          ... 1.000e-03
Integral handling              ... Direct
DFT GridXC                     ... 1
COSX GridX                     ... 1
COSX IntAccX                   ... 3.067
COSX Algorithm                 ... Auto
Number of perturbations        ... 3
Number of operators            ... 2
Orbital ranges used for CP-SCF:
 Operator 0:  Orbitals   0... 76  to  77...545
 Operator 1:  Orbitals   0... 75  to  76...545
Variables per perturbation     ... 71833
DFT calculation                         ... on
XC functional terms                     ... off
Hybrid DFT                              ... on
   Exchange mixing (SCF)                ...  0.200
   Exchange mixing (CP-SCF)             ...  0.200
   GGA exch. scaling(SCF)               ...  0.720
   GGA exch. scaling (CP-SCF)           ...  0.720
   GGA corr. scaling (SCF)              ...  0.810
   GGA corr. scaling (CP-SCF)           ...  0.810

CP-SCF GRID
-----------

General Integration Accuracy     IntAcc      ... 3.467
Radial Grid Type                 RadialGrid  ... OptM3 with GC (2021)
Angular Grid (max. ang.)         AngularGrid ... 1 (Lebedev-50)
Angular grid pruning method      GridPruning ... 4 (adaptive)
Weight generation scheme         WeightScheme... Becke
Basis function cutoff            BFCut       ... 1.0000e-10
Integration weight cutoff        WCut        ... 1.0000e-14
Angular grids for H and He will be reduced by one unit
Partially contracted basis set               ... off
Rotationally invariant grid construction     ... off

Total number of grid points                  ...    29730
Total number of batches                      ...      486
Average number of points per batch           ...       61
Average number of grid points per atom       ...      619

CP-SCF GRIDX
------------

General Integration Accuracy     IntAcc      ... 3.067
Radial Grid Type                 RadialGrid  ... OptM3 with GC (2021)
Angular Grid (max. ang.)         AngularGrid ... 1 (Lebedev-50)
Angular grid pruning method      GridPruning ... 4 (adaptive)
Weight generation scheme         WeightScheme... Becke
Basis function cutoff            BFCut       ... 1.0000e-10
Integration weight cutoff        WCut        ... 1.0000e-14
Angular grids for H and He will be reduced by one unit
Partially contracted basis set               ... on
Rotationally invariant grid construction     ... off

Total number of grid points                  ...    14092
Total number of batches                      ...      249
Average number of points per batch           ...       56
Average number of grid points per atom       ...      294

Memory available               ... 863.3 MB
Memory needed per perturbation ...  17.4 MB
Perturbations treated per batch... 3
Number of batches              ... 1
     CP-SCF ITERATION   0:   1.0411e-01 (   1.8 sec   0/  3 done)
     CP-SCF ITERATION   1:   1.7455e-03 (   1.9 sec   2/  3 done)
     CP-SCF ITERATION   2:   8.8710e-05 (   1.5 sec   3/  3 done)
                    *** THE CP-SCF HAS CONVERGED ***

Forming final perturbed densities           ... done
Transforming perturbed density to AO basis  ... done

 Raw HFC matrix (all values in MHz): 
 -----------------------------------
                -0.0438              -0.0582              -0.0009
                -0.0583               0.1096               0.0027
                -0.0009               0.0027              -0.0649

 A(FC)           0.0003               0.0003               0.0003
 A(SD)          -0.0637              -0.0652               0.1289
 A(ORB+DIA)      0.0000               0.0000               0.0000    A(PC) =   0.0000
 A(ORB)         -0.0000              -0.0000               0.0000    A(PC) =  -0.0000
 A(DIA)          0.0000               0.0000               0.0000    A(PC) =   0.0000
             ----------           ----------           ----------
 A(Tot)         -0.0634              -0.0649               0.1292    A(iso)=    0.0003
 Orientation: 
  X           0.9477570            0.0054431           -0.3189468
  Y           0.3188151            0.0172519            0.9476599
  Z           0.0106606           -0.9998364            0.0146152

Notes:  (1) The A matrix conforms to the "SAI" spin Hamiltonian convention.
        (2) Tensor is right-handed.

 -----------------------------------------------------------
 Nucleus  47H : A:ISTP=    1 I=  0.5 P=533.5514 MHz/au**3
                Q:ISTP=    2 I=  1.0 Q=  0.0029 barn     
 -----------------------------------------------------------
 Solving for nuclear perturbation:
Forming RHS of the CP-SCF equations         ... 
Calc. nucleus orbit integrals (SHARK)       ... done

------------------------------------------------------------------------------
                           ORCA CP-SCF CALCULATION
------------------------------------------------------------------------------

Input orbitals are from        ... EPRII_i.gbw
Input Perturbation             ... EPRII_i.pin.tmp
Wavefunction output            ... EPRII_i.pout.tmp
Perturbation mode              ... Imaginary perturbation
Solver                         ... POPLE
Max. number of iterations      ... 64
Convergence tolerance          ... 1.000e-03
Integral handling              ... Direct
DFT GridXC                     ... 1
COSX GridX                     ... 1
COSX IntAccX                   ... 3.067
COSX Algorithm                 ... Auto
Number of perturbations        ... 3
Number of operators            ... 2
Orbital ranges used for CP-SCF:
 Operator 0:  Orbitals   0... 76  to  77...545
 Operator 1:  Orbitals   0... 75  to  76...545
Variables per perturbation     ... 71833
DFT calculation                         ... on
XC functional terms                     ... off
Hybrid DFT                              ... on
   Exchange mixing (SCF)                ...  0.200
   Exchange mixing (CP-SCF)             ...  0.200
   GGA exch. scaling(SCF)               ...  0.720
   GGA exch. scaling (CP-SCF)           ...  0.720
   GGA corr. scaling (SCF)              ...  0.810
   GGA corr. scaling (CP-SCF)           ...  0.810

CP-SCF GRID
-----------

General Integration Accuracy     IntAcc      ... 3.467
Radial Grid Type                 RadialGrid  ... OptM3 with GC (2021)
Angular Grid (max. ang.)         AngularGrid ... 1 (Lebedev-50)
Angular grid pruning method      GridPruning ... 4 (adaptive)
Weight generation scheme         WeightScheme... Becke
Basis function cutoff            BFCut       ... 1.0000e-10
Integration weight cutoff        WCut        ... 1.0000e-14
Angular grids for H and He will be reduced by one unit
Partially contracted basis set               ... off
Rotationally invariant grid construction     ... off

Total number of grid points                  ...    29730
Total number of batches                      ...      486
Average number of points per batch           ...       61
Average number of grid points per atom       ...      619

CP-SCF GRIDX
------------

General Integration Accuracy     IntAcc      ... 3.067
Radial Grid Type                 RadialGrid  ... OptM3 with GC (2021)
Angular Grid (max. ang.)         AngularGrid ... 1 (Lebedev-50)
Angular grid pruning method      GridPruning ... 4 (adaptive)
Weight generation scheme         WeightScheme... Becke
Basis function cutoff            BFCut       ... 1.0000e-10
Integration weight cutoff        WCut        ... 1.0000e-14
Angular grids for H and He will be reduced by one unit
Partially contracted basis set               ... on
Rotationally invariant grid construction     ... off

Total number of grid points                  ...    14092
Total number of batches                      ...      249
Average number of points per batch           ...       56
Average number of grid points per atom       ...      294

Memory available               ... 862.7 MB
Memory needed per perturbation ...  17.4 MB
Perturbations treated per batch... 3
Number of batches              ... 1
     CP-SCF ITERATION   0:   3.7299e-02 (   1.8 sec   0/  3 done)
     CP-SCF ITERATION   1:   6.2197e-04 (   1.9 sec   3/  3 done)
                    *** THE CP-SCF HAS CONVERGED ***

Forming final perturbed densities           ... done
Transforming perturbed density to AO basis  ... done

 Raw HFC matrix (all values in MHz): 
 -----------------------------------
                -0.0129               0.0080               0.0002
                 0.0080               0.0275               0.0008
                 0.0002               0.0008              -0.0145

 A(FC)           0.0000               0.0000               0.0000
 A(SD)          -0.0145              -0.0146               0.0291
 A(ORB+DIA)      0.0000               0.0000               0.0000    A(PC) =   0.0000
 A(ORB)         -0.0000              -0.0000               0.0000    A(PC) =  -0.0000
 A(DIA)          0.0000               0.0000               0.0000    A(PC) =   0.0000
             ----------           ----------           ----------
 A(Tot)         -0.0145              -0.0145               0.0291    A(iso)=    0.0000
 Orientation: 
  X           0.9820120            0.0162022            0.1881220
  Y          -0.1883761            0.0159086            0.9819681
  Z           0.0129173           -0.9997422            0.0186745

Notes:  (1) The A matrix conforms to the "SAI" spin Hamiltonian convention.
        (2) Tensor is right-handed.


--------------------------------------------------------------------------------
----------------------------------------------------------------------------
                           ORCA EULER ANGLE PROGRAM
----------------------------------------------------------------------------

Only g-tensor available        -->  using g-tensor as reference tensor

Reference tensor               ...  g

g-tensor ordering              ...  |g_min> --> |gx>
                                    |g_mid> --> |gy>
                                    |g_max> --> |gz>

A- and EFG-tensor ordering     ...  the axes |Ax>, |Qx>, |Ay>, etc. are assigned
                                    such that the Euler rotation is minimal. You
                                    can find the respective eigenvalues as Ax,
                                    EFGx, Ay, etc. in the tables below.
                                    The relation of |Ax>, |Ay>,  etc. to Amin, Amid, etc.
                                    (as printed in the ORCA EPR/NMR CALCULATION Output)
                                    is obtained in the detailed printout.

Euler rotation around          ...  z - y - z
   First rotation              -->  by alpha around z
   Second rotation             -->  by beta around y'
   Third rotation              -->  by gamma around z''
   Positive / Negative angle   -->  clockwise / counterclockwise rotation

Plot EFG-tensors                    (-)
Plot HFC-tensors                    (-)
Detailed Printout                   (-)

-------------------------------------------------------------------------
          Euler rotation of hyperfine tensor to g-tensor
-------------------------------------------------------------------------

-------------------------------------------------------------------
 Atom  |   Alpha    Beta    Gamma   |   Ax       Ay       Az 
       |          [degrees]         |           [MHz]         
-------------------------------------------------------------------
  9H      179.3     31.5   -179.2      -0.04    -0.04     0.10
 10H      179.9     11.2   -179.3      -0.13    -0.15     0.28
 12H      161.4     16.6   -165.2      -0.04    -0.04     0.07
 13H     -163.5     16.5    167.3      -0.04    -0.04     0.07
 15H      166.9     26.5   -170.8      -0.03    -0.03     0.06
 16H     -168.9     26.5    172.6      -0.03    -0.03     0.06
 18H     -166.4     18.9    171.1      -0.02    -0.02     0.04
 19H      163.9     19.0   -168.7      -0.02    -0.02     0.04
 21H     -173.8     27.2    174.2      -0.02    -0.02     0.03
 22H      171.7     27.3   -172.3      -0.02    -0.02     0.03
 24H      156.3     40.4    167.5      -0.18    -0.22     0.38
 25H     -157.1     40.5   -166.6      -0.18    -0.22     0.38
 27H       98.4     18.6   -137.9      -0.36    -0.49     0.55
 28H      -99.7     18.2    139.3      -0.36    -0.49     0.55
 30H       16.6     46.3    -43.2       1.55    -0.55    -0.32
 31H      -16.0     45.9     43.0       1.55    -0.55    -0.32
 33H      -58.3     17.3     98.9      -1.38    -2.27     1.70
 34H       58.0     17.9    -98.6      -1.38    -2.28     1.70
 36H      -24.4     28.9     61.1       3.37    -9.64    -6.19
 37H       25.1     29.5    -61.7       3.37    -9.64    -6.18
 39H       95.2     25.9    -66.0      28.50    28.07    42.14
 40H      -94.6     25.3     65.3      28.60    28.17    42.23
 42H      -77.9     30.4     82.6     -64.86   -24.62  -102.73
 43H       78.1     31.1    -82.8     -64.86   -24.62  -102.73
 45H        2.9      1.4     -2.7      -0.05    -0.05     0.09
 46H        0.3     37.5      0.3       0.13    -0.06    -0.06
 47H      178.8     23.1   -178.9      -0.01    -0.01     0.03
-------------------------------------------------------------------


Maximum memory used throughout the entire EPRNMR-calculation: 247.0 MB

Timings for individual modules:

Sum of individual times         ...     4662.111 sec (=  77.702 min)
GTO integral calculation        ...        5.372 sec (=   0.090 min)   0.1 %
Spin-Orbit-Coupling Matrices    ...       12.861 sec (=   0.214 min)   0.3 %
SCF iterations                  ...       77.857 sec (=   1.298 min)   1.7 %
EPR/NMR calculation             ...     4566.021 sec (=  76.100 min)  97.9 %
                             ****ORCA TERMINATED NORMALLY****
TOTAL RUN TIME: 0 days 1 hours 17 minutes 46 seconds 546 msec
