
                                 *****************
                                 * O   R   C   A *
                                 *****************

                                            #,                                       
                                            ###                                      
                                            ####                                     
                                            #####                                    
                                            ######                                   
                                           ########,                                 
                                     ,,################,,,,,                         
                               ,,#################################,,                 
                          ,,##########################################,,             
                       ,#########################################, ''#####,          
                    ,#############################################,,   '####,        
                  ,##################################################,,,,####,       
                ,###########''''           ''''###############################       
              ,#####''   ,,,,##########,,,,          '''####'''          '####       
            ,##' ,,,,###########################,,,                        '##       
           ' ,,###''''                  '''############,,,                           
         ,,##''                                '''############,,,,        ,,,,,,###''
      ,#''                                            '''#######################'''  
     '                                                          ''''####''''         
             ,#######,   #######,   ,#######,      ##                                
            ,#'     '#,  ##    ##  ,#'     '#,    #''#        ######   ,####,        
            ##       ##  ##   ,#'  ##            #'  '#       #        #'  '#        
            ##       ##  #######   ##           ,######,      #####,   #    #        
            '#,     ,#'  ##    ##  '#,     ,#' ,#      #,         ##   #,  ,#        
             '#######'   ##     ##  '#######'  #'      '#     #####' # '####'        



                  #######################################################
                  #                        -***-                        #
                  #          Department of theory and spectroscopy      #
                  #    Directorship and core code : Frank Neese         #
                  #        Max Planck Institute fuer Kohlenforschung    #
                  #                Kaiser Wilhelm Platz 1               #
                  #                 D-45470 Muelheim/Ruhr               #
                  #                      Germany                        #
                  #                                                     #
                  #                  All rights reserved                #
                  #                        -***-                        #
                  #######################################################


                         Program Version 5.0.4 -  RELEASE  -


 With contributions from (in alphabetic order):
   Daniel Aravena         : Magnetic Suceptibility
   Michael Atanasov       : Ab Initio Ligand Field Theory (pilot matlab implementation)
   Alexander A. Auer      : GIAO ZORA, VPT2 properties, NMR spectrum
   Ute Becker             : Parallelization
   Giovanni Bistoni       : ED, misc. LED, open-shell LED, HFLD
   Martin Brehm           : Molecular dynamics
   Dmytro Bykov           : SCF Hessian
   Vijay G. Chilkuri      : MRCI spin determinant printing, contributions to CSF-ICE
   Dipayan Datta          : RHF DLPNO-CCSD density
   Achintya Kumar Dutta   : EOM-CC, STEOM-CC
   Dmitry Ganyushin       : Spin-Orbit,Spin-Spin,Magnetic field MRCI
   Miquel Garcia          : C-PCM and meta-GGA Hessian, CC/C-PCM, Gaussian charge scheme
   Yang Guo               : DLPNO-NEVPT2, F12-NEVPT2, CIM, IAO-localization
   Andreas Hansen         : Spin unrestricted coupled pair/coupled cluster methods
   Benjamin Helmich-Paris : MC-RPA, TRAH-SCF, COSX integrals
   Lee Huntington         : MR-EOM, pCC
   Robert Izsak           : Overlap fitted RIJCOSX, COSX-SCS-MP3, EOM
   Marcus Kettner         : VPT2
   Christian Kollmar      : KDIIS, OOCD, Brueckner-CCSD(T), CCSD density, CASPT2, CASPT2-K
   Simone Kossmann        : Meta GGA functionals, TD-DFT gradient, OOMP2, MP2 Hessian
   Martin Krupicka        : Initial AUTO-CI
   Lucas Lang             : DCDCAS
   Marvin Lechner         : AUTO-CI (C++ implementation), FIC-MRCC
   Dagmar Lenk            : GEPOL surface, SMD
   Dimitrios Liakos       : Extrapolation schemes; Compound Job, initial MDCI parallelization
   Dimitrios Manganas     : Further ROCIS development; embedding schemes
   Dimitrios Pantazis     : SARC Basis sets
   Anastasios Papadopoulos: AUTO-CI, single reference methods and gradients
   Taras Petrenko         : DFT Hessian,TD-DFT gradient, ASA, ECA, R-Raman, ABS, FL, XAS/XES, NRVS
   Peter Pinski           : DLPNO-MP2, DLPNO-MP2 Gradient
   Christoph Reimann      : Effective Core Potentials
   Marius Retegan         : Local ZFS, SOC
   Christoph Riplinger    : Optimizer, TS searches, QM/MM, DLPNO-CCSD(T), (RO)-DLPNO pert. Triples
   Tobias Risthaus        : Range-separated hybrids, TD-DFT gradient, RPA, STAB
   Michael Roemelt        : Original ROCIS implementation
   Masaaki Saitow         : Open-shell DLPNO-CCSD energy and density
   Barbara Sandhoefer     : DKH picture change effects
   Avijit Sen             : IP-ROCIS
   Kantharuban Sivalingam : CASSCF convergence, NEVPT2, FIC-MRCI
   Bernardo de Souza      : ESD, SOC TD-DFT
   Georgi Stoychev        : AutoAux, RI-MP2 NMR, DLPNO-MP2 response
   Willem Van den Heuvel  : Paramagnetic NMR
   Boris Wezisla          : Elementary symmetry handling
   Frank Wennmohs         : Technical directorship


 We gratefully acknowledge several colleagues who have allowed us to
 interface, adapt or use parts of their codes:
   Stefan Grimme, W. Hujo, H. Kruse, P. Pracht,  : VdW corrections, initial TS optimization,
                  C. Bannwarth, S. Ehlert          DFT functionals, gCP, sTDA/sTD-DF
   Ed Valeev, F. Pavosevic, A. Kumar             : LibInt (2-el integral package), F12 methods
   Garnet Chan, S. Sharma, J. Yang, R. Olivares  : DMRG
   Ulf Ekstrom                                   : XCFun DFT Library
   Mihaly Kallay                                 : mrcc  (arbitrary order and MRCC methods)
   Jiri Pittner, Ondrej Demel                    : Mk-CCSD
   Frank Weinhold                                : gennbo (NPA and NBO analysis)
   Christopher J. Cramer and Donald G. Truhlar   : smd solvation model
   Lars Goerigk                                  : TD-DFT with DH, B97 family of functionals
   V. Asgeirsson, H. Jonsson                     : NEB implementation
   FAccTs GmbH                                   : IRC, NEB, NEB-TS, DLPNO-Multilevel, CI-OPT
                                                   MM, QMMM, 2- and 3-layer-ONIOM, Crystal-QMMM,
                                                   LR-CPCM, SF, NACMEs, symmetry and pop. for TD-DFT,
                                                   nearIR, NL-DFT gradient (VV10), updates on ESD,
                                                   ML-optimized integration grids
   S Lehtola, MJT Oliveira, MAL Marques          : LibXC Library
   Liviu Ungur et al                             : ANISO software


 Your calculation uses the libint2 library for the computation of 2-el integrals
 For citations please refer to: http://libint.valeyev.net

 Your ORCA version has been built with support for libXC version: 5.1.0
 For citations please refer to: https://tddft.org/programs/libxc/

 This ORCA versions uses:
   CBLAS   interface :  Fast vector & matrix operations
   LAPACKE interface :  Fast linear algebra routines
   SCALAPACK package :  Parallel linear algebra routines
   Shared memory     :  Shared parallel matrices
   BLAS/LAPACK       :  OpenBLAS 0.3.15  USE64BITINT DYNAMIC_ARCH NO_AFFINITY SkylakeX SINGLE_THREADED
        Core in use  :  SkylakeX
   Copyright (c) 2011-2014, The OpenBLAS Project




***************************************
The coordinates will be read from file: model.xyz
***************************************


================================================================================

----- Orbital basis set information -----
Your calculation utilizes the basis: cc-pVDZ 
       H, B-Ne : Obtained from the ccRepo (grant-hill.group.shef.ac.uk/ccrepo) Feb. 2017
                 T. H. Dunning, Jr., J. Chem. Phys. 90, 1007 (1989)
            He : Obtained from the ccRepo (grant-hill.group.shef.ac.uk/ccrepo) Feb. 2017
                 D. E. Woon, T. H. Dunning, Jr., J. Chem. Phys. 100, 2975 (1994)
  Li-Be, Na-Mg : Obtained from the ccRepo (grant-hill.group.shef.ac.uk/ccrepo) Feb. 2017
                 B. P. Prascher, D. E. Woon, K. A. Peterson, T. H. Dunning, Jr., A. K. Wilson, Theor. Chem. Acc. 128, 69 (2011)
         Al-Ar : Obtained from the ccRepo (grant-hill.group.shef.ac.uk/ccrepo) Feb. 2017
                 D. E. Woon, T. H. Dunning, Jr., J. Chem. Phys. 98, 1358 (1993)
            Ca : Obtained from the Peterson Research Group Website (tyr0.chem.wsu.edu/~kipeters) Feb. 2017
                 J. Koput, K. A. Peterson, J. Phys. Chem. 106, 9595 (2002)
         Sc-Zn : Obtained from the ccRepo (grant-hill.group.shef.ac.uk/ccrepo) Feb. 2017
                 N. B. Balabanov, K. A. Peterson, J. Chem. Phys. 123, 064107 (2005)
                 N. B. Balabanov, K. A. Peterson, J. Chem. Phys. 125, 074110 (2006)
         Ga-Kr : Obtained from the ccRepo (grant-hill.group.shef.ac.uk/ccrepo) Feb. 2017
                 A. K. Wilson, D. E. Woon, K. A. Peterson, T. H. Dunning, Jr., J. Chem. Phys. 110, 7667 (1999)

----- AuxJ basis set information -----
Your calculation utilizes the auxiliary basis: def2/J
   F. Weigend, Phys. Chem. Chem. Phys. 8, 1057 (2006).

================================================================================
                                        WARNINGS
                       Please study these warnings very carefully!
================================================================================


WARNING: your system is open-shell and RHF/RKS was chosen
  ===> : WILL SWITCH to UHF/UKS


WARNING: Geometry Optimization
  ===> : Switching off AutoStart
         For restart on a previous wavefunction, please use MOREAD

INFO   : the flag for use of the SHARK integral package has been found!

================================================================================
                                       INPUT FILE
================================================================================
NAME = opt.inp
|  1> ! B3LYP cc-pVDZ OPT
|  2> %pal nprocs 16 end
|  3> *XYZFile 0 2 model.xyz
|  4> 
|  5>                          ****END OF INPUT****
================================================================================

                       *****************************
                       * Geometry Optimization Run *
                       *****************************

Geometry optimization settings:
Update method            Update   .... BFGS
Choice of coordinates    CoordSys .... Z-matrix Internals
Initial Hessian          InHess   .... Almoef's Model

Convergence Tolerances:
Energy Change            TolE     ....  5.0000e-06 Eh
Max. Gradient            TolMAXG  ....  3.0000e-04 Eh/bohr
RMS Gradient             TolRMSG  ....  1.0000e-04 Eh/bohr
Max. Displacement        TolMAXD  ....  4.0000e-03 bohr
RMS Displacement         TolRMSD  ....  2.0000e-03 bohr
Strict Convergence                ....  False
------------------------------------------------------------------------------
                        ORCA OPTIMIZATION COORDINATE SETUP
------------------------------------------------------------------------------

The optimization will be done in new redundant internal coordinates
Making redundant internal coordinates   ...  (new redundants) done
Evaluating the initial hessian          ...  (Almloef) done
Evaluating the coordinates              ...  done
Calculating the B-matrix                .... done
Calculating the G-matrix                .... done
Diagonalizing the G-matrix              .... done
Small eigenvalue found = 9.068e-04
Small eigenvalue found = 3.617e-03
Small eigenvalue found = 4.257e-03
Small eigenvalue found = 9.722e-03
Small eigenvalue found = 1.231e-02
Small eigenvalue found = 1.517e-02
Small eigenvalue found = 1.950e-02
Small eigenvalue found = 2.845e-02
The first mode is                       ....  113
The number of degrees of freedom        ....  138

    -----------------------------------------------------------------
                    Redundant Internal Coordinates


    -----------------------------------------------------------------
         Definition                    Initial Value    Approx d2E/dq
    -----------------------------------------------------------------
      1. B(C   1,C   0)                  1.2161         1.183386   
      2. B(C   3,C   1)                  1.4327         0.534086   
      3. B(C   4,C   3)                  1.4186         0.562434   
      4. B(C   5,C   4)                  1.3955         0.612309   
      5. B(C   6,C   5)                  1.4092         0.582143   
      6. B(C   6,C   2)                  1.4327         0.534111   
      7. B(C   7,C   6)                  1.4187         0.562353   
      8. B(C   8,C   7)                  1.3955         0.612339   
      9. B(C   8,C   3)                  1.4093         0.581936   
     10. B(H   9,C   5)                  1.0898         0.360325   
     11. B(H  10,C   8)                  1.0898         0.360349   
     12. B(C  11,C   4)                  1.5167         0.392304   
     13. B(H  12,C  11)                  1.1053         0.340443   
     14. B(H  13,C  11)                  1.1059         0.339644   
     15. B(C  14,C  11)                  1.5310         0.372270   
     16. B(H  15,C  14)                  1.1057         0.339927   
     17. B(H  16,C  14)                  1.1057         0.339946   
     18. B(C  17,C  14)                  1.5337         0.368529   
     19. B(H  18,C  17)                  1.1058         0.339755   
     20. B(H  19,C  17)                  1.1058         0.339731   
     21. B(C  20,C  17)                  1.5307         0.372667   
     22. B(H  21,C  20)                  1.1037         0.342388   
     23. B(H  22,C  20)                  1.1037         0.342423   
     24. B(C  23,C   7)                  1.5167         0.392278   
     25. B(H  24,C  23)                  1.1059         0.339664   
     26. B(H  25,C  23)                  1.1051         0.340639   
     27. B(C  26,C  23)                  1.5312         0.371949   
     28. B(H  27,C  26)                  1.1055         0.340149   
     29. B(H  28,C  26)                  1.1055         0.340217   
     30. B(C  29,C  26)                  1.5333         0.369022   
     31. B(H  30,C  29)                  1.1065         0.338938   
     32. B(H  31,C  29)                  1.1066         0.338835   
     33. B(C  32,C  29)                  1.5327         0.369829   
     34. B(H  33,C  32)                  1.1068         0.338567   
     35. B(H  34,C  32)                  1.1068         0.338576   
     36. B(C  35,C  32)                  1.5325         0.370139   
     37. B(H  36,C  35)                  1.1071         0.338193   
     38. B(H  37,C  35)                  1.1070         0.338318   
     39. B(C  38,C  35)                  1.5330         0.369485   
     40. B(H  39,C  38)                  1.1061         0.339403   
     41. B(H  40,C  38)                  1.1061         0.339367   
     42. B(C  41,C  38)                  1.5309         0.372385   
     43. B(H  42,C  41)                  1.1039         0.342230   
     44. B(H  43,C  41)                  1.1039         0.342211   
     45. B(C  44,C   2)                  1.2161         1.183410   
     46. B(H  45,C   0)                  1.0724         0.384090   
     47. B(H  46,C  44)                  1.0724         0.384084   
     48. B(H  47,C  20)                  1.1021         0.344433   
     49. L(C   1,C   0,H  45, 2)       179.9023         0.398981   
     50. L(C   1,C   0,H  45, 1)       179.9794         0.398981   
     51. L(C   0,C   1,C   3,C   8, 1) 179.5752         0.475172   
     52. L(C   0,C   1,C   3,C   8, 2) 180.4408         0.475172   
     53. L(C   6,C   2,C  44,C   5, 2) 179.7652         0.475178   
     54. L(C   6,C   2,C  44,C   5, 1) 179.4917         0.475178   
     55. A(C   1,C   3,C   8)          118.9597         0.417861   
     56. A(C   4,C   3,C   8)          120.3619         0.421733   
     57. A(C   1,C   3,C   4)          120.6783         0.415333   
     58. A(C   3,C   4,C  11)          119.8919         0.393323   
     59. A(C   5,C   4,C  11)          122.7952         0.399232   
     60. A(C   3,C   4,C   5)          117.3129         0.425586   
     61. A(C   6,C   5,H   9)          117.6376         0.349209   
     62. A(C   4,C   5,C   6)          122.3289         0.428221   
     63. A(C   4,C   5,H   9)          120.0334         0.352202   
     64. A(C   5,C   6,C   7)          120.3564         0.421749   
     65. A(C   2,C   6,C   7)          120.6583         0.415326   
     66. A(C   2,C   6,C   5)          118.9852         0.417891   
     67. A(C   6,C   7,C   8)          117.3190         0.425579   
     68. A(C   6,C   7,C  23)          119.8966         0.393308   
     69. A(C   8,C   7,C  23)          122.7844         0.399231   
     70. A(C   3,C   8,H  10)          117.6422         0.349192   
     71. A(C   3,C   8,C   7)          122.3201         0.428197   
     72. A(C   7,C   8,H  10)          120.0377         0.352209   
     73. A(C   4,C  11,H  12)          108.1108         0.323935   
     74. A(H  13,C  11,C  14)          109.2174         0.321041   
     75. A(H  12,C  11,C  14)          109.1968         0.321164   
     76. A(H  12,C  11,H  13)          104.4709         0.285671   
     77. A(C   4,C  11,H  13)          108.2548         0.323810   
     78. A(C   4,C  11,C  14)          116.8747         0.366186   
     79. A(H  16,C  14,C  17)          108.9909         0.320557   
     80. A(H  15,C  14,C  17)          109.1325         0.320554   
     81. A(C  11,C  14,C  17)          112.5616         0.362292   
     82. A(H  15,C  14,H  16)          106.2034         0.285643   
     83. A(C  11,C  14,H  16)          109.9781         0.321087   
     84. A(C  11,C  14,H  15)          109.7687         0.321084   
     85. A(C  14,C  17,H  18)          109.1868         0.320528   
     86. A(H  19,C  17,C  20)          109.5495         0.321110   
     87. A(H  18,C  17,C  20)          109.6058         0.321114   
     88. A(C  14,C  17,C  20)          113.2126         0.362358   
     89. A(H  18,C  17,H  19)          105.8547         0.285592   
     90. A(C  14,C  17,H  19)          109.1663         0.320524   
     91. A(H  21,C  20,H  47)          107.5917         0.286549   
     92. A(C  17,C  20,H  47)          111.4935         0.321833   
     93. A(H  21,C  20,H  22)          107.3686         0.286288   
     94. A(C  17,C  20,H  22)          111.2439         0.321525   
     95. A(C  17,C  20,H  21)          111.3263         0.321520   
     96. A(H  22,C  20,H  47)          107.6110         0.286554   
     97. A(H  25,C  23,C  26)          109.1766         0.321149   
     98. A(H  24,C  23,C  26)          109.3301         0.320998   
     99. A(C   7,C  23,C  26)          116.8499         0.366128   
    100. A(H  24,C  23,H  25)          104.4607         0.285699   
    101. A(C   7,C  23,H  25)          108.0647         0.323962   
    102. A(C   7,C  23,H  24)          108.2429         0.323810   
    103. A(H  28,C  26,C  29)          109.1681         0.320669   
    104. A(H  27,C  26,C  29)          109.0637         0.320659   
    105. A(C  23,C  26,C  29)          112.5086         0.362321   
    106. A(H  27,C  26,H  28)          106.2167         0.285707   
    107. A(C  23,C  26,H  28)          109.9825         0.321084   
    108. A(C  23,C  26,H  27)          109.7001         0.321073   
    109. A(H  31,C  29,C  32)          109.2479         0.320570   
    110. A(H  30,C  29,C  32)          109.4094         0.320586   
    111. A(C  26,C  29,C  32)          113.6088         0.361968   
    112. A(H  30,C  29,H  31)          105.8122         0.285367   
    113. A(C  26,C  29,H  31)          109.1088         0.320456   
    114. A(C  26,C  29,H  30)          109.3593         0.320472   
    115. A(C  29,C  32,C  35)          113.6456         0.362155   
    116. A(H  33,C  32,H  34)          105.8053         0.285285   
    117. A(C  29,C  32,H  34)          109.1932         0.320530   
    118. A(C  29,C  32,H  33)          109.3664         0.320529   
    119. A(H  34,C  32,C  35)          109.2036         0.320574   
    120. A(H  33,C  32,C  35)          109.3295         0.320573   
    121. A(H  37,C  35,C  38)          109.2472         0.320442   
    122. A(H  36,C  35,C  38)          109.1677         0.320422   
    123. A(C  32,C  35,C  38)          113.7785         0.362097   
    124. A(H  36,C  35,H  37)          105.8000         0.285202   
    125. A(C  32,C  35,H  37)          109.3523         0.320534   
    126. A(C  32,C  35,H  36)          109.1884         0.320515   
    127. A(H  40,C  38,C  41)          109.5142         0.321014   
    128. A(H  39,C  38,C  41)          109.5197         0.321019   
    129. A(C  35,C  38,C  41)          113.3073         0.362471   
    130. A(H  39,C  38,H  40)          105.8351         0.285498   
    131. A(C  35,C  38,H  40)          109.2486         0.320604   
    132. A(C  35,C  38,H  39)          109.1436         0.320609   
    133. A(H  42,C  41,H  43)          107.3284         0.286240   
    134. A(C  38,C  41,H  43)          111.2557         0.321453   
    135. A(C  38,C  41,H  42)          111.2750         0.321455   
    136. L(C   2,C  44,H  46, 2)       180.0721         0.398981   
    137. L(C   2,C  44,H  46, 1)       179.8594         0.398981   
    138. D(C   5,C   4,C   3,C   8)      0.2350         0.021676   
    139. D(C  11,C   4,C   3,C   1)      0.1236         0.021676   
    140. D(C  11,C   4,C   3,C   8)   -179.7671         0.021676   
    141. D(C   5,C   4,C   3,C   1)   -179.8743         0.021676   
    142. D(H   9,C   5,C   4,C  11)      0.0184         0.025905   
    143. D(C   6,C   5,C   4,C   3)     -0.0776         0.025905   
    144. D(C   6,C   5,C   4,C  11)    179.9245         0.025905   
    145. D(H   9,C   5,C   4,C   3)   -179.9838         0.025905   
    146. D(C   2,C   6,C   5,H   9)     -0.2194         0.023291   
    147. D(C   7,C   6,C   5,H   9)    179.7220         0.023291   
    148. D(C   2,C   6,C   5,C   4)    179.8723         0.023291   
    149. D(C   7,C   6,C   5,C   4)     -0.1862         0.023291   
    150. D(C   8,C   7,C   6,C   5)      0.2840         0.021669   
    151. D(C   8,C   7,C   6,C   2)   -179.7755         0.021669   
    152. D(C  23,C   7,C   6,C   2)      0.3303         0.021669   
    153. D(C  23,C   7,C   6,C   5)   -179.6102         0.021669   
    154. D(C   3,C   8,C   7,C  23)    179.7632         0.025908   
    155. D(H  10,C   8,C   7,C  23)     -0.1648         0.025908   
    156. D(C   7,C   8,C   3,C   4)     -0.1347         0.023274   
    157. D(C   7,C   8,C   3,C   1)    179.9727         0.023274   
    158. D(H  10,C   8,C   7,C   6)    179.9443         0.025908   
    159. D(C   3,C   8,C   7,C   6)     -0.1277         0.025908   
    160. D(H  10,C   8,C   3,C   4)    179.7949         0.023274   
    161. D(H  10,C   8,C   3,C   1)     -0.0976         0.023274   
    162. D(C  14,C  11,C   4,C   5)     -3.0207         0.011443   
    163. D(C  14,C  11,C   4,C   3)    176.9815         0.011443   
    164. D(H  13,C  11,C   4,C   5)    120.7394         0.011443   
    165. D(H  12,C  11,C   4,C   5)   -126.6340         0.011443   
    166. D(H  12,C  11,C   4,C   3)     53.3682         0.011443   
    167. D(H  13,C  11,C   4,C   3)    -59.2584         0.011443   
    168. D(H  15,C  14,C  11,C   4)    -57.2514         0.011070   
    169. D(C  17,C  14,C  11,H  12)    -55.9625         0.011070   
    170. D(C  17,C  14,C  11,C   4)   -179.0184         0.011070   
    171. D(H  16,C  14,C  11,H  13)    -64.0204         0.011070   
    172. D(H  16,C  14,C  11,H  12)   -177.6974         0.011070   
    173. D(H  16,C  14,C  11,C   4)     59.2466         0.011070   
    174. D(H  15,C  14,C  11,H  13)    179.4815         0.011070   
    175. D(C  17,C  14,C  11,H  13)     57.7145         0.011070   
    176. D(H  15,C  14,C  11,H  12)     65.8045         0.011070   
    177. D(C  20,C  17,C  14,H  16)    -57.8856         0.010862   
    178. D(C  20,C  17,C  14,C  11)    179.8208         0.010862   
    179. D(H  19,C  17,C  14,H  16)    179.8028         0.010862   
    180. D(H  19,C  17,C  14,H  15)    -64.6182         0.010862   
    181. D(H  19,C  17,C  14,C  11)     57.5091         0.010862   
    182. D(H  18,C  17,C  14,H  16)     64.5133         0.010862   
    183. D(C  20,C  17,C  14,H  15)     57.6935         0.010862   
    184. D(H  18,C  17,C  14,H  15)   -179.9076         0.010862   
    185. D(H  18,C  17,C  14,C  11)    -57.7803         0.010862   
    186. D(H  47,C  20,C  17,H  19)    -57.7770         0.011093   
    187. D(H  47,C  20,C  17,H  18)     57.9598         0.011093   
    188. D(H  47,C  20,C  17,C  14)   -179.8749         0.011093   
    189. D(H  22,C  20,C  17,H  19)     62.3525         0.011093   
    190. D(H  22,C  20,C  17,H  18)    178.0893         0.011093   
    191. D(H  22,C  20,C  17,C  14)    -59.7454         0.011093   
    192. D(H  21,C  20,C  17,H  19)   -177.9382         0.011093   
    193. D(H  21,C  20,C  17,H  18)    -62.2014         0.011093   
    194. D(H  21,C  20,C  17,C  14)     59.9640         0.011093   
    195. D(C  26,C  23,C   7,C   6)    176.2008         0.011442   
    196. D(H  25,C  23,C   7,C   8)   -127.2178         0.011442   
    197. D(H  25,C  23,C   7,C   6)     52.6704         0.011442   
    198. D(H  24,C  23,C   7,C   8)    120.1959         0.011442   
    199. D(C  26,C  23,C   7,C   8)     -3.6874         0.011442   
    200. D(H  24,C  23,C   7,C   6)    -59.9159         0.011442   
    201. D(C  29,C  26,C  23,H  25)    -54.9781         0.011052   
    202. D(C  29,C  26,C  23,C   7)   -177.9369         0.011052   
    203. D(H  28,C  26,C  23,H  25)   -176.9070         0.011052   
    204. D(H  28,C  26,C  23,H  24)    -63.1926         0.011052   
    205. D(H  28,C  26,C  23,C   7)     60.1342         0.011052   
    206. D(H  27,C  26,C  23,H  25)     66.6164         0.011052   
    207. D(C  29,C  26,C  23,H  24)     58.7363         0.011052   
    208. D(H  27,C  26,C  23,H  24)   -179.6692         0.011052   
    209. D(H  27,C  26,C  23,C   7)    -56.3424         0.011052   
    210. D(C  32,C  29,C  26,H  28)    -58.5386         0.010890   
    211. D(C  32,C  29,C  26,H  27)     57.1159         0.010890   
    212. D(C  32,C  29,C  26,C  23)    179.0719         0.010890   
    213. D(H  31,C  29,C  26,H  28)    179.3090         0.010890   
    214. D(H  31,C  29,C  26,H  27)    -65.0365         0.010890   
    215. D(H  31,C  29,C  26,C  23)     56.9195         0.010890   
    216. D(H  30,C  29,C  26,H  28)     64.0072         0.010890   
    217. D(H  30,C  29,C  26,H  27)    179.6617         0.010890   
    218. D(H  30,C  29,C  26,C  23)    -58.3823         0.010890   
    219. D(C  35,C  32,C  29,H  31)    -56.8129         0.010934   
    220. D(C  35,C  32,C  29,H  30)     58.5936         0.010934   
    221. D(C  35,C  32,C  29,C  26)   -178.8882         0.010934   
    222. D(H  34,C  32,C  29,H  31)     65.3697         0.010934   
    223. D(H  34,C  32,C  29,H  30)   -179.2238         0.010934   
    224. D(H  34,C  32,C  29,C  26)    -56.7056         0.010934   
    225. D(H  33,C  32,C  29,H  31)   -179.2862         0.010934   
    226. D(H  33,C  32,C  29,H  30)    -63.8797         0.010934   
    227. D(H  33,C  32,C  29,C  26)     58.6385         0.010934   
    228. D(C  38,C  35,C  32,H  34)     57.1055         0.010952   
    229. D(C  38,C  35,C  32,H  33)    -58.2240         0.010952   
    230. D(C  38,C  35,C  32,C  29)    179.2823         0.010952   
    231. D(H  37,C  35,C  32,H  34)    179.5541         0.010952   
    232. D(H  37,C  35,C  32,H  33)     64.2246         0.010952   
    233. D(H  37,C  35,C  32,C  29)    -58.2690         0.010952   
    234. D(H  36,C  35,C  32,H  34)    -65.1186         0.010952   
    235. D(H  36,C  35,C  32,H  33)    179.5519         0.010952   
    236. D(H  36,C  35,C  32,C  29)     57.0583         0.010952   
    237. D(C  41,C  38,C  35,H  37)     58.1277         0.010915   
    238. D(C  41,C  38,C  35,C  32)   -179.3658         0.010915   
    239. D(H  40,C  38,C  35,H  37)    -64.2634         0.010915   
    240. D(H  40,C  38,C  35,H  36)   -179.5214         0.010915   
    241. D(H  40,C  38,C  35,C  32)     58.2431         0.010915   
    242. D(H  39,C  38,C  35,H  37)   -179.5508         0.010915   
    243. D(C  41,C  38,C  35,H  36)    -57.1303         0.010915   
    244. D(H  39,C  38,C  35,H  36)     65.1911         0.010915   
    245. D(H  39,C  38,C  35,C  32)    -57.0443         0.010915   
    246. D(H  43,C  41,C  38,H  40)   -177.8968         0.010375   
    247. D(H  43,C  41,C  38,H  39)    -62.2523         0.010375   
    248. D(H  43,C  41,C  38,C  35)     59.8598         0.010375   
    249. D(H  42,C  41,C  38,H  40)     62.4711         0.010375   
    250. D(H  42,C  41,C  38,H  39)    178.1156         0.010375   
    251. D(H  42,C  41,C  38,C  35)    -59.7723         0.010375   
    -----------------------------------------------------------------

Number of atoms                         .... 48
Number of degrees of freedom            .... 251

         *************************************************************
         *                GEOMETRY OPTIMIZATION CYCLE   1            *
         *************************************************************
---------------------------------
CARTESIAN COORDINATES (ANGSTROEM)
---------------------------------
  C     -4.047444    0.098623    0.003081
  C     -2.832346    0.048376    0.004043
  C      2.832348   -0.048076    0.001585
  C     -1.400467    0.000000    0.000000
  C     -0.718383   -1.242662   -0.055174
  C      0.676681   -1.208025   -0.052821
  C      1.400467   -0.000000   -0.000000
  C      0.718336    1.242921    0.049494
  C     -0.676717    1.208302    0.049456
  H      1.245445   -2.136743   -0.094290
  H     -1.245463    2.137160    0.087417
  C     -1.507912   -2.536332   -0.113430
  H     -2.221498   -2.465765   -0.954536
  H     -2.147120   -2.592923    0.787274
  C     -0.703761   -3.832630   -0.242918
  H     -0.067876   -3.789577   -1.146441
  H     -0.014130   -3.936675    0.615049
  C     -1.599139   -5.075622   -0.317144
  H     -2.236724   -5.118664    0.585349
  H     -2.292643   -4.972966   -1.172375
  C     -0.810121   -6.380376   -0.451283
  H     -0.133698   -6.530554    0.407856
  H     -0.188937   -6.380096   -1.363581
  C      1.507733    2.537123    0.097178
  H      2.139813    2.523874    1.004550
  H      2.227963    2.530305   -0.740987
  C      0.703512    3.839538    0.058684
  H      0.064690    3.856539   -0.843414
  H      0.017076    3.885378    0.923986
  C      1.600165    5.083376    0.060907
  H      2.237608    5.074402    0.965285
  H      2.295268    5.030390   -0.798464
  C      0.820991    6.401890    0.000000
  H      0.134294    6.462737    0.865862
  H      0.174279    6.401204   -0.898175
  C      1.717133    7.644832   -0.025040
  H      2.408410    7.577708   -0.887170
  H      2.359481    7.652160    0.876487
  C      0.941333    8.964701   -0.103513
  H      0.294087    8.952242   -1.000398
  H      0.256387    9.037102    0.762025
  C      1.847080   10.198227   -0.143452
  H      2.483228   10.257343    0.756724
  H      2.518366   10.173608   -1.019408
  C      4.047388   -0.099544   -0.000070
  H     -5.118987    0.142550    0.004062
  H      5.118984   -0.142303   -0.000181
  H     -1.480137   -7.253819   -0.504361

----------------------------
CARTESIAN COORDINATES (A.U.)
----------------------------
  NO LB      ZA    FRAG     MASS         X           Y           Z
   0 C     6.0000    0    12.011   -7.648560    0.186371    0.005823
   1 C     6.0000    0    12.011   -5.352358    0.091416    0.007640
   2 C     6.0000    0    12.011    5.352362   -0.090851    0.002996
   3 C     6.0000    0    12.011   -2.646499    0.000000    0.000000
   4 C     6.0000    0    12.011   -1.357547   -2.348292   -0.104265
   5 C     6.0000    0    12.011    1.278742   -2.282836   -0.099817
   6 C     6.0000    0    12.011    2.646499   -0.000000   -0.000000
   7 C     6.0000    0    12.011    1.357457    2.348779    0.093529
   8 C     6.0000    0    12.011   -1.278810    2.283359    0.093458
   9 H     1.0000    0     1.008    2.353549   -4.037859   -0.178182
  10 H     1.0000    0     1.008   -2.353584    4.038646    0.165194
  11 C     6.0000    0    12.011   -2.849540   -4.792973   -0.214352
  12 H     1.0000    0     1.008   -4.198024   -4.659620   -1.803811
  13 H     1.0000    0     1.008   -4.057469   -4.899914    1.487733
  14 C     6.0000    0    12.011   -1.329915   -7.242621   -0.459048
  15 H     1.0000    0     1.008   -0.128267   -7.161262   -2.166460
  16 H     1.0000    0     1.008   -0.026702   -7.439238    1.162275
  17 C     6.0000    0    12.011   -3.021935   -9.591536   -0.599316
  18 H     1.0000    0     1.008   -4.226796   -9.672874    1.106149
  19 H     1.0000    0     1.008   -4.332467   -9.397544   -2.215467
  20 C     6.0000    0    12.011   -1.530906  -12.057164   -0.852800
  21 H     1.0000    0     1.008   -0.252653  -12.340959    0.770736
  22 H     1.0000    0     1.008   -0.357039  -12.056634   -2.576795
  23 C     6.0000    0    12.011    2.849202    4.794469    0.183639
  24 H     1.0000    0     1.008    4.043660    4.769431    1.898324
  25 H     1.0000    0     1.008    4.210240    4.781584   -1.400262
  26 C     6.0000    0    12.011    1.329445    7.255674    0.110897
  27 H     1.0000    0     1.008    0.122246    7.287802   -1.593822
  28 H     1.0000    0     1.008    0.032270    7.342300    1.746081
  29 C     6.0000    0    12.011    3.023874    9.606188    0.115098
  30 H     1.0000    0     1.008    4.228466    9.589230    1.824124
  31 H     1.0000    0     1.008    4.337428    9.506060   -1.508878
  32 C     6.0000    0    12.011    1.551449   12.097819    0.000000
  33 H     1.0000    0     1.008    0.253780   12.212802    1.636241
  34 H     1.0000    0     1.008    0.329339   12.096522   -1.697305
  35 C     6.0000    0    12.011    3.244912   14.446639   -0.047318
  36 H     1.0000    0     1.008    4.551235   14.319793   -1.676508
  37 H     1.0000    0     1.008    4.458773   14.460486    1.656321
  38 C     6.0000    0    12.011    1.778862   16.940829   -0.195610
  39 H     1.0000    0     1.008    0.555743   16.917285   -1.890478
  40 H     1.0000    0     1.008    0.484500   17.077647    1.440019
  41 C     6.0000    0    12.011    3.490475   19.271856   -0.271086
  42 H     1.0000    0     1.008    4.692621   19.383569    1.430001
  43 H     1.0000    0     1.008    4.759022   19.225333   -1.926401
  44 C     6.0000    0    12.011    7.648456   -0.188111   -0.000132
  45 H     1.0000    0     1.008   -9.673484    0.269380    0.007676
  46 H     1.0000    0     1.008    9.673477   -0.268913   -0.000342
  47 H     1.0000    0     1.008   -2.797054  -13.707732   -0.953104

--------------------------------
INTERNAL COORDINATES (ANGSTROEM)
--------------------------------
 C      0   0   0     0.000000000000     0.00000000     0.00000000
 C      1   0   0     1.216136694841     0.00000000     0.00000000
 C      2   1   0     5.665515596679   178.60570530     0.00000000
 C      2   1   3     1.432701645410   179.52006089   337.33696003
 C      4   2   1     1.418623724343   120.67834447   208.04199840
 C      5   4   2     1.395495735701   117.31294432   180.12567155
 C      6   5   4     1.409247948154   122.32889349   359.92235726
 C      7   6   5     1.418662915745   120.35644214   359.81378809
 C      8   7   6     1.395482143219   117.31896012     0.28398322
 H      6   5   4     1.089830035682   120.03343454   180.01623466
 H      9   8   7     1.089811767694   120.03770621   179.94431540
 C      5   4   2     1.516683996236   119.89187019     0.12357613
 H     12   5   4     1.105280227007   108.11080101    53.36819767
 H     12   5   4     1.105920059334   108.25475979   300.74161098
 C     12   5   4     1.530952269070   116.87466386   176.98150827
 H     15  12   5     1.105693007125   109.76867842   302.74860003
 H     15  12   5     1.105677666487   109.97813505    59.24662438
 C     15  12   5     1.533701872820   112.56155194   180.98156942
 H     18  15  12     1.105830588149   109.18675308   302.21969665
 H     18  15  12     1.105849930568   109.16625158    57.50913734
 C     18  15  12     1.530662196555   113.21261734   179.82079488
 H     21  18  15     1.103729859748   111.32625990    59.96397440
 H     21  18  15     1.103701879583   111.24392301   300.25461626
 C      8   7   6     1.516701448467   119.89657347   180.38977474
 H     24   8   7     1.105904236709   108.24294545   300.08411073
 H     24   8   7     1.105123543592   108.06471822    52.67040617
 C     24   8   7     1.531187526047   116.84991436   176.20078888
 H     27  24   8     1.105515765665   109.70012583   303.65762200
 H     27  24   8     1.105460658076   109.98248747    60.13422138
 C     27  24   8     1.533337669119   112.50858331   182.06306214
 H     30  27  24     1.106486500233   109.35932197   301.61773976
 H     30  27  24     1.106568970653   109.10877368    56.91952856
 C     30  27  24     1.532743352922   113.60875982   179.07192034
 H     33  30  27     1.106784233281   109.36642790    58.63852311
 H     33  30  27     1.106777156652   109.19323741   303.29440023
 C     33  30  27     1.532515010647   113.64555751   181.11181380
 H     36  33  30     1.107084938241   109.18838303    57.05826754
 H     36  33  30     1.106984680439   109.35227419   301.73095945
 C     36  33  30     1.532996099612   113.77849601   179.28230389
 H     39  36  33     1.106113459051   109.14357102   302.95565217
 H     39  36  33     1.106141668823   109.24856527    58.24310748
 C     39  36  33     1.530868560094   113.30734895   180.63418284
 H     42  39  36     1.103855413509   111.27503950   300.22770883
 H     42  39  36     1.103870156014   111.25565201    59.85981744
 C      3   2   1     1.216131158278   178.54894982   184.98206051
 H      1   2   4     1.072443703406   179.90019367   232.56317154
 H     45   3   7     1.072448069015   179.84205323   191.41779374
 H     21  18  15     1.102108211776   111.49347393   180.12510321

---------------------------
INTERNAL COORDINATES (A.U.)
---------------------------
 C      0   0   0     0.000000000000     0.00000000     0.00000000
 C      1   0   0     2.298165294662     0.00000000     0.00000000
 C      2   1   0    10.706272885183   178.60570530     0.00000000
 C      2   1   3     2.707413741443   179.52006089   337.33696003
 C      4   2   1     2.680810326091   120.67834447   208.04199840
 C      5   4   2     2.637104761531   117.31294432   180.12567155
 C      6   5   4     2.663092676801   122.32889349   359.92235726
 C      7   6   5     2.680884387109   120.35644214   359.81378809
 C      8   7   6     2.637079075462   117.31896012     0.28398322
 H      6   5   4     2.059480299960   120.03343454   180.01623466
 H      9   8   7     2.059445778465   120.03770621   179.94431540
 C      5   4   2     2.866117384587   119.89187019     0.12357613
 H     12   5   4     2.088676930282   108.11080101    53.36819767
 H     12   5   4     2.089886038151   108.25475979   300.74161098
 C     12   5   4     2.893080512648   116.87466386   176.98150827
 H     15  12   5     2.089456971658   109.76867842   302.74860003
 H     15  12   5     2.089427982053   109.97813505    59.24662438
 C     15  12   5     2.898276510711   112.56155194   180.98156942
 H     18  15  12     2.089716962114   109.18675308   302.21969665
 H     18  15  12     2.089753513990   109.16625158    57.50913734
 C     18  15  12     2.892532355035   113.21261734   179.82079488
 H     21  18  15     2.085747160755   111.32625990    59.96397440
 H     21  18  15     2.085694285906   111.24392301   300.25461626
 C      8   7   6     2.866150364524   119.89657347   180.38977474
 H     24   8   7     2.089856137723   108.24294545   300.08411073
 H     24   8   7     2.088380841538   108.06471822    52.67040617
 C     24   8   7     2.893525083906   116.84991436   176.20078888
 H     27  24   8     2.089122033839   109.70012583   303.65762200
 H     27  24   8     2.089017895589   109.98248747    60.13422138
 C     27  24   8     2.897588265460   112.50858331   182.06306214
 H     30  27  24     2.090956456321   109.35932197   301.61773976
 H     30  27  24     2.091112302830   109.10877368    56.91952856
 C     30  27  24     2.896465170610   113.60875982   179.07192034
 H     33  30  27     2.091519090243   109.36642790    58.63852311
 H     33  30  27     2.091505717353   109.19323741   303.29440023
 C     33  30  27     2.896033666247   113.64555751   181.11181380
 H     36  33  30     2.092087340264   109.18838303    57.05826754
 H     36  33  30     2.091897880476   109.35227419   301.73095945
 C     36  33  30     2.896942792636   113.77849601   179.28230389
 H     39  36  33     2.090251510650   109.14357102   302.95565217
 H     39  36  33     2.090304819395   109.24856527    58.24310748
 C     39  36  33     2.892922325609   113.30734895   180.63418284
 H     42  39  36     2.085984422978   111.27503950   300.22770883
 H     42  39  36     2.086012282275   111.25565201    59.85981744
 C      3   2   1     2.298154832073   178.54894982   184.98206051
 H      1   2   4     2.026624893485   179.90019367   232.56317154
 H     45   3   7     2.026633143292   179.84205323   191.41779374
 H     21  18  15     2.082682690202   111.49347393   180.12510321

---------------------
BASIS SET INFORMATION
---------------------
There are 2 groups of distinct atoms

 Group   1 Type C   : 17s4p1d contracted to 3s2p1d pattern {881/31/1}
 Group   2 Type H   : 4s1p contracted to 2s1p pattern {31/1}

Atom   0C    basis set group =>   1
Atom   1C    basis set group =>   1
Atom   2C    basis set group =>   1
Atom   3C    basis set group =>   1
Atom   4C    basis set group =>   1
Atom   5C    basis set group =>   1
Atom   6C    basis set group =>   1
Atom   7C    basis set group =>   1
Atom   8C    basis set group =>   1
Atom   9H    basis set group =>   2
Atom  10H    basis set group =>   2
Atom  11C    basis set group =>   1
Atom  12H    basis set group =>   2
Atom  13H    basis set group =>   2
Atom  14C    basis set group =>   1
Atom  15H    basis set group =>   2
Atom  16H    basis set group =>   2
Atom  17C    basis set group =>   1
Atom  18H    basis set group =>   2
Atom  19H    basis set group =>   2
Atom  20C    basis set group =>   1
Atom  21H    basis set group =>   2
Atom  22H    basis set group =>   2
Atom  23C    basis set group =>   1
Atom  24H    basis set group =>   2
Atom  25H    basis set group =>   2
Atom  26C    basis set group =>   1
Atom  27H    basis set group =>   2
Atom  28H    basis set group =>   2
Atom  29C    basis set group =>   1
Atom  30H    basis set group =>   2
Atom  31H    basis set group =>   2
Atom  32C    basis set group =>   1
Atom  33H    basis set group =>   2
Atom  34H    basis set group =>   2
Atom  35C    basis set group =>   1
Atom  36H    basis set group =>   2
Atom  37H    basis set group =>   2
Atom  38C    basis set group =>   1
Atom  39H    basis set group =>   2
Atom  40H    basis set group =>   2
Atom  41C    basis set group =>   1
Atom  42H    basis set group =>   2
Atom  43H    basis set group =>   2
Atom  44C    basis set group =>   1
Atom  45H    basis set group =>   2
Atom  46H    basis set group =>   2
Atom  47H    basis set group =>   2
---------------------------------
AUXILIARY/J BASIS SET INFORMATION
---------------------------------
There are 2 groups of distinct atoms

 Group   1 Type C   : 12s5p4d2f1g contracted to 6s4p3d1f1g pattern {711111/2111/211/2/1}
 Group   2 Type H   : 5s2p1d contracted to 3s1p1d pattern {311/2/1}

Atom   0C    basis set group =>   1
Atom   1C    basis set group =>   1
Atom   2C    basis set group =>   1
Atom   3C    basis set group =>   1
Atom   4C    basis set group =>   1
Atom   5C    basis set group =>   1
Atom   6C    basis set group =>   1
Atom   7C    basis set group =>   1
Atom   8C    basis set group =>   1
Atom   9H    basis set group =>   2
Atom  10H    basis set group =>   2
Atom  11C    basis set group =>   1
Atom  12H    basis set group =>   2
Atom  13H    basis set group =>   2
Atom  14C    basis set group =>   1
Atom  15H    basis set group =>   2
Atom  16H    basis set group =>   2
Atom  17C    basis set group =>   1
Atom  18H    basis set group =>   2
Atom  19H    basis set group =>   2
Atom  20C    basis set group =>   1
Atom  21H    basis set group =>   2
Atom  22H    basis set group =>   2
Atom  23C    basis set group =>   1
Atom  24H    basis set group =>   2
Atom  25H    basis set group =>   2
Atom  26C    basis set group =>   1
Atom  27H    basis set group =>   2
Atom  28H    basis set group =>   2
Atom  29C    basis set group =>   1
Atom  30H    basis set group =>   2
Atom  31H    basis set group =>   2
Atom  32C    basis set group =>   1
Atom  33H    basis set group =>   2
Atom  34H    basis set group =>   2
Atom  35C    basis set group =>   1
Atom  36H    basis set group =>   2
Atom  37H    basis set group =>   2
Atom  38C    basis set group =>   1
Atom  39H    basis set group =>   2
Atom  40H    basis set group =>   2
Atom  41C    basis set group =>   1
Atom  42H    basis set group =>   2
Atom  43H    basis set group =>   2
Atom  44C    basis set group =>   1
Atom  45H    basis set group =>   2
Atom  46H    basis set group =>   2
Atom  47H    basis set group =>   2


           ************************************************************
           *        Program running with 16 parallel MPI-processes    *
           *              working on a common directory               *
           ************************************************************
------------------------------------------------------------------------------
                           ORCA GTO INTEGRAL CALCULATION
                           -- RI-GTO INTEGRALS CHOSEN --
------------------------------------------------------------------------------
------------------------------------------------------------------------------
                   ___                                                        
                  /   \      - P O W E R E D   B Y -                         
                 /     \                                                     
                 |  |  |   _    _      __       _____    __    __             
                 |  |  |  | |  | |    /  \     |  _  \  |  |  /  |          
                  \  \/   | |  | |   /    \    | | | |  |  | /  /          
                 / \  \   | |__| |  /  /\  \   | |_| |  |  |/  /          
                |  |  |   |  __  | /  /__\  \  |    /   |      \           
                |  |  |   | |  | | |   __   |  |    \   |  |\   \          
                \     /   | |  | | |  |  |  |  | |\  \  |  | \   \       
                 \___/    |_|  |_| |__|  |__|  |_| \__\ |__|  \__/        
                                                                              
                      - O R C A' S   B I G   F R I E N D -                    
                                      &                                       
                       - I N T E G R A L  F E E D E R -                       
                                                                              
 v1 FN, 2020, v2 2021                                                         
------------------------------------------------------------------------------


Reading SHARK input file opt.SHARKINP.tmp ... ok
----------------------
SHARK INTEGRAL PACKAGE
----------------------

Number of atoms                             ...     48
Number of basis functions                   ...    555
Number of shells                            ...    333
Maximum angular momentum                    ...      2
Integral batch strategy                     ... SHARK/LIBINT Hybrid
RI-J (if used) integral strategy            ... SPLIT-RIJ (Revised 2003 algorithm where possible)
Printlevel                                  ...      1
Contraction scheme used                     ... PARTIAL GENERAL contraction
Coulomb Range Separation                    ... NOT USED
Exchange Range Separation                   ... NOT USED
Finite Nucleus Model                        ... NOT USED
Auxiliary Coulomb fitting basis             ... AVAILABLE
   # of basis functions in Aux-J            ...   1326
   # of shells in Aux-J                     ...    450
   Maximum angular momentum in Aux-J        ...      4
Auxiliary J/K fitting basis                 ... NOT available
Auxiliary Correlation fitting basis         ... NOT available
Auxiliary 'external' fitting basis          ... NOT available
Integral threshold                          ...     2.500000e-11
Primitive cut-off                           ...     2.500000e-12
Primitive pair pre-selection threshold      ...     2.500000e-12

Calculating pre-screening integrals         ... done (  0.0 sec) Dimension = 333
Calculating pre-screening integrals (ORCA)  ... done (  0.1 sec) Dimension = 207
Organizing shell pair data                  ... done (  0.1 sec)
Shell pair information
Total number of shell pairs                 ...     55611
Shell pairs after pre-screening             ...     23531
Total number of primitive shell pairs       ...     92379
Primitive shell pairs kept                  ...     32793
          la=0 lb=0:  10450 shell pairs
          la=1 lb=0:   8250 shell pairs
          la=1 lb=1:   1473 shell pairs
          la=2 lb=0:   2372 shell pairs
          la=2 lb=1:    849 shell pairs
          la=2 lb=2:    137 shell pairs

Calculating one electron integrals          ... done (  0.0 sec)
Calculating RI/J V-Matrix + Cholesky decomp.... done (  0.2 sec)
Calculating Nuclear repulsion               ... done (  0.0 sec) ENN=   1441.746838307091 Eh

SHARK setup successfully completed in   0.8 seconds

Maximum memory used throughout the entire GTOINT-calculation: 34.2 MB


           ************************************************************
           *        Program running with 16 parallel MPI-processes    *
           *              working on a common directory               *
           ************************************************************
-------------------------------------------------------------------------------
                                 ORCA SCF
-------------------------------------------------------------------------------

------------
SCF SETTINGS
------------
Hamiltonian:
 Density Functional     Method          .... DFT(GTOs)
 Exchange Functional    Exchange        .... B88
   X-Alpha parameter    XAlpha          ....  0.666667
   Becke's b parameter  XBeta           ....  0.004200
 Correlation Functional Correlation     .... LYP
 LDA part of GGA corr.  LDAOpt          .... VWN-5
 Gradients option       PostSCFGGA      .... off
 Hybrid DFT is turned on
   Fraction HF Exchange ScalHFX         ....  0.200000
   Scaling of DF-GGA-X  ScalDFX         ....  0.720000
   Scaling of DF-GGA-C  ScalDFC         ....  0.810000
   Scaling of DF-LDA-C  ScalLDAC        ....  1.000000
   Perturbative correction              ....  0.000000
   Density functional embedding theory  .... OFF
   NL short-range parameter             ....  4.800000
 RI-approximation to the Coulomb term is turned on
   Number of AuxJ basis functions       .... 1326
   RIJ-COSX (HFX calculated with COS-X)).... on


General Settings:
 Integral files         IntName         .... opt
 Hartree-Fock type      HFTyp           .... UHF
 Total Charge           Charge          ....    0
 Multiplicity           Mult            ....    2
 Number of Electrons    NEL             ....  153
 Basis Dimension        Dim             ....  429
 Nuclear Repulsion      ENuc            ....   1441.7468383071 Eh

Convergence Acceleration:
 DIIS                   CNVDIIS         .... on
   Start iteration      DIISMaxIt       ....    12
   Startup error        DIISStart       ....  0.200000
   # of expansion vecs  DIISMaxEq       ....     5
   Bias factor          DIISBfac        ....   1.050
   Max. coefficient     DIISMaxC        ....  10.000
 Trust-Rad. Augm. Hess. CNVTRAH         .... auto
   Auto Start mean grad. ratio tolernc. ....  1.125000
   Auto Start start iteration           ....    20
   Auto Start num. interpolation iter.  ....    10
   Max. Number of Micro iterations      ....    16
   Max. Number of Macro iterations      .... Maxiter - #DIIS iter
   Number of Davidson start vectors     ....     2
   Converg. threshold I  (grad. norm)   ....   1.000e-05
   Converg. threshold II (energy diff.) ....   1.000e-08
   Grad. Scal. Fac. for Micro threshold ....   0.100
   Minimum threshold for Micro iter.    ....   0.010
   NR start threshold (gradient norm)   ....   0.001
   Initial trust radius                 ....   0.400
   Minimum AH scaling param. (alpha)    ....   1.000
   Maximum AH scaling param. (alpha)    .... 1000.000
   Orbital update algorithm             .... Taylor
   White noise on init. David. guess    .... on
   Maximum white noise                  ....   0.010
   Quad. conv. algorithm                .... NR
 SOSCF                  CNVSOSCF        .... off
 Level Shifting         CNVShift        .... on
   Level shift para.    LevelShift      ....    0.2500
   Turn off err/grad.   ShiftErr        ....    0.0010
 Zerner damping         CNVZerner       .... off
 Static damping         CNVDamp         .... on
   Fraction old density DampFac         ....    0.7000
   Max. Damping (<1)    DampMax         ....    0.9800
   Min. Damping (>=0)   DampMin         ....    0.0000
   Turn off err/grad.   DampErr         ....    0.1000
 Fernandez-Rico         CNVRico         .... off

SCF Procedure:
 Maximum # iterations   MaxIter         ....   125
 SCF integral mode      SCFMode         .... Direct
   Integral package                     .... SHARK and LIBINT hybrid scheme
 Reset frequency        DirectResetFreq ....    20
 Integral Threshold     Thresh          ....  2.500e-11 Eh
 Primitive CutOff       TCut            ....  2.500e-12 Eh

Convergence Tolerance:
 Convergence Check Mode ConvCheckMode   .... Total+1el-Energy
 Convergence forced     ConvForced      .... 0
 Energy Change          TolE            ....  1.000e-08 Eh
 1-El. energy change                    ....  1.000e-05 Eh
 DIIS Error             TolErr          ....  5.000e-07


Diagonalization of the overlap matrix:
Smallest eigenvalue                        ... 1.270e-04
Time for diagonalization                   ...    0.034 sec
Threshold for overlap eigenvalues          ... 1.000e-08
Number of eigenvalues below threshold      ... 0
Time for construction of square roots      ...    0.041 sec
Total time needed                          ...    0.076 sec

Time for model grid setup =    0.271 sec

------------------------------
INITIAL GUESS: MODEL POTENTIAL
------------------------------
Loading Hartree-Fock densities                     ... done
Calculating cut-offs                               ... done
Initializing the effective Hamiltonian             ... done
Setting up the integral package (SHARK)            ... done
Starting the Coulomb interaction                   ... done (   0.3 sec)
Reading the grid                                   ... done
Mapping shells                                     ... done
Starting the XC term evaluation                    ... done (   0.1 sec)
  promolecular density results
     # of electrons  =    153.001256568
     EX              =   -115.830121281
     EC              =     -4.990315794
     EX+EC           =   -120.820437075
Transforming the Hamiltonian                       ... done (   0.0 sec)
Diagonalizing the Hamiltonian                      ... done (   0.0 sec)
Back transforming the eigenvectors                 ... done (   0.0 sec)
Now organizing SCF variables                       ... done
                      ------------------
                      INITIAL GUESS DONE (   0.9 sec)
                      ------------------
-------------------
DFT GRID GENERATION
-------------------

General Integration Accuracy     IntAcc      ... 4.388
Radial Grid Type                 RadialGrid  ... OptM3 with GC (2021)
Angular Grid (max. ang.)         AngularGrid ... 4 (Lebedev-302)
Angular grid pruning method      GridPruning ... 4 (adaptive)
Weight generation scheme         WeightScheme... Becke
Basis function cutoff            BFCut       ... 1.0000e-11
Integration weight cutoff        WCut        ... 1.0000e-14
Angular grids for H and He will be reduced by one unit
Partially contracted basis set               ... off
Rotationally invariant grid construction     ... off

Total number of grid points                  ...   211505
Total number of batches                      ...     3327
Average number of points per batch           ...       63
Average number of grid points per atom       ...     4406
Time for grid setup =    1.172 sec

--------------------
COSX GRID GENERATION
--------------------

GRIDX 1
-------
General Integration Accuracy     IntAcc      ... 3.816
Radial Grid Type                 RadialGrid  ... OptM3 with GC (2021)
Angular Grid (max. ang.)         AngularGrid ... 1 (Lebedev-50)
Angular grid pruning method      GridPruning ... 4 (adaptive)
Weight generation scheme         WeightScheme... Becke
Basis function cutoff            BFCut       ... 1.0000e-11
Integration weight cutoff        WCut        ... 1.0000e-14
Angular grids for H and He will be reduced by one unit
Partially contracted basis set               ... on
Rotationally invariant grid construction     ... off

Total number of grid points                  ...    26938
Total number of batches                      ...      451
Average number of points per batch           ...       59
Average number of grid points per atom       ...      561
UseSFitting                                  ... on

GRIDX 2
-------
General Integration Accuracy     IntAcc      ... 4.020
Radial Grid Type                 RadialGrid  ... OptM3 with GC (2021)
Angular Grid (max. ang.)         AngularGrid ... 2 (Lebedev-110)
Angular grid pruning method      GridPruning ... 4 (adaptive)
Weight generation scheme         WeightScheme... Becke
Basis function cutoff            BFCut       ... 1.0000e-11
Integration weight cutoff        WCut        ... 1.0000e-14
Angular grids for H and He will be reduced by one unit
Partially contracted basis set               ... on
Rotationally invariant grid construction     ... off

Total number of grid points                  ...    56897
Total number of batches                      ...      913
Average number of points per batch           ...       62
Average number of grid points per atom       ...     1185
UseSFitting                                  ... on

GRIDX 3
-------
General Integration Accuracy     IntAcc      ... 4.338
Radial Grid Type                 RadialGrid  ... OptM3 with GC (2021)
Angular Grid (max. ang.)         AngularGrid ... 3 (Lebedev-194)
Angular grid pruning method      GridPruning ... 4 (adaptive)
Weight generation scheme         WeightScheme... Becke
Basis function cutoff            BFCut       ... 1.0000e-11
Integration weight cutoff        WCut        ... 1.0000e-14
Angular grids for H and He will be reduced by one unit
Partially contracted basis set               ... on
Rotationally invariant grid construction     ... off

Total number of grid points                  ...   124204
Total number of batches                      ...     1966
Average number of points per batch           ...       63
Average number of grid points per atom       ...     2588
UseSFitting                                  ... on

Time for X-Grid setup             =    2.083 sec

 re-compute Schwartz prescreening matrix in partically contracted basis (1) ...done (   0.116 sec)
--------------
SCF ITERATIONS
--------------
ITER       Energy         Delta-E        Max-DP      RMS-DP      [F,P]     Damp
               ***  Starting incremental Fock matrix formation  ***
  0   -815.2615490708   0.000000000000 0.06529600  0.00085940  0.0866881 0.7000
  1   -815.4947510497  -0.233201978908 0.04825202  0.00063541  0.0456647 0.7000
                               ***Turning on DIIS***
  2   -815.5989942855  -0.104243235749 0.09472065  0.00121283  0.0179692 0.0000
  3   -815.7442198736  -0.145225588113 0.01907279  0.00033159  0.0248734 0.0000
  4   -815.7835230889  -0.039303215370 0.00854996  0.00011548  0.0059729 0.0000
  5   -815.7857143973  -0.002191308390 0.00159453  0.00003184  0.0015772 0.0000
  6   -815.7858971161  -0.000182718754 0.00128655  0.00001924  0.0007025 0.0000
               *** Restarting incremental Fock matrix formation ***
                                   *** Resetting DIIS ***
  7   -815.7862704117  -0.000373295576 0.00139471  0.00001611  0.0009079 0.0000
  8   -815.7862320820   0.000038329619 0.00061125  0.00000664  0.0022758 0.0000
  9   -815.7862727458  -0.000040663761 0.00040474  0.00000463  0.0008280 0.0000
 10   -815.7862792148  -0.000006469009 0.00007271  0.00000112  0.0001118 0.0000
 11   -815.7862793586  -0.000000143828 0.00003171  0.00000053  0.0000297 0.0000
 12   -815.7862794004  -0.000000041723 0.00001905  0.00000018  0.0000112 0.0000
 13   -815.7862794002   0.000000000174 0.00000938  0.00000009  0.0000070 0.0000
 14   -815.7862794046  -0.000000004390 0.00000362  0.00000006  0.0000016 0.0000
 15   -815.7862794168  -0.000000012222 0.00000273  0.00000003  0.0000022 0.0000
 16   -815.7862794400  -0.000000023219 0.00000116  0.00000002  0.0000011 0.0000
 17   -815.7862794410  -0.000000000996 0.00000163  0.00000002  0.0000013 0.0000
                            ***DIIS convergence achieved***

               *****************************************************
               *                     SUCCESS                       *
               *           SCF CONVERGED AFTER  18 CYCLES          *
               *****************************************************

Old exchange energy                            =    -23.668320397 Eh
New exchange energy                            =    -23.668352144 Eh
Exchange energy change after final integration =     -0.000031747 Eh
Total energy after final integration           =   -815.786311189 Eh
Final COS-X integration done in                =     6.759 sec

----------------
TOTAL SCF ENERGY
----------------

Total Energy       :         -815.78631119 Eh          -22198.67409 eV

Components:
Nuclear Repulsion  :         1441.74683831 Eh           39231.92598 eV
Electronic Energy  :        -2257.53314950 Eh          -61430.60007 eV
One Electron Energy:        -3961.94363019 Eh         -107809.96713 eV
Two Electron Energy:         1704.41048070 Eh           46379.36706 eV
Max COSX asymmetry :            0.00000048 Eh               0.00001 eV

Virial components:
Potential Energy   :        -1625.68818118 Eh          -44237.22439 eV
Kinetic Energy     :          809.90186999 Eh           22038.55030 eV
Virial Ratio       :            2.00726562


DFT components:
N(Alpha)           :       77.000135781661 electrons
N(Beta)            :       76.000132441412 electrons
N(Total)           :      153.000268223073 electrons
E(X)               :      -93.819150750316 Eh       
E(C)               :       -5.894889689383 Eh       
E(XC)              :      -99.714040439698 Eh       
DFET-embed. en.    :        0.000000000000 Eh       

---------------
SCF CONVERGENCE
---------------

  Last Energy change         ...   -1.4766e-09  Tolerance :   1.0000e-08
  Last MAX-Density change    ...    0.0000e+00  Tolerance :   1.0000e-07
  Last RMS-Density change    ...    0.0000e+00  Tolerance :   5.0000e-09
  Last DIIS Error            ...    1.4833e-07  Tolerance :   5.0000e-07

             **** THE GBW FILE WAS UPDATED (opt.gbw) ****
             **** DENSITY opt.scfp WAS UPDATED ****
             **** ENERGY FILE WAS UPDATED (opt.en.tmp) ****
----------------------
UHF SPIN CONTAMINATION
----------------------

Warning: in a DFT calculation there is little theoretical justification to 
         calculate <S**2> as in Hartree-Fock theory. We will do it anyways
         but you should keep in mind that the values have only limited relevance

Expectation value of <S**2>     :     0.752840
Ideal value S*(S+1) for S=0.5   :     0.750000
Deviation                       :     0.002840

             **** THE GBW FILE WAS UPDATED (opt.gbw) ****
             **** DENSITY opt.scfp WAS UPDATED ****
----------------
ORBITAL ENERGIES
----------------
                 SPIN UP ORBITALS
  NO   OCC          E(Eh)            E(eV) 
   0   1.0000     -10.213297      -277.9180 
   1   1.0000     -10.213228      -277.9161 
   2   1.0000     -10.202570      -277.6260 
   3   1.0000     -10.202353      -277.6201 
   4   1.0000     -10.196252      -277.4541 
   5   1.0000     -10.193119      -277.3689 
   6   1.0000     -10.192987      -277.3653 
   7   1.0000     -10.192590      -277.3545 
   8   1.0000     -10.192444      -277.3505 
   9   1.0000     -10.188386      -277.2401 
  10   1.0000     -10.187737      -277.2224 
  11   1.0000     -10.187601      -277.2187 
  12   1.0000     -10.187369      -277.2124 
  13   1.0000     -10.185603      -277.1643 
  14   1.0000     -10.184642      -277.1382 
  15   1.0000     -10.184278      -277.1283 
  16   1.0000     -10.182632      -277.0835 
  17   1.0000     -10.182412      -277.0775 
  18   1.0000     -10.182377      -277.0766 
  19   1.0000     -10.182064      -277.0681 
  20   1.0000     -10.175912      -276.9006 
  21   1.0000      -0.875472       -23.8228 
  22   1.0000      -0.820382       -22.3237 
  23   1.0000      -0.808651       -22.0045 
  24   1.0000      -0.795779       -21.6543 
  25   1.0000      -0.787096       -21.4180 
  26   1.0000      -0.763784       -20.7836 
  27   1.0000      -0.752561       -20.4782 
  28   1.0000      -0.733999       -19.9731 
  29   1.0000      -0.721024       -19.6200 
  30   1.0000      -0.707041       -19.2396 
  31   1.0000      -0.671624       -18.2758 
  32   1.0000      -0.642653       -17.4875 
  33   1.0000      -0.637397       -17.3445 
  34   1.0000      -0.612071       -16.6553 
  35   1.0000      -0.590504       -16.0684 
  36   1.0000      -0.579050       -15.7568 
  37   1.0000      -0.575121       -15.6498 
  38   1.0000      -0.564471       -15.3600 
  39   1.0000      -0.542429       -14.7602 
  40   1.0000      -0.525754       -14.3065 
  41   1.0000      -0.499506       -13.5923 
  42   1.0000      -0.484931       -13.1956 
  43   1.0000      -0.482786       -13.1373 
  44   1.0000      -0.476826       -12.9751 
  45   1.0000      -0.470770       -12.8103 
  46   1.0000      -0.459432       -12.5018 
  47   1.0000      -0.431509       -11.7420 
  48   1.0000      -0.427981       -11.6460 
  49   1.0000      -0.425559       -11.5800 
  50   1.0000      -0.420711       -11.4481 
  51   1.0000      -0.419250       -11.4084 
  52   1.0000      -0.410407       -11.1677 
  53   1.0000      -0.406504       -11.0615 
  54   1.0000      -0.389429       -10.5969 
  55   1.0000      -0.388290       -10.5659 
  56   1.0000      -0.373533       -10.1644 
  57   1.0000      -0.371595       -10.1116 
  58   1.0000      -0.361993        -9.8503 
  59   1.0000      -0.359333        -9.7780 
  60   1.0000      -0.352872        -9.6021 
  61   1.0000      -0.342887        -9.3304 
  62   1.0000      -0.340420        -9.2633 
  63   1.0000      -0.331608        -9.0235 
  64   1.0000      -0.329682        -8.9711 
  65   1.0000      -0.327969        -8.9245 
  66   1.0000      -0.325215        -8.8496 
  67   1.0000      -0.323860        -8.8127 
  68   1.0000      -0.321352        -8.7444 
  69   1.0000      -0.320746        -8.7279 
  70   1.0000      -0.320235        -8.7140 
  71   1.0000      -0.279859        -7.6153 
  72   1.0000      -0.276599        -7.5266 
  73   1.0000      -0.275494        -7.4966 
  74   1.0000      -0.246844        -6.7170 
  75   1.0000      -0.229837        -6.2542 
  76   1.0000      -0.219824        -5.9817 
  77   0.0000      -0.051301        -1.3960 
  78   0.0000      -0.003716        -0.1011 
  79   0.0000       0.040236         1.0949 
  80   0.0000       0.047179         1.2838 
  81   0.0000       0.049632         1.3506 
  82   0.0000       0.059171         1.6101 
  83   0.0000       0.062581         1.7029 
  84   0.0000       0.072273         1.9666 
  85   0.0000       0.077888         2.1194 
  86   0.0000       0.078587         2.1384 
  87   0.0000       0.084407         2.2968 
  88   0.0000       0.086118         2.3434 
  89   0.0000       0.090429         2.4607 
  90   0.0000       0.093886         2.5548 
  91   0.0000       0.095244         2.5917 
  92   0.0000       0.095965         2.6113 
  93   0.0000       0.106650         2.9021 
  94   0.0000       0.110008         2.9935 
  95   0.0000       0.114090         3.1046 
  96   0.0000       0.125144         3.4053 
  97   0.0000       0.131202         3.5702 
  98   0.0000       0.146396         3.9836 
  99   0.0000       0.149570         4.0700 
 100   0.0000       0.153749         4.1837 
 101   0.0000       0.156127         4.2484 
 102   0.0000       0.157492         4.2856 
 103   0.0000       0.159937         4.3521 
 104   0.0000       0.161601         4.3974 
 105   0.0000       0.162482         4.4214 
 106   0.0000       0.175271         4.7694 
 107   0.0000       0.179455         4.8832 
 108   0.0000       0.181740         4.9454 
 109   0.0000       0.188147         5.1197 
 110   0.0000       0.192363         5.2345 
 111   0.0000       0.198943         5.4135 
 112   0.0000       0.206925         5.6307 
 113   0.0000       0.211143         5.7455 
 114   0.0000       0.215796         5.8721 
 115   0.0000       0.223704         6.0873 
 116   0.0000       0.230002         6.2587 
 117   0.0000       0.239436         6.5154 
 118   0.0000       0.255019         6.9394 
 119   0.0000       0.260874         7.0987 
 120   0.0000       0.266007         7.2384 
 121   0.0000       0.274411         7.4671 
 122   0.0000       0.295309         8.0358 
 123   0.0000       0.312880         8.5139 
 124   0.0000       0.327478         8.9111 
 125   0.0000       0.336258         9.1500 
 126   0.0000       0.350284         9.5317 
 127   0.0000       0.366498         9.9729 
 128   0.0000       0.371986        10.1223 
 129   0.0000       0.375132        10.2079 
 130   0.0000       0.403891        10.9904 
 131   0.0000       0.409886        11.1536 
 132   0.0000       0.410434        11.1685 
 133   0.0000       0.411532        11.1984 
 134   0.0000       0.413848        11.2614 
 135   0.0000       0.419412        11.4128 
 136   0.0000       0.421570        11.4715 
 137   0.0000       0.426790        11.6136 
 138   0.0000       0.437742        11.9116 
 139   0.0000       0.449545        12.2327 
 140   0.0000       0.452143        12.3034 
 141   0.0000       0.461223        12.5505 
 142   0.0000       0.466927        12.7057 
 143   0.0000       0.473963        12.8972 
 144   0.0000       0.479554        13.0493 
 145   0.0000       0.482831        13.1385 
 146   0.0000       0.485169        13.2021 
 147   0.0000       0.490759        13.3542 
 148   0.0000       0.499568        13.5939 
 149   0.0000       0.504255        13.7215 
 150   0.0000       0.512626        13.9493 
 151   0.0000       0.517281        14.0759 
 152   0.0000       0.522866        14.2279 
 153   0.0000       0.529264        14.4020 
 154   0.0000       0.531590        14.4653 
 155   0.0000       0.546560        14.8726 
 156   0.0000       0.554227        15.0813 
 157   0.0000       0.557609        15.1733 
 158   0.0000       0.561211        15.2713 
 159   0.0000       0.571675        15.5561 
 160   0.0000       0.579884        15.7794 
 161   0.0000       0.594237        16.1700 
 162   0.0000       0.599869        16.3233 
 163   0.0000       0.606559        16.5053 
 164   0.0000       0.613439        16.6925 
 165   0.0000       0.618098        16.8193 
 166   0.0000       0.624477        16.9929 
 167   0.0000       0.624628        16.9970 
 168   0.0000       0.627932        17.0869 
 169   0.0000       0.630550        17.1581 
 170   0.0000       0.634931        17.2773 
 171   0.0000       0.639789        17.4095 
 172   0.0000       0.641792        17.4640 
 173   0.0000       0.642933        17.4951 
 174   0.0000       0.651304        17.7229 
 175   0.0000       0.654263        17.8034 
 176   0.0000       0.655255        17.8304 
 177   0.0000       0.657717        17.8974 
 178   0.0000       0.658492        17.9185 
 179   0.0000       0.661018        17.9872 
 180   0.0000       0.663360        18.0510 
 181   0.0000       0.665955        18.1216 
 182   0.0000       0.667515        18.1640 
 183   0.0000       0.672697        18.3050 
 184   0.0000       0.677060        18.4237 
 185   0.0000       0.680553        18.5188 
 186   0.0000       0.684491        18.6259 
 187   0.0000       0.688840        18.7443 
 188   0.0000       0.691762        18.8238 
 189   0.0000       0.693880        18.8814 
 190   0.0000       0.695696        18.9308 
 191   0.0000       0.702335        19.1115 
 192   0.0000       0.702712        19.1218 
 193   0.0000       0.709052        19.2943 
 194   0.0000       0.712718        19.3940 
 195   0.0000       0.719790        19.5865 
 196   0.0000       0.721481        19.6325 
 197   0.0000       0.726641        19.7729 
 198   0.0000       0.730338        19.8735 
 199   0.0000       0.732872        19.9425 
 200   0.0000       0.738380        20.0924 
 201   0.0000       0.746092        20.3022 
 202   0.0000       0.756192        20.5770 
 203   0.0000       0.763113        20.7654 
 204   0.0000       0.771918        21.0050 
 205   0.0000       0.780531        21.2393 
 206   0.0000       0.806965        21.9586 
 207   0.0000       0.810791        22.0627 
 208   0.0000       0.823268        22.4023 
 209   0.0000       0.832368        22.6499 
 210   0.0000       0.832572        22.6554 
 211   0.0000       0.843276        22.9467 
 212   0.0000       0.851772        23.1779 
 213   0.0000       0.863103        23.4862 
 214   0.0000       0.869150        23.6508 
 215   0.0000       0.882975        24.0270 
 216   0.0000       0.890577        24.2338 
 217   0.0000       0.900185        24.4953 
 218   0.0000       0.916505        24.9394 
 219   0.0000       0.935511        25.4565 
 220   0.0000       0.954872        25.9834 
 221   0.0000       0.976528        26.5727 
 222   0.0000       0.985004        26.8033 
 223   0.0000       0.988749        26.9052 
 224   0.0000       1.014614        27.6091 
 225   0.0000       1.023644        27.8548 
 226   0.0000       1.031566        28.0703 
 227   0.0000       1.032064        28.0839 
 228   0.0000       1.038294        28.2534 
 229   0.0000       1.044962        28.4349 
 230   0.0000       1.050003        28.5720 
 231   0.0000       1.051727        28.6189 
 232   0.0000       1.069399        29.0998 
 233   0.0000       1.076577        29.2951 
 234   0.0000       1.088214        29.6118 
 235   0.0000       1.112747        30.2794 
 236   0.0000       1.150395        31.3038 
 237   0.0000       1.154499        31.4155 
 238   0.0000       1.161918        31.6174 
 239   0.0000       1.171274        31.8720 
 240   0.0000       1.189635        32.3716 
 241   0.0000       1.195196        32.5229 
 242   0.0000       1.200732        32.6736 
 243   0.0000       1.204038        32.7635 
 244   0.0000       1.205365        32.7996 
 245   0.0000       1.211165        32.9575 
 246   0.0000       1.214526        33.0489 
 247   0.0000       1.215316        33.0704 
 248   0.0000       1.216799        33.1108 
 249   0.0000       1.223082        33.2817 
 250   0.0000       1.227315        33.3969 
 251   0.0000       1.230517        33.4841 
 252   0.0000       1.239189        33.7200 
 253   0.0000       1.258283        34.2396 
 254   0.0000       1.274508        34.6811 
 255   0.0000       1.304747        35.5040 
 256   0.0000       1.307513        35.5792 
 257   0.0000       1.316742        35.8304 
 258   0.0000       1.319529        35.9062 
 259   0.0000       1.326263        36.0895 
 260   0.0000       1.329774        36.1850 
 261   0.0000       1.332656        36.2634 
 262   0.0000       1.338236        36.4152 
 263   0.0000       1.350605        36.7518 
 264   0.0000       1.362994        37.0890 
 265   0.0000       1.368943        37.2508 
 266   0.0000       1.395452        37.9722 
 267   0.0000       1.397025        38.0150 
 268   0.0000       1.407377        38.2967 
 269   0.0000       1.417168        38.5631 
 270   0.0000       1.426244        38.8101 
 271   0.0000       1.434676        39.0395 
 272   0.0000       1.447588        39.3909 
 273   0.0000       1.460776        39.7497 
 274   0.0000       1.462996        39.8101 
 275   0.0000       1.467867        39.9427 
 276   0.0000       1.474766        40.1304 
 277   0.0000       1.482824        40.3497 
 278   0.0000       1.492876        40.6232 
 279   0.0000       1.513992        41.1978 
 280   0.0000       1.515480        41.2383 
 281   0.0000       1.520486        41.3745 
 282   0.0000       1.527182        41.5567 
 283   0.0000       1.530359        41.6432 
 284   0.0000       1.533423        41.7266 
 285   0.0000       1.544436        42.0262 
 286   0.0000       1.575347        42.8674 
 287   0.0000       1.576960        42.9113 
 288   0.0000       1.587669        43.2027 
 289   0.0000       1.592182        43.3255 
 290   0.0000       1.602036        43.5936 
 291   0.0000       1.618074        44.0300 
 292   0.0000       1.624499        44.2049 
 293   0.0000       1.625952        44.2444 
 294   0.0000       1.630231        44.3608 
 295   0.0000       1.631474        44.3947 
 296   0.0000       1.631966        44.4080 
 297   0.0000       1.639629        44.6166 
 298   0.0000       1.640217        44.6326 
 299   0.0000       1.649124        44.8750 
 300   0.0000       1.651706        44.9452 
 301   0.0000       1.655212        45.0406 
 302   0.0000       1.660057        45.1725 
 303   0.0000       1.660838        45.1937 
 304   0.0000       1.671828        45.4928 
 305   0.0000       1.674929        45.5771 
 306   0.0000       1.682255        45.7765 
 307   0.0000       1.685218        45.8571 
 308   0.0000       1.690671        46.0055 
 309   0.0000       1.693613        46.0855 
[...]
      px      :     0.026644
      py      :     0.034226

SPIN
  0 C s       :     0.000000  s :     0.000000
      pz      :     0.000000  p :     0.000000
      px      :     0.000000
      py      :    -0.000000
      dz2     :    -0.000000  d :    -0.000000
      dxz     :    -0.000000
      dyz     :    -0.000000
      dx2y2   :    -0.000000
      dxy     :     0.000000
  1 C s       :    -0.000000  s :    -0.000000
      pz      :    -0.000000  p :    -0.000000
      px      :    -0.000000
      py      :    -0.000000
      dz2     :    -0.000000  d :     0.000000
      dxz     :     0.000000
      dyz     :    -0.000000
      dx2y2   :    -0.000000
      dxy     :    -0.000000
  2 C s       :     0.000000  s :     0.000000
      pz      :     0.000001  p :     0.000002
      px      :     0.000000
      py      :     0.000001
      dz2     :     0.000000  d :    -0.000000
      dxz     :    -0.000000
      dyz     :    -0.000000
      dx2y2   :     0.000000
      dxy     :     0.000000
  3 C s       :    -0.000000  s :    -0.000000
      pz      :     0.000001  p :     0.000001
      px      :     0.000000
      py      :    -0.000000
      dz2     :    -0.000000  d :    -0.000000
      dxz     :    -0.000000
      dyz     :    -0.000000
      dx2y2   :     0.000000
      dxy     :    -0.000000
  4 C s       :     0.000000  s :     0.000000
      pz      :    -0.000003  p :    -0.000003
      px      :    -0.000000
      py      :     0.000000
      dz2     :     0.000000  d :     0.000000
      dxz     :     0.000000
      dyz     :     0.000000
      dx2y2   :     0.000000
      dxy     :     0.000000
  5 C s       :     0.000001  s :     0.000001
      pz      :     0.000001  p :     0.000005
      px      :     0.000001
      py      :     0.000003
      dz2     :     0.000000  d :     0.000001
      dxz     :    -0.000000
      dyz     :    -0.000000
      dx2y2   :     0.000001
      dxy     :     0.000000
  6 C s       :     0.000004  s :     0.000004
      pz      :    -0.000002  p :     0.000011
      px      :     0.000002
      py      :     0.000011
      dz2     :     0.000001  d :     0.000005
      dxz     :     0.000000
      dyz     :     0.000000
      dx2y2   :     0.000003
      dxy     :     0.000001
  7 C s       :     0.000018  s :     0.000018
      pz      :     0.000008  p :     0.000062
      px      :     0.000013
      py      :     0.000042
      dz2     :     0.000002  d :     0.000014
      dxz     :    -0.000000
      dyz     :    -0.000000
      dx2y2   :     0.000011
      dxy     :     0.000002
  8 C s       :     0.000002  s :     0.000002
      pz      :    -0.000004  p :    -0.000003
      px      :    -0.000002
      py      :     0.000003
      dz2     :     0.000000  d :     0.000002
      dxz     :     0.000000
      dyz     :    -0.000000
      dx2y2   :     0.000001
      dxy     :     0.000001
  9 H s       :     0.000002  s :     0.000002
      pz      :     0.000000  p :     0.000000
      px      :     0.000000
      py      :     0.000000
 10 H s       :     0.000001  s :     0.000001
      pz      :    -0.000000  p :     0.000001
      px      :    -0.000000
      py      :     0.000001
 11 C s       :     0.000000  s :     0.000000
      pz      :     0.000000  p :     0.000000
      px      :     0.000000
      py      :     0.000000
      dz2     :    -0.000000  d :    -0.000000
      dxz     :    -0.000000
      dyz     :    -0.000000
      dx2y2   :    -0.000000
      dxy     :    -0.000000
 12 H s       :    -0.000000  s :    -0.000000
      pz      :     0.000000  p :     0.000000
      px      :     0.000000
      py      :    -0.000000
 13 H s       :    -0.000000  s :    -0.000000
      pz      :     0.000000  p :     0.000000
      px      :     0.000000
      py      :    -0.000000
 14 C s       :     0.000000  s :     0.000000
      pz      :     0.000000  p :     0.000000
      px      :     0.000000
      py      :     0.000000
      dz2     :     0.000000  d :     0.000000
      dxz     :    -0.000000
      dyz     :     0.000000
      dx2y2   :     0.000000
      dxy     :     0.000000
 15 H s       :     0.000000  s :     0.000000
      pz      :     0.000000  p :     0.000000
      px      :     0.000000
      py      :     0.000000
 16 H s       :     0.000000  s :     0.000000
      pz      :     0.000000  p :     0.000000
      px      :     0.000000
      py      :     0.000000
 17 C s       :     0.000000  s :     0.000000
      pz      :    -0.000000  p :     0.000000
      px      :     0.000000
      py      :     0.000000
      dz2     :    -0.000000  d :    -0.000000
      dxz     :    -0.000000
      dyz     :    -0.000000
      dx2y2   :     0.000000
      dxy     :     0.000000
 18 H s       :    -0.000000  s :    -0.000000
      pz      :     0.000000  p :     0.000000
      px      :     0.000000
      py      :     0.000000
 19 H s       :    -0.000000  s :    -0.000000
      pz      :     0.000000  p :     0.000000
      px      :     0.000000
      py      :     0.000000
 20 C s       :    -0.000000  s :    -0.000000
      pz      :    -0.000000  p :    -0.000000
      px      :    -0.000000
      py      :    -0.000000
      dz2     :     0.000000  d :     0.000000
      dxz     :    -0.000000
      dyz     :    -0.000000
      dx2y2   :     0.000000
      dxy     :     0.000000
 21 H s       :     0.000000  s :     0.000000
      pz      :     0.000000  p :     0.000000
      px      :     0.000000
      py      :    -0.000000
 22 H s       :     0.000000  s :     0.000000
      pz      :     0.000000  p :     0.000000
      px      :     0.000000
      py      :    -0.000000
 23 C s       :     0.000039  s :     0.000039
      pz      :     0.000007  p :     0.000158
      px      :     0.000048
      py      :     0.000103
      dz2     :     0.000008  d :     0.000049
      dxz     :    -0.000001
      dyz     :     0.000001
      dx2y2   :     0.000034
      dxy     :     0.000008
 24 H s       :    -0.000004  s :    -0.000004
      pz      :     0.000000  p :     0.000004
      px      :     0.000001
      py      :     0.000003
 25 H s       :    -0.000004  s :    -0.000004
      pz      :     0.000000  p :     0.000004
      px      :     0.000001
      py      :     0.000003
 26 C s       :     0.000244  s :     0.000244
      pz      :     0.000042  p :     0.000874
      px      :     0.000254
      py      :     0.000579
      dz2     :     0.000016  d :     0.000070
      dxz     :    -0.000009
      dyz     :     0.000001
      dx2y2   :     0.000048
      dxy     :     0.000013
 27 H s       :    -0.000022  s :    -0.000022
      pz      :     0.000002  p :     0.000023
      px      :     0.000009
      py      :     0.000011
 28 H s       :    -0.000022  s :    -0.000022
      pz      :     0.000002  p :     0.000023
      px      :     0.000009
      py      :     0.000011
 29 C s       :     0.000214  s :     0.000214
      pz      :     0.000021  p :     0.000708
      px      :     0.000005
      py      :     0.000682
      dz2     :     0.000078  d :     0.000568
      dxz     :    -0.000001
      dyz     :     0.000005
      dx2y2   :     0.000254
      dxy     :     0.000233
 30 H s       :     0.000042  s :     0.000042
      pz      :     0.000001  p :    -0.000011
      px      :    -0.000001
      py      :    -0.000012
 31 H s       :     0.000042  s :     0.000042
      pz      :     0.000001  p :    -0.000011
      px      :    -0.000001
      py      :    -0.000012
 32 C s       :     0.000539  s :     0.000539
      pz      :     0.000218  p :     0.005927
      px      :     0.002242
      py      :     0.003467
      dz2     :     0.000077  d :     0.000762
      dxz     :    -0.000031
      dyz     :     0.000020
      dx2y2   :     0.000763
      dxy     :    -0.000067
 33 H s       :    -0.000174  s :    -0.000174
      pz      :     0.000042  p :     0.000258
      px      :     0.000013
      py      :     0.000202
 34 H s       :    -0.000174  s :    -0.000174
      pz      :     0.000037  p :     0.000258
      px      :     0.000014
      py      :     0.000207
 35 C s       :     0.013053  s :     0.013053
      pz      :     0.001945  p :     0.037304
      px      :     0.006502
      py      :     0.028856
      dz2     :     0.000209  d :     0.000044
      dxz     :    -0.000365
      dyz     :    -0.000037
      dx2y2   :    -0.000433
      dxy     :     0.000669
 36 H s       :    -0.000136  s :    -0.000136
      pz      :     0.000219  p :     0.001243
      px      :     0.000605
      py      :     0.000419
 37 H s       :    -0.000134  s :    -0.000134
      pz      :     0.000215  p :     0.001243
      px      :     0.000593
      py      :     0.000435
 38 C s       :    -0.004822  s :    -0.004822
      pz      :    -0.003280  p :    -0.021851
      px      :    -0.008280
      py      :    -0.010291
      dz2     :     0.002870  d :     0.037151
      dxz     :     0.000796
      dyz     :     0.000250
      dx2y2   :     0.023698
      dxy     :     0.009537
 39 H s       :     0.010917  s :     0.010917
      pz      :    -0.000242  p :    -0.000764
      px      :     0.000061
      py      :    -0.000583
 40 H s       :     0.010977  s :     0.010977
      pz      :    -0.000230  p :    -0.000765
      px      :     0.000055
      py      :    -0.000590
 41 C s       :     0.030152  s :     0.030152
      pz      :     0.017040  p :     0.873042
      px      :     0.525218
      py      :     0.330784
      dz2     :    -0.001831  d :    -0.004959
      dxz     :    -0.000875
      dyz     :    -0.000657
      dx2y2   :     0.000417
      dxy     :    -0.002013
 42 H s       :    -0.022246  s :    -0.022246
      pz      :     0.002540  p :     0.026147
      px      :     0.013959
      py      :     0.009647
 43 H s       :    -0.022247  s :    -0.022247
      pz      :     0.002448  p :     0.026149
      px      :     0.013991
      py      :     0.009709
 44 C s       :    -0.000000  s :    -0.000000
      pz      :    -0.000002  p :    -0.000003
      px      :    -0.000000
      py      :    -0.000001
      dz2     :     0.000000  d :     0.000000
      dxz     :     0.000000
      dyz     :    -0.000000
      dx2y2   :     0.000000
      dxy     :     0.000000
 45 H s       :    -0.000000  s :    -0.000000
      pz      :     0.000000  p :     0.000000
      px      :     0.000000
      py      :    -0.000000
 46 H s       :     0.000000  s :     0.000000
      pz      :    -0.000000  p :    -0.000000
      px      :    -0.000000
      py      :    -0.000000
 47 H s       :     0.000000  s :     0.000000
      pz      :    -0.000000  p :     0.000000
      px      :     0.000000
      py      :    -0.000000


                      *****************************
                      * MAYER POPULATION ANALYSIS *
                      *****************************

  NA   - Mulliken gross atomic population
  ZA   - Total nuclear charge
  QA   - Mulliken gross atomic charge
  VA   - Mayer's total valence
  BVA  - Mayer's bonded valence
  FA   - Mayer's free valence

  ATOM       NA         ZA         QA         VA         BVA        FA
  0 C      6.6050     6.0000    -0.6050     3.3875     3.3875     0.0000
  1 C      5.3726     6.0000     0.6274     2.8932     2.8932     0.0000
  2 C      5.3727     6.0000     0.6273     2.8922     2.8922     0.0000
  3 C      6.0392     6.0000    -0.0392     3.8144     3.8144     0.0000
  4 C      6.0642     6.0000    -0.0642     4.1274     4.1274     0.0000
  5 C      5.9790     6.0000     0.0210     3.8825     3.8825     0.0000
  6 C      6.0380     6.0000    -0.0380     3.8151     3.8151     0.0000
  7 C      6.0637     6.0000    -0.0637     4.1271     4.1271     0.0000
  8 C      5.9775     6.0000     0.0225     3.8803     3.8803     0.0000
  9 H      1.0513     1.0000    -0.0513     1.0031     1.0031     0.0000
 10 H      1.0514     1.0000    -0.0514     1.0029     1.0029     0.0000
 11 C      5.9570     6.0000     0.0430     4.0294     4.0294     0.0000
 12 H      0.9685     1.0000     0.0315     0.9698     0.9698     0.0000
 13 H      0.9685     1.0000     0.0315     0.9697     0.9697     0.0000
 14 C      6.0363     6.0000    -0.0363     4.1153     4.1153     0.0000
 15 H      0.9836     1.0000     0.0164     0.9628     0.9628     0.0000
 16 H      0.9838     1.0000     0.0162     0.9629     0.9629     0.0000
 17 C      6.0238     6.0000    -0.0238     4.1173     4.1173     0.0000
 18 H      0.9941     1.0000     0.0059     0.9674     0.9674    -0.0000
 19 H      0.9941     1.0000     0.0059     0.9674     0.9674    -0.0000
 20 C      5.9962     6.0000     0.0038     4.0168     4.0168     0.0000
 21 H      0.9830     1.0000     0.0170     0.9772     0.9772     0.0000
 22 H      0.9831     1.0000     0.0169     0.9773     0.9773     0.0000
 23 C      5.9515     6.0000     0.0485     4.0211     4.0211     0.0000
 24 H      0.9681     1.0000     0.0319     0.9693     0.9693     0.0000
 25 H      0.9682     1.0000     0.0318     0.9697     0.9697     0.0000
 26 C      6.0355     6.0000    -0.0355     4.1172     4.1172     0.0000
 27 H      0.9836     1.0000     0.0164     0.9634     0.9634     0.0000
 28 H      0.9833     1.0000     0.0167     0.9631     0.9631     0.0000
 29 C      5.9848     6.0000     0.0152     4.0742     4.0742     0.0000
 30 H      0.9967     1.0000     0.0033     0.9695     0.9695     0.0000
 31 H      0.9966     1.0000     0.0034     0.9695     0.9695     0.0000
 32 C      6.0060     6.0000    -0.0060     4.0850     4.0849     0.0001
 33 H      0.9981     1.0000     0.0019     0.9699     0.9699     0.0000
 34 H      0.9981     1.0000     0.0019     0.9699     0.9699     0.0000
 35 C      5.9996     6.0000     0.0004     4.0591     4.0564     0.0027
 36 H      0.9966     1.0000     0.0034     0.9708     0.9708     0.0000
 37 H      0.9967     1.0000     0.0033     0.9708     0.9708     0.0000
 38 C      6.0008     6.0000    -0.0008     4.1004     4.0979     0.0025
 39 H      0.9895     1.0000     0.0105     0.9657     0.9655     0.0002
 40 H      0.9895     1.0000     0.0105     0.9657     0.9655     0.0002
 41 C      6.0681     6.0000    -0.0681     3.9788     3.1229     0.8559
 42 H      0.9753     1.0000     0.0247     0.9760     0.9737     0.0023
 43 H      0.9753     1.0000     0.0247     0.9760     0.9737     0.0023
 44 C      6.6051     6.0000    -0.6051     3.3875     3.3875     0.0000
 45 H      1.0295     1.0000    -0.0295     1.0305     1.0305    -0.0000
 46 H      1.0295     1.0000    -0.0295     1.0305     1.0305     0.0000
 47 H      0.9874     1.0000     0.0126     0.9734     0.9734    -0.0000

  Mayer bond orders larger than 0.100000
B(  0-C ,  1-C ) :   2.1185 B(  0-C , 45-H ) :   1.1191 B(  1-C ,  3-C ) :   0.9085 
B(  2-C ,  6-C ) :   0.9076 B(  2-C , 44-C ) :   2.1184 B(  3-C ,  4-C ) :   1.3967 
B(  3-C ,  8-C ) :   1.3723 B(  4-C ,  5-C ) :   1.4265 B(  4-C , 11-C ) :   1.0905 
B(  5-C ,  6-C ) :   1.3732 B(  5-C ,  9-H ) :   0.9214 B(  6-C ,  7-C ) :   1.3972 
B(  7-C ,  8-C ) :   1.4264 B(  7-C , 23-C ) :   1.0895 B(  8-C , 10-H ) :   0.9220 
B( 11-C , 12-H ) :   0.8982 B( 11-C , 13-H ) :   0.8980 B( 11-C , 14-C ) :   1.1041 
B( 14-C , 15-H ) :   0.9293 B( 14-C , 16-H ) :   0.9293 B( 14-C , 17-C ) :   1.0752 
B( 17-C , 18-H ) :   0.9410 B( 17-C , 19-H ) :   0.9410 B( 17-C , 20-C ) :   1.1059 
B( 20-C , 21-H ) :   0.9663 B( 20-C , 22-H ) :   0.9662 B( 20-C , 47-H ) :   0.9617 
B( 23-C , 24-H ) :   0.8973 B( 23-C , 25-H ) :   0.8972 B( 23-C , 26-C ) :   1.1029 
B( 26-C , 27-H ) :   0.9273 B( 26-C , 28-H ) :   0.9269 B( 26-C , 29-C ) :   1.0768 
B( 29-C , 30-H ) :   0.9338 B( 29-C , 31-H ) :   0.9338 B( 29-C , 32-C ) :   1.0779 
B( 32-C , 33-H ) :   0.9358 B( 32-C , 34-H ) :   0.9358 B( 32-C , 35-C ) :   1.0780 
B( 35-C , 36-H ) :   0.9401 B( 35-C , 37-H ) :   0.9401 B( 35-C , 38-C ) :   1.0486 
B( 38-C , 39-H ) :   0.9359 B( 38-C , 40-H ) :   0.9358 B( 38-C , 41-C ) :   1.1363 
B( 41-C , 42-H ) :   0.9649 B( 41-C , 43-H ) :   0.9649 B( 44-C , 46-H ) :   1.1191 


-------
TIMINGS
-------

Total SCF time: 0 days 0 hours 0 min 55 sec 

Total time                  ....      55.281 sec
Sum of individual times     ....      51.906 sec  ( 93.9%)

Fock matrix formation       ....      46.303 sec  ( 83.8%)
  Split-RI-J                ....       3.573 sec  (  7.7% of F)
  Chain of spheres X        ....      29.238 sec  ( 63.1% of F)
  XC integration            ....      10.487 sec  ( 22.6% of F)
    Basis function eval.    ....       0.973 sec  (  9.3% of XC)
    Density eval.           ....       1.065 sec  ( 10.2% of XC)
    XC-Functional eval.     ....       0.232 sec  (  2.2% of XC)
    XC-Potential eval.      ....       0.525 sec  (  5.0% of XC)
Diagonalization             ....       0.920 sec  (  1.7%)
Density matrix formation    ....       0.327 sec  (  0.6%)
Population analysis         ....       0.305 sec  (  0.6%)
Initial guess               ....       0.134 sec  (  0.2%)
Orbital Transformation      ....       0.000 sec  (  0.0%)
Orbital Orthonormalization  ....       0.096 sec  (  0.2%)
DIIS solution               ....       0.693 sec  (  1.3%)
Grid generation             ....       3.223 sec  (  5.8%)

Maximum memory used throughout the entire SCF-calculation: 110.0 MB

-------------------------   --------------------
FINAL SINGLE POINT ENERGY      -815.796656735506
-------------------------   --------------------

                                *** OPTIMIZATION RUN DONE ***

                            ***************************************
                            *     ORCA property calculations      *
                            ***************************************

                                    ---------------------
                                    Active property flags
                                    ---------------------
   (+) Dipole Moment


------------------------------------------------------------------------------
                       ORCA ELECTRIC PROPERTIES CALCULATION
------------------------------------------------------------------------------

Dipole Moment Calculation                       ... on
Quadrupole Moment Calculation                   ... off
Polarizability Calculation                      ... off
GBWName                                         ... opt.gbw
Electron density                                ... opt.scfp
The origin for moment calculation is the CENTER OF MASS  = ( 0.446442,  2.473560 -0.160641)

-------------
DIPOLE MOMENT
-------------
                                X             Y             Z
Electronic contribution:     -2.07519     -10.76997      -0.12309
Nuclear contribution   :      2.05355      10.64022       0.12095
                        -----------------------------------------
Total Dipole Moment    :     -0.02164      -0.12975      -0.00213
                        -----------------------------------------
Magnitude (a.u.)       :      0.13156
Magnitude (Debye)      :      0.33439



--------------------
Rotational spectrum 
--------------------
 
Rotational constants in cm-1:     0.021354     0.002920     0.002583 
Rotational constants in MHz :   640.175430    87.546244    77.426582 

 Dipole components along the rotational axes: 
x,y,z [a.u.] :    -0.131381     0.006795     0.000219 
x,y,z [Debye]:    -0.333943     0.017272     0.000556 

 

Timings for individual modules:

Sum of individual times         ...      809.301 sec (=  13.488 min)
GTO integral calculation        ...       25.975 sec (=   0.433 min)   3.2 %
SCF iterations                  ...      631.535 sec (=  10.526 min)  78.0 %
SCF Gradient evaluation         ...      149.857 sec (=   2.498 min)  18.5 %
Geometry relaxation             ...        1.933 sec (=   0.032 min)   0.2 %
                             ****ORCA TERMINATED NORMALLY****
TOTAL RUN TIME: 0 days 0 hours 13 minutes 58 seconds 362 msec
