
                                 *****************
                                 * O   R   C   A *
                                 *****************

                                            #,                                       
                                            ###                                      
                                            ####                                     
                                            #####                                    
                                            ######                                   
                                           ########,                                 
                                     ,,################,,,,,                         
                               ,,#################################,,                 
                          ,,##########################################,,             
                       ,#########################################, ''#####,          
                    ,#############################################,,   '####,        
                  ,##################################################,,,,####,       
                ,###########''''           ''''###############################       
              ,#####''   ,,,,##########,,,,          '''####'''          '####       
            ,##' ,,,,###########################,,,                        '##       
           ' ,,###''''                  '''############,,,                           
         ,,##''                                '''############,,,,        ,,,,,,###''
      ,#''                                            '''#######################'''  
     '                                                          ''''####''''         
             ,#######,   #######,   ,#######,      ##                                
            ,#'     '#,  ##    ##  ,#'     '#,    #''#        ######   ,####,        
            ##       ##  ##   ,#'  ##            #'  '#       #        #'  '#        
            ##       ##  #######   ##           ,######,      #####,   #    #        
            '#,     ,#'  ##    ##  '#,     ,#' ,#      #,         ##   #,  ,#        
             '#######'   ##     ##  '#######'  #'      '#     #####' # '####'        



                  #######################################################
                  #                        -***-                        #
                  #          Department of theory and spectroscopy      #
                  #    Directorship and core code : Frank Neese         #
                  #        Max Planck Institute fuer Kohlenforschung    #
                  #                Kaiser Wilhelm Platz 1               #
                  #                 D-45470 Muelheim/Ruhr               #
                  #                      Germany                        #
                  #                                                     #
                  #                  All rights reserved                #
                  #                        -***-                        #
                  #######################################################


                         Program Version 5.0.4 -  RELEASE  -


 With contributions from (in alphabetic order):
   Daniel Aravena         : Magnetic Suceptibility
   Michael Atanasov       : Ab Initio Ligand Field Theory (pilot matlab implementation)
   Alexander A. Auer      : GIAO ZORA, VPT2 properties, NMR spectrum
   Ute Becker             : Parallelization
   Giovanni Bistoni       : ED, misc. LED, open-shell LED, HFLD
   Martin Brehm           : Molecular dynamics
   Dmytro Bykov           : SCF Hessian
   Vijay G. Chilkuri      : MRCI spin determinant printing, contributions to CSF-ICE
   Dipayan Datta          : RHF DLPNO-CCSD density
   Achintya Kumar Dutta   : EOM-CC, STEOM-CC
   Dmitry Ganyushin       : Spin-Orbit,Spin-Spin,Magnetic field MRCI
   Miquel Garcia          : C-PCM and meta-GGA Hessian, CC/C-PCM, Gaussian charge scheme
   Yang Guo               : DLPNO-NEVPT2, F12-NEVPT2, CIM, IAO-localization
   Andreas Hansen         : Spin unrestricted coupled pair/coupled cluster methods
   Benjamin Helmich-Paris : MC-RPA, TRAH-SCF, COSX integrals
   Lee Huntington         : MR-EOM, pCC
   Robert Izsak           : Overlap fitted RIJCOSX, COSX-SCS-MP3, EOM
   Marcus Kettner         : VPT2
   Christian Kollmar      : KDIIS, OOCD, Brueckner-CCSD(T), CCSD density, CASPT2, CASPT2-K
   Simone Kossmann        : Meta GGA functionals, TD-DFT gradient, OOMP2, MP2 Hessian
   Martin Krupicka        : Initial AUTO-CI
   Lucas Lang             : DCDCAS
   Marvin Lechner         : AUTO-CI (C++ implementation), FIC-MRCC
   Dagmar Lenk            : GEPOL surface, SMD
   Dimitrios Liakos       : Extrapolation schemes; Compound Job, initial MDCI parallelization
   Dimitrios Manganas     : Further ROCIS development; embedding schemes
   Dimitrios Pantazis     : SARC Basis sets
   Anastasios Papadopoulos: AUTO-CI, single reference methods and gradients
   Taras Petrenko         : DFT Hessian,TD-DFT gradient, ASA, ECA, R-Raman, ABS, FL, XAS/XES, NRVS
   Peter Pinski           : DLPNO-MP2, DLPNO-MP2 Gradient
   Christoph Reimann      : Effective Core Potentials
   Marius Retegan         : Local ZFS, SOC
   Christoph Riplinger    : Optimizer, TS searches, QM/MM, DLPNO-CCSD(T), (RO)-DLPNO pert. Triples
   Tobias Risthaus        : Range-separated hybrids, TD-DFT gradient, RPA, STAB
   Michael Roemelt        : Original ROCIS implementation
   Masaaki Saitow         : Open-shell DLPNO-CCSD energy and density
   Barbara Sandhoefer     : DKH picture change effects
   Avijit Sen             : IP-ROCIS
   Kantharuban Sivalingam : CASSCF convergence, NEVPT2, FIC-MRCI
   Bernardo de Souza      : ESD, SOC TD-DFT
   Georgi Stoychev        : AutoAux, RI-MP2 NMR, DLPNO-MP2 response
   Willem Van den Heuvel  : Paramagnetic NMR
   Boris Wezisla          : Elementary symmetry handling
   Frank Wennmohs         : Technical directorship


 We gratefully acknowledge several colleagues who have allowed us to
 interface, adapt or use parts of their codes:
   Stefan Grimme, W. Hujo, H. Kruse, P. Pracht,  : VdW corrections, initial TS optimization,
                  C. Bannwarth, S. Ehlert          DFT functionals, gCP, sTDA/sTD-DF
   Ed Valeev, F. Pavosevic, A. Kumar             : LibInt (2-el integral package), F12 methods
   Garnet Chan, S. Sharma, J. Yang, R. Olivares  : DMRG
   Ulf Ekstrom                                   : XCFun DFT Library
   Mihaly Kallay                                 : mrcc  (arbitrary order and MRCC methods)
   Jiri Pittner, Ondrej Demel                    : Mk-CCSD
   Frank Weinhold                                : gennbo (NPA and NBO analysis)
   Christopher J. Cramer and Donald G. Truhlar   : smd solvation model
   Lars Goerigk                                  : TD-DFT with DH, B97 family of functionals
   V. Asgeirsson, H. Jonsson                     : NEB implementation
   FAccTs GmbH                                   : IRC, NEB, NEB-TS, DLPNO-Multilevel, CI-OPT
                                                   MM, QMMM, 2- and 3-layer-ONIOM, Crystal-QMMM,
                                                   LR-CPCM, SF, NACMEs, symmetry and pop. for TD-DFT,
                                                   nearIR, NL-DFT gradient (VV10), updates on ESD,
                                                   ML-optimized integration grids
   S Lehtola, MJT Oliveira, MAL Marques          : LibXC Library
   Liviu Ungur et al                             : ANISO software


 Your calculation uses the libint2 library for the computation of 2-el integrals
 For citations please refer to: http://libint.valeyev.net

 Your ORCA version has been built with support for libXC version: 5.1.0
 For citations please refer to: https://tddft.org/programs/libxc/

 This ORCA versions uses:
   CBLAS   interface :  Fast vector & matrix operations
   LAPACKE interface :  Fast linear algebra routines
   SCALAPACK package :  Parallel linear algebra routines
   Shared memory     :  Shared parallel matrices
   BLAS/LAPACK       :  OpenBLAS 0.3.15  USE64BITINT DYNAMIC_ARCH NO_AFFINITY SkylakeX SINGLE_THREADED
        Core in use  :  SkylakeX
   Copyright (c) 2011-2014, The OpenBLAS Project




***************************************
The coordinates will be read from file: model.xyz
***************************************


================================================================================

----- Orbital basis set information -----
Your calculation utilizes the basis: cc-pVDZ 
       H, B-Ne : Obtained from the ccRepo (grant-hill.group.shef.ac.uk/ccrepo) Feb. 2017
                 T. H. Dunning, Jr., J. Chem. Phys. 90, 1007 (1989)
            He : Obtained from the ccRepo (grant-hill.group.shef.ac.uk/ccrepo) Feb. 2017
                 D. E. Woon, T. H. Dunning, Jr., J. Chem. Phys. 100, 2975 (1994)
  Li-Be, Na-Mg : Obtained from the ccRepo (grant-hill.group.shef.ac.uk/ccrepo) Feb. 2017
                 B. P. Prascher, D. E. Woon, K. A. Peterson, T. H. Dunning, Jr., A. K. Wilson, Theor. Chem. Acc. 128, 69 (2011)
         Al-Ar : Obtained from the ccRepo (grant-hill.group.shef.ac.uk/ccrepo) Feb. 2017
                 D. E. Woon, T. H. Dunning, Jr., J. Chem. Phys. 98, 1358 (1993)
            Ca : Obtained from the Peterson Research Group Website (tyr0.chem.wsu.edu/~kipeters) Feb. 2017
                 J. Koput, K. A. Peterson, J. Phys. Chem. 106, 9595 (2002)
         Sc-Zn : Obtained from the ccRepo (grant-hill.group.shef.ac.uk/ccrepo) Feb. 2017
                 N. B. Balabanov, K. A. Peterson, J. Chem. Phys. 123, 064107 (2005)
                 N. B. Balabanov, K. A. Peterson, J. Chem. Phys. 125, 074110 (2006)
         Ga-Kr : Obtained from the ccRepo (grant-hill.group.shef.ac.uk/ccrepo) Feb. 2017
                 A. K. Wilson, D. E. Woon, K. A. Peterson, T. H. Dunning, Jr., J. Chem. Phys. 110, 7667 (1999)

----- AuxJ basis set information -----
Your calculation utilizes the auxiliary basis: def2/J
   F. Weigend, Phys. Chem. Chem. Phys. 8, 1057 (2006).

================================================================================
                                        WARNINGS
                       Please study these warnings very carefully!
================================================================================

WARNING: Old DensityContainer found on disk!
         Will remove this file - 
         If you want to keep old densities, please start your calculation with a different basename. 


WARNING: your system is open-shell and RHF/RKS was chosen
  ===> : WILL SWITCH to UHF/UKS


WARNING: Geometry Optimization
  ===> : Switching off AutoStart
         For restart on a previous wavefunction, please use MOREAD

INFO   : the flag for use of the SHARK integral package has been found!

================================================================================
                                       INPUT FILE
================================================================================
NAME = opt_cc-pVDZ.inp
|  1> ! B3LYP cc-pVDZ OPT
|  2> %pal nprocs 16 end
|  3> *XYZFile 0 2 model.xyz
|  4> 
|  5>                          ****END OF INPUT****
================================================================================

                       *****************************
                       * Geometry Optimization Run *
                       *****************************

Geometry optimization settings:
Update method            Update   .... BFGS
Choice of coordinates    CoordSys .... Z-matrix Internals
Initial Hessian          InHess   .... Almoef's Model

Convergence Tolerances:
Energy Change            TolE     ....  5.0000e-06 Eh
Max. Gradient            TolMAXG  ....  3.0000e-04 Eh/bohr
RMS Gradient             TolRMSG  ....  1.0000e-04 Eh/bohr
Max. Displacement        TolMAXD  ....  4.0000e-03 bohr
RMS Displacement         TolRMSD  ....  2.0000e-03 bohr
Strict Convergence                ....  False
------------------------------------------------------------------------------
                        ORCA OPTIMIZATION COORDINATE SETUP
------------------------------------------------------------------------------

The optimization will be done in new redundant internal coordinates
Making redundant internal coordinates   ...  (new redundants) done
Evaluating the initial hessian          ...  (Almloef) done
Evaluating the coordinates              ...  done
Calculating the B-matrix                .... done
Calculating the G-matrix                .... done
Diagonalizing the G-matrix              .... done
Small eigenvalue found = 8.781e-04
Small eigenvalue found = 3.647e-03
Small eigenvalue found = 4.115e-03
Small eigenvalue found = 9.723e-03
Small eigenvalue found = 1.219e-02
Small eigenvalue found = 1.521e-02
Small eigenvalue found = 2.047e-02
Small eigenvalue found = 2.747e-02
Small eigenvalue found = 2.930e-02
The first mode is                       ....  113
The number of degrees of freedom        ....  138

    -----------------------------------------------------------------
                    Redundant Internal Coordinates


    -----------------------------------------------------------------
         Definition                    Initial Value    Approx d2E/dq
    -----------------------------------------------------------------
      1. B(C   1,C   0)                  1.2161         1.183430   
      2. B(C   3,C   1)                  1.4326         0.534242   
      3. B(C   4,C   3)                  1.4186         0.562522   
      4. B(C   5,C   4)                  1.3955         0.612340   
      5. B(C   6,C   5)                  1.4093         0.581965   
      6. B(C   6,C   2)                  1.4326         0.534264   
      7. B(C   7,C   6)                  1.4186         0.562499   
      8. B(C   8,C   7)                  1.3955         0.612367   
      9. B(C   8,C   3)                  1.4093         0.582034   
     10. B(H   9,C   5)                  1.0898         0.360419   
     11. B(H  10,C   8)                  1.0897         0.360439   
     12. B(C  11,C   4)                  1.5167         0.392320   
     13. B(H  12,C  11)                  1.1056         0.340069   
     14. B(H  13,C  11)                  1.1056         0.340033   
     15. B(C  14,C  11)                  1.5309         0.372395   
     16. B(H  15,C  14)                  1.1057         0.339962   
     17. B(H  16,C  14)                  1.1057         0.339942   
     18. B(C  17,C  14)                  1.5335         0.368766   
     19. B(H  18,C  17)                  1.1058         0.339734   
     20. B(H  19,C  17)                  1.1059         0.339726   
     21. B(C  20,C  17)                  1.5307         0.372562   
     22. B(H  21,C  20)                  1.1037         0.342364   
     23. B(H  22,C  20)                  1.1038         0.342362   
     24. B(C  23,C   7)                  1.5168         0.392076   
     25. B(H  24,C  23)                  1.1056         0.340061   
     26. B(H  25,C  23)                  1.1055         0.340211   
     27. B(C  26,C  23)                  1.5311         0.372131   
     28. B(H  27,C  26)                  1.1055         0.340226   
     29. B(H  28,C  26)                  1.1054         0.340256   
     30. B(C  29,C  26)                  1.5336         0.368716   
     31. B(H  30,C  29)                  1.1064         0.339034   
     32. B(H  31,C  29)                  1.1064         0.339047   
     33. B(C  32,C  29)                  1.5329         0.369657   
     34. B(H  33,C  32)                  1.1067         0.338655   
     35. B(H  34,C  32)                  1.1067         0.338640   
     36. B(C  35,C  32)                  1.5327         0.369836   
     37. B(H  36,C  35)                  1.1055         0.340127   
     38. B(H  37,C  35)                  1.1055         0.340123   
     39. B(C  38,C  35)                  1.5502         0.346903   
     40. B(H  39,C  38)                  1.1062         0.339265   
     41. B(H  40,C  38)                  1.1062         0.339248   
     42. B(C  41,C  38)                  1.4924         0.428947   
     43. B(H  42,C  41)                  1.0938         0.355144   
     44. B(H  43,C  41)                  1.0938         0.355156   
     45. B(C  44,C   2)                  1.2161         1.183440   
     46. B(H  45,C   0)                  1.0725         0.384073   
     47. B(H  46,C  44)                  1.0725         0.384073   
     48. B(H  47,C  20)                  1.1021         0.344434   
     49. L(C   1,C   0,H  45, 2)       179.8926         0.398980   
     50. L(C   1,C   0,H  45, 1)       180.0456         0.398980   
     51. L(C   0,C   1,C   3,C   8, 1) 179.5987         0.475201   
     52. L(C   0,C   1,C   3,C   8, 2) 180.2841         0.475201   
     53. L(C   6,C   2,C  44,C   5, 2) 179.8487         0.475205   
     54. L(C   6,C   2,C  44,C   5, 1) 179.6068         0.475205   
     55. A(C   1,C   3,C   8)          118.9604         0.417895   
     56. A(C   4,C   3,C   8)          120.3596         0.421757   
     57. A(C   1,C   3,C   4)          120.6800         0.415366   
     58. A(C   3,C   4,C  11)          119.9116         0.393337   
     59. A(C   5,C   4,C  11)          122.7875         0.399238   
     60. A(C   3,C   4,C   5)          117.3009         0.425602   
     61. A(C   6,C   5,H   9)          117.6390         0.349207   
     62. A(C   4,C   5,C   6)          122.3398         0.428201   
     63. A(C   4,C   5,H   9)          120.0212         0.352220   
     64. A(C   5,C   6,C   7)          120.3579         0.421745   
     65. A(C   2,C   6,C   7)          120.6669         0.415366   
     66. A(C   2,C   6,C   5)          118.9752         0.417889   
     67. A(C   6,C   7,C   8)          117.3017         0.425602   
     68. A(C   6,C   7,C  23)          119.9234         0.393291   
     69. A(C   8,C   7,C  23)          122.7749         0.399198   
     70. A(C   3,C   8,H  10)          117.6280         0.349217   
     71. A(C   3,C   8,C   7)          122.3401         0.428213   
     72. A(C   7,C   8,H  10)          120.0318         0.352226   
     73. A(C   4,C  11,H  12)          108.1746         0.323878   
     74. A(H  13,C  11,C  14)          109.2343         0.321118   
     75. A(H  12,C  11,C  14)          109.2494         0.321124   
     76. A(H  12,C  11,H  13)          104.4492         0.285672   
     77. A(C   4,C  11,H  13)          108.1647         0.323873   
     78. A(C   4,C  11,C  14)          116.8520         0.366210   
     79. A(H  16,C  14,C  17)          109.0399         0.320590   
     80. A(H  15,C  14,C  17)          109.0289         0.320593   
     81. A(C  11,C  14,C  17)          112.5936         0.362352   
     82. A(H  15,C  14,H  16)          106.2058         0.285647   
     83. A(C  11,C  14,H  16)          109.8719         0.321104   
     84. A(C  11,C  14,H  15)          109.8928         0.321107   
     85. A(C  14,C  17,H  18)          109.2026         0.320558   
     86. A(H  19,C  17,C  20)          109.5724         0.321094   
     87. A(H  18,C  17,C  20)          109.5848         0.321096   
     88. A(C  14,C  17,C  20)          113.1751         0.362380   
     89. A(H  18,C  17,H  19)          105.8452         0.285589   
     90. A(C  14,C  17,H  19)          109.1976         0.320557   
     91. A(H  21,C  20,H  47)          107.5980         0.286546   
     92. A(C  17,C  20,H  47)          111.5000         0.321818   
     93. A(H  21,C  20,H  22)          107.3788         0.286277   
     94. A(C  17,C  20,H  22)          111.2765         0.321501   
     95. A(C  17,C  20,H  21)          111.2868         0.321501   
     96. A(H  22,C  20,H  47)          107.5949         0.286546   
     97. A(H  25,C  23,C  26)          109.2629         0.321109   
     98. A(H  24,C  23,C  26)          109.2578         0.321085   
     99. A(C   7,C  23,C  26)          116.7661         0.366127   
    100. A(H  24,C  23,H  25)          104.4665         0.285695   
    101. A(C   7,C  23,H  25)          108.1894         0.323868   
    102. A(C   7,C  23,H  24)          108.1923         0.323844   
    103. A(H  28,C  26,C  29)          109.0522         0.320632   
    104. A(H  27,C  26,C  29)          109.0707         0.320627   
    105. A(C  23,C  26,C  29)          112.6382         0.362300   
    106. A(H  27,C  26,H  28)          106.2051         0.285722   
    107. A(C  23,C  26,H  28)          109.8532         0.321116   
    108. A(C  23,C  26,H  27)          109.8117         0.321111   
    109. A(H  31,C  29,C  32)          109.3466         0.320579   
    110. A(H  30,C  29,C  32)          109.3514         0.320577   
    111. A(C  26,C  29,C  32)          113.4016         0.361888   
    112. A(H  30,C  29,H  31)          105.8326         0.285408   
    113. A(C  26,C  29,H  31)          109.3100         0.320445   
    114. A(C  26,C  29,H  30)          109.3205         0.320443   
    115. A(C  29,C  32,C  35)          113.6079         0.362075   
    116. A(H  33,C  32,H  34)          105.8280         0.285305   
    117. A(C  29,C  32,H  34)          109.2652         0.320516   
    118. A(C  29,C  32,H  33)          109.2816         0.320518   
    119. A(H  34,C  32,C  35)          109.2819         0.320541   
    120. A(H  33,C  32,C  35)          109.2834         0.320543   
    121. A(H  37,C  35,C  38)          109.0764         0.317436   
    122. A(H  36,C  35,C  38)          109.0798         0.317437   
    123. A(C  32,C  35,C  38)          113.0160         0.358177   
    124. A(H  36,C  35,H  37)          106.0655         0.285692   
    125. A(C  32,C  35,H  37)          109.6858         0.320770   
    126. A(C  32,C  35,H  36)          109.6775         0.320771   
    127. A(H  40,C  38,C  41)          109.9943         0.328541   
    128. A(H  39,C  38,C  41)          110.0039         0.328543   
    129. A(C  35,C  38,C  41)          113.8785         0.367364   
    130. A(H  39,C  38,H  40)          106.5017         0.285464   
    131. A(C  35,C  38,H  40)          108.0881         0.317303   
    132. A(C  35,C  38,H  39)          108.0864         0.317306   
    133. A(H  42,C  41,H  43)          117.5478         0.289579   
    134. A(C  38,C  41,H  43)          120.8621         0.331038   
    135. A(C  38,C  41,H  42)          120.8577         0.331036   
    136. L(C   2,C  44,H  46, 2)       180.0605         0.398981   
    137. L(C   2,C  44,H  46, 1)       180.0133         0.398981   
    138. D(C   5,C   4,C   3,C   8)      0.0087         0.021683   
    139. D(C  11,C   4,C   3,C   1)     -0.0045         0.021683   
    140. D(C  11,C   4,C   3,C   8)   -179.9977         0.021683   
    141. D(C   5,C   4,C   3,C   1)   -179.9981         0.021683   
    142. D(H   9,C   5,C   4,C  11)      0.0055         0.025908   
    143. D(C   6,C   5,C   4,C   3)     -0.0065         0.025908   
    144. D(C   6,C   5,C   4,C  11)   -179.9999         0.025908   
    145. D(H   9,C   5,C   4,C   3)    179.9989         0.025908   
    146. D(C   2,C   6,C   5,H   9)      0.0151         0.023276   
    147. D(C   7,C   6,C   5,H   9)    179.9982         0.023276   
    148. D(C   2,C   6,C   5,C   4)   -179.9796         0.023276   
    149. D(C   7,C   6,C   5,C   4)      0.0035         0.023276   
    150. D(C   8,C   7,C   6,C   5)     -0.0025         0.021681   
    151. D(C   8,C   7,C   6,C   2)    179.9803         0.021681   
    152. D(C  23,C   7,C   6,C   2)     -0.0516         0.021681   
    153. D(C  23,C   7,C   6,C   5)    179.9656         0.021681   
    154. D(C   3,C   8,C   7,C  23)   -179.9622         0.025910   
    155. D(H  10,C   8,C   7,C  23)      0.0460         0.025910   
    156. D(C   7,C   8,C   3,C   4)     -0.0082         0.023282   
    157. D(C   7,C   8,C   3,C   1)    179.9984         0.023282   
    158. D(H  10,C   8,C   7,C   6)   -179.9869         0.025910   
    159. D(C   3,C   8,C   7,C   6)      0.0049         0.025910   
    160. D(H  10,C   8,C   3,C   4)    179.9838         0.023282   
    161. D(H  10,C   8,C   3,C   1)     -0.0096         0.023282   
    162. D(C  14,C  11,C   4,C   5)     -0.0491         0.011444   
    163. D(C  14,C  11,C   4,C   3)    179.9576         0.011444   
    164. D(H  13,C  11,C   4,C   5)    123.6424         0.011444   
    165. D(H  12,C  11,C   4,C   5)   -123.7690         0.011444   
    166. D(H  12,C  11,C   4,C   3)     56.2377         0.011444   
    167. D(H  13,C  11,C   4,C   3)    -56.3508         0.011444   
    168. D(H  15,C  14,C  11,C   4)    -58.1084         0.011077   
    169. D(C  17,C  14,C  11,H  12)    -56.6843         0.011077   
    170. D(C  17,C  14,C  11,C   4)   -179.8530         0.011077   
    171. D(H  16,C  14,C  11,H  13)    -64.7397         0.011077   
    172. D(H  16,C  14,C  11,H  12)   -178.4281         0.011077   
    173. D(H  16,C  14,C  11,C   4)     58.4032         0.011077   
    174. D(H  15,C  14,C  11,H  13)    178.7488         0.011077   
    175. D(C  17,C  14,C  11,H  13)     57.0042         0.011077   
    176. D(H  15,C  14,C  11,H  12)     65.0603         0.011077   
    177. D(C  20,C  17,C  14,H  16)    -57.6551         0.010875   
    178. D(C  20,C  17,C  14,C  11)   -179.8697         0.010875   
    179. D(H  19,C  17,C  14,H  16)   -179.9934         0.010875   
    180. D(H  19,C  17,C  14,H  15)    -64.4414         0.010875   
    181. D(H  19,C  17,C  14,C  11)     57.7920         0.010875   
    182. D(H  18,C  17,C  14,H  16)     64.7026         0.010875   
    183. D(C  20,C  17,C  14,H  15)     57.8969         0.010875   
    184. D(H  18,C  17,C  14,H  15)   -179.7453         0.010875   
    185. D(H  18,C  17,C  14,C  11)    -57.5120         0.010875   
    186. D(H  47,C  20,C  17,H  19)    -57.6966         0.011087   
    187. D(H  47,C  20,C  17,H  18)     58.0297         0.011087   
    188. D(H  47,C  20,C  17,C  14)   -179.8258         0.011087   
    189. D(H  22,C  20,C  17,H  19)     62.4391         0.011087   
    190. D(H  22,C  20,C  17,H  18)    178.1655         0.011087   
    191. D(H  22,C  20,C  17,C  14)    -59.6901         0.011087   
    192. D(H  21,C  20,C  17,H  19)   -177.8432         0.011087   
    193. D(H  21,C  20,C  17,H  18)    -62.1169         0.011087   
    194. D(H  21,C  20,C  17,C  14)     60.0276         0.011087   
    195. D(C  26,C  23,C   7,C   6)    179.4927         0.011430   
    196. D(H  25,C  23,C   7,C   8)   -124.2285         0.011430   
    197. D(H  25,C  23,C   7,C   6)     55.8053         0.011430   
    198. D(H  24,C  23,C   7,C   8)    123.1419         0.011430   
    199. D(C  26,C  23,C   7,C   8)     -0.5411         0.011430   
    200. D(H  24,C  23,C   7,C   6)    -56.8243         0.011430   
    201. D(C  29,C  26,C  23,H  25)    -56.7114         0.011063   
    202. D(C  29,C  26,C  23,C   7)   -179.8472         0.011063   
    203. D(H  28,C  26,C  23,H  25)   -178.4882         0.011063   
    204. D(H  28,C  26,C  23,H  24)    -64.7594         0.011063   
    205. D(H  28,C  26,C  23,C   7)     58.3761         0.011063   
    206. D(H  27,C  26,C  23,H  25)     65.0593         0.011063   
    207. D(C  29,C  26,C  23,H  24)     57.0174         0.011063   
    208. D(H  27,C  26,C  23,H  24)    178.7881         0.011063   
    209. D(H  27,C  26,C  23,C   7)    -58.0764         0.011063   
    210. D(C  32,C  29,C  26,H  28)    -57.7505         0.010873   
    211. D(C  32,C  29,C  26,H  27)     57.8304         0.010873   
    212. D(C  32,C  29,C  26,C  23)   -179.9800         0.010873   
    213. D(H  31,C  29,C  26,H  28)    179.9645         0.010873   
    214. D(H  31,C  29,C  26,H  27)    -64.4546         0.010873   
    215. D(H  31,C  29,C  26,C  23)     57.7350         0.010873   
    216. D(H  30,C  29,C  26,H  28)     64.5484         0.010873   
    217. D(H  30,C  29,C  26,H  27)   -179.8707         0.010873   
    218. D(H  30,C  29,C  26,C  23)    -57.6811         0.010873   
    219. D(C  35,C  32,C  29,H  31)    -57.7162         0.010925   
    220. D(C  35,C  32,C  29,H  30)     57.7374         0.010925   
    221. D(C  35,C  32,C  29,C  26)   -179.9808         0.010925   
    222. D(H  34,C  32,C  29,H  31)     64.5947         0.010925   
    223. D(H  34,C  32,C  29,H  30)   -179.9517         0.010925   
    224. D(H  34,C  32,C  29,C  26)    -57.6700         0.010925   
    225. D(H  33,C  32,C  29,H  31)    179.9590         0.010925   
    226. D(H  33,C  32,C  29,H  30)    -64.5874         0.010925   
    227. D(H  33,C  32,C  29,C  26)     57.6943         0.010925   
    228. D(C  38,C  35,C  32,H  34)     57.6900         0.010935   
    229. D(C  38,C  35,C  32,H  33)    -57.6846         0.010935   
    230. D(C  38,C  35,C  32,C  29)    179.9916         0.010935   
    231. D(H  37,C  35,C  32,H  34)    179.6362         0.010935   
    232. D(H  37,C  35,C  32,H  33)     64.2616         0.010935   
    233. D(H  37,C  35,C  32,C  29)    -58.0622         0.010935   
    234. D(H  36,C  35,C  32,H  34)    -64.2545         0.010935   
    235. D(H  36,C  35,C  32,H  33)   -179.6290         0.010935   
    236. D(H  36,C  35,C  32,C  29)     58.0472         0.010935   
    237. D(C  41,C  38,C  35,H  37)     57.6647         0.009710   
    238. D(C  41,C  38,C  35,C  32)    179.9524         0.009710   
    239. D(H  40,C  38,C  35,H  37)    -64.8805         0.009710   
    240. D(H  40,C  38,C  35,H  36)    179.6867         0.009710   
    241. D(H  40,C  38,C  35,C  32)     57.4072         0.009710   
    242. D(H  39,C  38,C  35,H  37)   -179.7790         0.009710   
    243. D(C  41,C  38,C  35,H  36)    -57.7681         0.009710   
    244. D(H  39,C  38,C  35,H  36)     64.7882         0.009710   
    245. D(H  39,C  38,C  35,C  32)    -57.4913         0.009710   
    246. D(H  43,C  41,C  38,H  40)   -153.4858         0.013590   
    247. D(H  43,C  41,C  38,H  39)    -36.4769         0.013590   
    248. D(H  43,C  41,C  38,C  35)     85.0210         0.013590   
    249. D(H  42,C  41,C  38,H  40)     36.5592         0.013590   
    250. D(H  42,C  41,C  38,H  39)    153.5681         0.013590   
    251. D(H  42,C  41,C  38,C  35)    -84.9339         0.013590   
    -----------------------------------------------------------------

Number of atoms                         .... 48
Number of degrees of freedom            .... 251

         *************************************************************
         *                GEOMETRY OPTIMIZATION CYCLE   1            *
         *************************************************************
---------------------------------
CARTESIAN COORDINATES (ANGSTROEM)
---------------------------------
  C     -4.033095    0.125995   -0.120550
  C     -2.818554    0.064283   -0.113733
  C      2.844701   -0.087698   -0.094014
  C     -1.387308    0.001670   -0.109120
  C     -0.717415   -1.248577   -0.131387
  C      0.677891   -1.227304   -0.125201
  C      1.413450   -0.025455   -0.098238
  C      0.743520    1.224786   -0.076040
  C     -0.651774    1.203497   -0.082207
  H      1.237515   -2.162251   -0.141592
  H     -1.211574    2.138326   -0.066066
  C     -1.519082   -2.535740   -0.160319
  H     -2.193391   -2.502424   -1.035822
  H     -2.198917   -2.538057    0.711570
  C     -0.725170   -3.844428   -0.184263
  H     -0.057419   -3.863303   -1.065313
  H     -0.067448   -3.901298    0.702698
  C     -1.630154   -5.082043   -0.216172
  H     -2.302557   -5.063679    0.661573
  H     -2.289170   -5.027876   -1.102556
  C     -0.849650   -6.398680   -0.237162
  H     -0.209987   -6.499597    0.656655
  H     -0.192325   -6.460562   -1.121673
  C      1.544976    2.512262   -0.046310
  H      2.211265    2.483799    0.835489
  H      2.232417    2.510877   -0.912033
  C      0.748806    3.819980   -0.035637
  H      0.094974    3.867835   -0.925718
  H      0.077234    3.843479    0.842094
  C      1.650750    5.059985   -0.009203
  H      2.308780    5.015134    0.879125
  H      2.325397    5.040432   -0.885895
  C      0.871144    6.379748    0.002295
  H      0.196174    6.397851    0.879166
  H      0.212832    6.422731   -0.886310
  C      1.768137    7.622332    0.028249
  H      2.440869    7.614214   -0.849002
  H      2.424364    7.589422    0.917345
  C      0.965992    8.948773    0.039424
  H      0.313046    8.962787   -0.853435
  H      0.295262    8.937141    0.919053
  C      1.821040   10.171631    0.065838
  H      2.200965   10.570215    1.010891
  H      2.218733   10.598274   -0.859437
  C      4.059287   -0.148837   -0.092234
  H     -5.104117    0.181270   -0.124553
  H      5.130370   -0.203000   -0.089533
  H     -1.525743   -7.268664   -0.263008

----------------------------
CARTESIAN COORDINATES (A.U.)
----------------------------
  NO LB      ZA    FRAG     MASS         X           Y           Z
   0 C     6.0000    0    12.011   -7.621445    0.238096   -0.227806
   1 C     6.0000    0    12.011   -5.326295    0.121477   -0.214924
   2 C     6.0000    0    12.011    5.375707   -0.165726   -0.177661
   3 C     6.0000    0    12.011   -2.621633    0.003156   -0.206208
   4 C     6.0000    0    12.011   -1.355718   -2.359469   -0.248285
   5 C     6.0000    0    12.011    1.281028   -2.319269   -0.236597
   6 C     6.0000    0    12.011    2.671033   -0.048104   -0.185643
   7 C     6.0000    0    12.011    1.405050    2.314511   -0.143695
   8 C     6.0000    0    12.011   -1.231674    2.274280   -0.155348
   9 H     1.0000    0     1.008    2.338565   -4.086062   -0.267571
  10 H     1.0000    0     1.008   -2.289542    4.040851   -0.124848
  11 C     6.0000    0    12.011   -2.870649   -4.791855   -0.302959
  12 H     1.0000    0     1.008   -4.144908   -4.728896   -1.957419
  13 H     1.0000    0     1.008   -4.155351   -4.796233    1.344672
  14 C     6.0000    0    12.011   -1.370372   -7.264916   -0.348206
  15 H     1.0000    0     1.008   -0.108507   -7.300585   -2.013149
  16 H     1.0000    0     1.008   -0.127457   -7.372384    1.327906
  17 C     6.0000    0    12.011   -3.080545   -9.603669   -0.408505
  18 H     1.0000    0     1.008   -4.351202   -9.568967    1.250192
  19 H     1.0000    0     1.008   -4.325904   -9.501309   -2.083529
  20 C     6.0000    0    12.011   -1.605605  -12.091753   -0.448172
  21 H     1.0000    0     1.008   -0.396818  -12.282458    1.240898
  22 H     1.0000    0     1.008   -0.363442  -12.208692   -2.119655
  23 C     6.0000    0    12.011    2.919582    4.747487   -0.087513
  24 H     1.0000    0     1.008    4.178684    4.693700    1.578845
  25 H     1.0000    0     1.008    4.218658    4.744871   -1.723493
  26 C     6.0000    0    12.011    1.415038    7.218715   -0.067345
  27 H     1.0000    0     1.008    0.179475    7.309149   -1.749353
  28 H     1.0000    0     1.008    0.145950    7.263122    1.591328
  29 C     6.0000    0    12.011    3.119466    9.561986   -0.017391
  30 H     1.0000    0     1.008    4.362961    9.477230    1.661306
  31 H     1.0000    0     1.008    4.394363    9.525036   -1.674099
  32 C     6.0000    0    12.011    1.646224   12.055976    0.004337
  33 H     1.0000    0     1.008    0.370715   12.090187    1.661383
  34 H     1.0000    0     1.008    0.402194   12.137203   -1.674883
  35 C     6.0000    0    12.011    3.341295   14.404120    0.053382
  36 H     1.0000    0     1.008    4.612574   14.388779   -1.604382
  37 H     1.0000    0     1.008    4.581384   14.341929    1.733531
  38 C     6.0000    0    12.011    1.825460   16.910729    0.074500
  39 H     1.0000    0     1.008    0.591572   16.937213   -1.612758
  40 H     1.0000    0     1.008    0.557964   16.888749    1.736758
  41 C     6.0000    0    12.011    3.441267   19.221597    0.124417
  42 H     1.0000    0     1.008    4.159221   19.974812    1.910308
  43 H     1.0000    0     1.008    4.192798   20.027834   -1.624101
  44 C     6.0000    0    12.011    7.670940   -0.281260   -0.174296
  45 H     1.0000    0     1.008   -9.645384    0.342550   -0.235371
  46 H     1.0000    0     1.008    9.694995   -0.383615   -0.169193
  47 H     1.0000    0     1.008   -2.883236  -13.735785   -0.497013

--------------------------------
INTERNAL COORDINATES (ANGSTROEM)
--------------------------------
 C      0   0   0     0.000000000000     0.00000000     0.00000000
 C      1   0   0     1.216126533425     0.00000000     0.00000000
 C      2   1   0     5.665328879189   178.62311323     0.00000000
 C      2   1   3     1.432622014091   179.57366667   346.36765878
 C      4   2   1     1.418580903656   120.67998894   199.85893781
 C      5   4   2     1.395481891878   117.30089220   180.00194210
 C      6   5   4     1.409331062043   122.33981991     0.00000000
 C      7   6   5     1.418591952718   120.35786033     0.00000000
 C      8   7   6     1.395469875603   117.30166258     0.00000000
 H      6   5   4     1.089758597975   120.02119069   179.99891363
 H      9   8   7     1.089744037995   120.03182786   180.01309598
 C      5   4   2     1.516672751091   119.91158003     0.00000000
 H     12   5   4     1.105579850259   108.17458873    56.23773308
 H     12   5   4     1.105608617036   108.16474260   303.64915849
 C     12   5   4     1.530860730586   116.85196988   179.95762620
 H     15  12   5     1.105665231667   109.89277517   301.89163176
 H     15  12   5     1.105681392118   109.87190177    58.40315050
 C     15  12   5     1.533526994534   112.59361507   180.14702054
 H     18  15  12     1.105847616516   109.20256463   302.48799365
 H     18  15  12     1.105854061265   109.19764228    57.79198366
 C     18  15  12     1.530739018735   113.17514602   180.13028485
 H     21  18  15     1.103748723839   111.28677580    60.02761689
 H     21  18  15     1.103750210883   111.27649423   300.30992875
 C      8   7   6     1.516841639996   119.92338399   179.96555595
 H     24   8   7     1.105585561708   108.19229282   303.17569237
 H     24   8   7     1.105465601363   108.18939608    55.80527247
 C     24   8   7     1.531054090402   116.76610637   179.49268478
 H     27  24   8     1.105454019405   109.81171929   301.92355081
 H     27  24   8     1.105429445798   109.85323597    58.37606105
 C     27  24   8     1.533563296303   112.63818716   180.15281981
 H     30  27  24     1.106409320032   109.32050156   302.31893984
 H     30  27  24     1.106399094548   109.30995567    57.73499914
 C     30  27  24     1.532869910717   113.40155910   180.02000813
 H     33  30  27     1.106713810006   109.28156324    57.69433825
 H     33  30  27     1.106725444466   109.26524721   302.33004611
 C     33  30  27     1.532737960493   113.60794831   180.01918290
 H     36  33  30     1.105532988879   109.67754542    58.04715616
 H     36  33  30     1.105535900967   109.68583839   301.93781246
 C     36  33  30     1.550163098883   113.01602217   179.99164143
 H     39  36  33     1.106223899969   108.08638156   302.50867140
 H     39  36  33     1.106237562865   108.08810700    57.40717091
 C     39  36  33     1.492376628128   113.87849646   179.95243980
 H     42  39  36     1.093772115972   120.85769729   275.06607383
 H     42  39  36     1.093763237714   120.86205473    85.02102555
 C      3   2   1     1.216124220326   178.65063847   189.98545716
 H      1   2   4     1.072455534972   179.88341160   274.34196710
 H     45   3   7     1.072455866565   179.93817679   270.13232413
 H     21  18  15     1.102108103087   111.50000175   180.17420782

---------------------------
INTERNAL COORDINATES (A.U.)
---------------------------
 C      0   0   0     0.000000000000     0.00000000     0.00000000
 C      1   0   0     2.298146092369     0.00000000     0.00000000
 C      2   1   0    10.705920040262   178.62311323     0.00000000
 C      2   1   3     2.707263260058   179.57366667   346.36765878
 C      4   2   1     2.680729406720   120.67998894   199.85893781
 C      5   4   2     2.637078600496   117.30089220   180.00194210
 C      6   5   4     2.663249739289   122.33981991     0.00000000
 C      7   6   5     2.680750286421   120.35786033     0.00000000
 C      8   7   6     2.637055893027   117.30166258     0.00000000
 H      6   5   4     2.059345302259   120.02119069   179.99891363
 H      9   8   7     2.059317787884   120.03182786   180.01309598
 C      5   4   2     2.866096134343   119.91158003     0.00000000
 H     12   5   4     2.089243136171   108.17458873    56.23773308
 H     12   5   4     2.089297497502   108.16474260   303.64915849
 C     12   5   4     2.892907529982   116.85196988   179.95762620
 H     15  12   5     2.089404483649   109.89277517   301.89163176
 H     15  12   5     2.089435022476   109.87190177    58.40315050
 C     15  12   5     2.897946038645   112.59361507   180.14702054
 H     18  15  12     2.089749141065   109.20256463   302.48799365
 H     18  15  12     2.089761319875   109.19764228    57.79198366
 C     18  15  12     2.892677527916   113.17514602   180.13028485
 H     21  18  15     2.085782808721   111.28677580    60.02761689
 H     21  18  15     2.085785618826   111.27649423   300.30992875
 C      8   7   6     2.866415288121   119.92338399   179.96555595
 H     24   8   7     2.089253929245   108.19229282   303.17569237
 H     24   8   7     2.089027237047   108.18939608    55.80527247
 C     24   8   7     2.893272927080   116.76610637   179.49268478
 H     27  24   8     2.089005350317   109.81171929   301.92355081
 H     27  24   8     2.088958912930   109.85323597    58.37606105
 C     27  24   8     2.898014639047   112.63818716   180.15281981
 H     30  27  24     2.090810606878   109.32050156   302.31893984
 H     30  27  24     2.090791283514   109.30995567    57.73499914
 C     30  27  24     2.896704330183   113.40155910   180.02000813
 H     33  30  27     2.091386009539   109.28156324    57.69433825
 H     33  30  27     2.091407995484   109.26524721   302.33004611
 C     33  30  27     2.896454980396   113.60794831   180.01918290
 H     36  33  30     2.089154580996   109.67754542    58.04715616
 H     36  33  30     2.089160084045   109.68583839   301.93781246
 C     36  33  30     2.929383719800   113.01602217   179.99164143
 H     39  36  33     2.090460213740   108.08638156   302.50867140
 H     39  36  33     2.090486032872   108.08810700    57.40717091
 C     39  36  33     2.820183115826   113.87849646   179.95243980
 H     42  39  36     2.066929752106   120.85769729   275.06607383
 H     42  39  36     2.066912974631   120.86205473    85.02102555
 C      3   2   1     2.298141721245   178.65063847   189.98545716
 H      1   2   4     2.026647251906   179.88341160   274.34196710
 H     45   3   7     2.026647878524   179.93817679   270.13232413
 H     21  18  15     2.082682484811   111.50000175   180.17420782

---------------------
BASIS SET INFORMATION
---------------------
There are 2 groups of distinct atoms

 Group   1 Type C   : 17s4p1d contracted to 3s2p1d pattern {881/31/1}
 Group   2 Type H   : 4s1p contracted to 2s1p pattern {31/1}

Atom   0C    basis set group =>   1
Atom   1C    basis set group =>   1
Atom   2C    basis set group =>   1
Atom   3C    basis set group =>   1
Atom   4C    basis set group =>   1
Atom   5C    basis set group =>   1
Atom   6C    basis set group =>   1
Atom   7C    basis set group =>   1
Atom   8C    basis set group =>   1
Atom   9H    basis set group =>   2
Atom  10H    basis set group =>   2
Atom  11C    basis set group =>   1
Atom  12H    basis set group =>   2
Atom  13H    basis set group =>   2
Atom  14C    basis set group =>   1
Atom  15H    basis set group =>   2
Atom  16H    basis set group =>   2
Atom  17C    basis set group =>   1
Atom  18H    basis set group =>   2
Atom  19H    basis set group =>   2
Atom  20C    basis set group =>   1
Atom  21H    basis set group =>   2
Atom  22H    basis set group =>   2
Atom  23C    basis set group =>   1
Atom  24H    basis set group =>   2
Atom  25H    basis set group =>   2
Atom  26C    basis set group =>   1
Atom  27H    basis set group =>   2
Atom  28H    basis set group =>   2
Atom  29C    basis set group =>   1
Atom  30H    basis set group =>   2
Atom  31H    basis set group =>   2
Atom  32C    basis set group =>   1
Atom  33H    basis set group =>   2
Atom  34H    basis set group =>   2
Atom  35C    basis set group =>   1
Atom  36H    basis set group =>   2
Atom  37H    basis set group =>   2
Atom  38C    basis set group =>   1
Atom  39H    basis set group =>   2
Atom  40H    basis set group =>   2
Atom  41C    basis set group =>   1
Atom  42H    basis set group =>   2
Atom  43H    basis set group =>   2
Atom  44C    basis set group =>   1
Atom  45H    basis set group =>   2
Atom  46H    basis set group =>   2
Atom  47H    basis set group =>   2
---------------------------------
AUXILIARY/J BASIS SET INFORMATION
---------------------------------
There are 2 groups of distinct atoms

 Group   1 Type C   : 12s5p4d2f1g contracted to 6s4p3d1f1g pattern {711111/2111/211/2/1}
 Group   2 Type H   : 5s2p1d contracted to 3s1p1d pattern {311/2/1}

Atom   0C    basis set group =>   1
Atom   1C    basis set group =>   1
Atom   2C    basis set group =>   1
Atom   3C    basis set group =>   1
Atom   4C    basis set group =>   1
Atom   5C    basis set group =>   1
Atom   6C    basis set group =>   1
Atom   7C    basis set group =>   1
Atom   8C    basis set group =>   1
Atom   9H    basis set group =>   2
Atom  10H    basis set group =>   2
Atom  11C    basis set group =>   1
Atom  12H    basis set group =>   2
Atom  13H    basis set group =>   2
Atom  14C    basis set group =>   1
Atom  15H    basis set group =>   2
Atom  16H    basis set group =>   2
Atom  17C    basis set group =>   1
Atom  18H    basis set group =>   2
Atom  19H    basis set group =>   2
Atom  20C    basis set group =>   1
Atom  21H    basis set group =>   2
Atom  22H    basis set group =>   2
Atom  23C    basis set group =>   1
Atom  24H    basis set group =>   2
Atom  25H    basis set group =>   2
Atom  26C    basis set group =>   1
Atom  27H    basis set group =>   2
Atom  28H    basis set group =>   2
Atom  29C    basis set group =>   1
Atom  30H    basis set group =>   2
Atom  31H    basis set group =>   2
Atom  32C    basis set group =>   1
Atom  33H    basis set group =>   2
Atom  34H    basis set group =>   2
Atom  35C    basis set group =>   1
Atom  36H    basis set group =>   2
Atom  37H    basis set group =>   2
Atom  38C    basis set group =>   1
Atom  39H    basis set group =>   2
Atom  40H    basis set group =>   2
Atom  41C    basis set group =>   1
Atom  42H    basis set group =>   2
Atom  43H    basis set group =>   2
Atom  44C    basis set group =>   1
Atom  45H    basis set group =>   2
Atom  46H    basis set group =>   2
Atom  47H    basis set group =>   2


           ************************************************************
           *        Program running with 16 parallel MPI-processes    *
           *              working on a common directory               *
           ************************************************************
------------------------------------------------------------------------------
                           ORCA GTO INTEGRAL CALCULATION
                           -- RI-GTO INTEGRALS CHOSEN --
------------------------------------------------------------------------------
------------------------------------------------------------------------------
                   ___                                                        
                  /   \      - P O W E R E D   B Y -                         
                 /     \                                                     
                 |  |  |   _    _      __       _____    __    __             
                 |  |  |  | |  | |    /  \     |  _  \  |  |  /  |          
                  \  \/   | |  | |   /    \    | | | |  |  | /  /          
                 / \  \   | |__| |  /  /\  \   | |_| |  |  |/  /          
                |  |  |   |  __  | /  /__\  \  |    /   |      \           
                |  |  |   | |  | | |   __   |  |    \   |  |\   \          
                \     /   | |  | | |  |  |  |  | |\  \  |  | \   \       
                 \___/    |_|  |_| |__|  |__|  |_| \__\ |__|  \__/        
                                                                              
                      - O R C A' S   B I G   F R I E N D -                    
                                      &                                       
                       - I N T E G R A L  F E E D E R -                       
                                                                              
 v1 FN, 2020, v2 2021                                                         
------------------------------------------------------------------------------


Reading SHARK input file opt_cc-pVDZ.SHARKINP.tmp ... ok
----------------------
SHARK INTEGRAL PACKAGE
----------------------

Number of atoms                             ...     48
Number of basis functions                   ...    555
Number of shells                            ...    333
Maximum angular momentum                    ...      2
Integral batch strategy                     ... SHARK/LIBINT Hybrid
RI-J (if used) integral strategy            ... SPLIT-RIJ (Revised 2003 algorithm where possible)
Printlevel                                  ...      1
Contraction scheme used                     ... PARTIAL GENERAL contraction
Coulomb Range Separation                    ... NOT USED
Exchange Range Separation                   ... NOT USED
Finite Nucleus Model                        ... NOT USED
Auxiliary Coulomb fitting basis             ... AVAILABLE
   # of basis functions in Aux-J            ...   1326
   # of shells in Aux-J                     ...    450
   Maximum angular momentum in Aux-J        ...      4
Auxiliary J/K fitting basis                 ... NOT available
Auxiliary Correlation fitting basis         ... NOT available
Auxiliary 'external' fitting basis          ... NOT available
Integral threshold                          ...     2.500000e-11
Primitive cut-off                           ...     2.500000e-12
Primitive pair pre-selection threshold      ...     2.500000e-12

Calculating pre-screening integrals         ... done (  0.0 sec) Dimension = 333
Calculating pre-screening integrals (ORCA)  ... done (  0.1 sec) Dimension = 207
Organizing shell pair data                  ... done (  0.1 sec)
Shell pair information
Total number of shell pairs                 ...     55611
Shell pairs after pre-screening             ...     23520
Total number of primitive shell pairs       ...     92379
Primitive shell pairs kept                  ...     32771
          la=0 lb=0:  10442 shell pairs
          la=1 lb=0:   8244 shell pairs
          la=1 lb=1:   1475 shell pairs
          la=2 lb=0:   2374 shell pairs
          la=2 lb=1:    848 shell pairs
          la=2 lb=2:    137 shell pairs

Calculating one electron integrals          ... done (  0.0 sec)
Calculating RI/J V-Matrix + Cholesky decomp.... done (  0.2 sec)
Calculating Nuclear repulsion               ... done (  0.0 sec) ENN=   1441.284606657862 Eh

SHARK setup successfully completed in   1.0 seconds

Maximum memory used throughout the entire GTOINT-calculation: 34.2 MB


           ************************************************************
           *        Program running with 16 parallel MPI-processes    *
           *              working on a common directory               *
           ************************************************************
-------------------------------------------------------------------------------
                                 ORCA SCF
-------------------------------------------------------------------------------

------------
SCF SETTINGS
------------
Hamiltonian:
 Density Functional     Method          .... DFT(GTOs)
 Exchange Functional    Exchange        .... B88
   X-Alpha parameter    XAlpha          ....  0.666667
   Becke's b parameter  XBeta           ....  0.004200
 Correlation Functional Correlation     .... LYP
 LDA part of GGA corr.  LDAOpt          .... VWN-5
 Gradients option       PostSCFGGA      .... off
 Hybrid DFT is turned on
   Fraction HF Exchange ScalHFX         ....  0.200000
   Scaling of DF-GGA-X  ScalDFX         ....  0.720000
   Scaling of DF-GGA-C  ScalDFC         ....  0.810000
   Scaling of DF-LDA-C  ScalLDAC        ....  1.000000
   Perturbative correction              ....  0.000000
   Density functional embedding theory  .... OFF
   NL short-range parameter             ....  4.800000
 RI-approximation to the Coulomb term is turned on
   Number of AuxJ basis functions       .... 1326
   RIJ-COSX (HFX calculated with COS-X)).... on


General Settings:
 Integral files         IntName         .... opt_cc-pVDZ
 Hartree-Fock type      HFTyp           .... UHF
 Total Charge           Charge          ....    0
 Multiplicity           Mult            ....    2
 Number of Electrons    NEL             ....  153
 Basis Dimension        Dim             ....  429
 Nuclear Repulsion      ENuc            ....   1441.2846066579 Eh

Convergence Acceleration:
 DIIS                   CNVDIIS         .... on
   Start iteration      DIISMaxIt       ....    12
   Startup error        DIISStart       ....  0.200000
   # of expansion vecs  DIISMaxEq       ....     5
   Bias factor          DIISBfac        ....   1.050
   Max. coefficient     DIISMaxC        ....  10.000
 Trust-Rad. Augm. Hess. CNVTRAH         .... auto
   Auto Start mean grad. ratio tolernc. ....  1.125000
   Auto Start start iteration           ....    20
   Auto Start num. interpolation iter.  ....    10
   Max. Number of Micro iterations      ....    16
   Max. Number of Macro iterations      .... Maxiter - #DIIS iter
   Number of Davidson start vectors     ....     2
   Converg. threshold I  (grad. norm)   ....   1.000e-05
   Converg. threshold II (energy diff.) ....   1.000e-08
   Grad. Scal. Fac. for Micro threshold ....   0.100
   Minimum threshold for Micro iter.    ....   0.010
   NR start threshold (gradient norm)   ....   0.001
   Initial trust radius                 ....   0.400
   Minimum AH scaling param. (alpha)    ....   1.000
   Maximum AH scaling param. (alpha)    .... 1000.000
   Orbital update algorithm             .... Taylor
   White noise on init. David. guess    .... on
   Maximum white noise                  ....   0.010
   Quad. conv. algorithm                .... NR
 SOSCF                  CNVSOSCF        .... off
 Level Shifting         CNVShift        .... on
   Level shift para.    LevelShift      ....    0.2500
   Turn off err/grad.   ShiftErr        ....    0.0010
 Zerner damping         CNVZerner       .... off
 Static damping         CNVDamp         .... on
   Fraction old density DampFac         ....    0.7000
   Max. Damping (<1)    DampMax         ....    0.9800
   Min. Damping (>=0)   DampMin         ....    0.0000
   Turn off err/grad.   DampErr         ....    0.1000
 Fernandez-Rico         CNVRico         .... off

SCF Procedure:
 Maximum # iterations   MaxIter         ....   125
 SCF integral mode      SCFMode         .... Direct
   Integral package                     .... SHARK and LIBINT hybrid scheme
 Reset frequency        DirectResetFreq ....    20
 Integral Threshold     Thresh          ....  2.500e-11 Eh
 Primitive CutOff       TCut            ....  2.500e-12 Eh

Convergence Tolerance:
 Convergence Check Mode ConvCheckMode   .... Total+1el-Energy
 Convergence forced     ConvForced      .... 0
 Energy Change          TolE            ....  1.000e-08 Eh
 1-El. energy change                    ....  1.000e-05 Eh
 DIIS Error             TolErr          ....  5.000e-07


Diagonalization of the overlap matrix:
Smallest eigenvalue                        ... 1.271e-04
Time for diagonalization                   ...    0.043 sec
Threshold for overlap eigenvalues          ... 1.000e-08
Number of eigenvalues below threshold      ... 0
Time for construction of square roots      ...    0.040 sec
Total time needed                          ...    0.084 sec

Time for model grid setup =    0.253 sec

------------------------------
INITIAL GUESS: MODEL POTENTIAL
------------------------------
Loading Hartree-Fock densities                     ... done
Calculating cut-offs                               ... done
Initializing the effective Hamiltonian             ... done
Setting up the integral package (SHARK)            ... done
Starting the Coulomb interaction                   ... done (   0.3 sec)
Reading the grid                                   ... done
Mapping shells                                     ... done
Starting the XC term evaluation                    ... done (   0.1 sec)
  promolecular density results
     # of electrons  =    153.001150862
     EX              =   -115.836141457
     EC              =     -4.990179161
     EX+EC           =   -120.826320618
Transforming the Hamiltonian                       ... done (   0.0 sec)
Diagonalizing the Hamiltonian                      ... done (   0.0 sec)
Back transforming the eigenvectors                 ... done (   0.0 sec)
Now organizing SCF variables                       ... done
                      ------------------
                      INITIAL GUESS DONE (   1.0 sec)
                      ------------------
-------------------
DFT GRID GENERATION
-------------------

General Integration Accuracy     IntAcc      ... 4.388
Radial Grid Type                 RadialGrid  ... OptM3 with GC (2021)
Angular Grid (max. ang.)         AngularGrid ... 4 (Lebedev-302)
Angular grid pruning method      GridPruning ... 4 (adaptive)
Weight generation scheme         WeightScheme... Becke
Basis function cutoff            BFCut       ... 1.0000e-11
Integration weight cutoff        WCut        ... 1.0000e-14
Angular grids for H and He will be reduced by one unit
Partially contracted basis set               ... off
Rotationally invariant grid construction     ... off

Total number of grid points                  ...   211461
Total number of batches                      ...     3328
Average number of points per batch           ...       63
Average number of grid points per atom       ...     4405
Time for grid setup =    1.174 sec

--------------------
COSX GRID GENERATION
--------------------

GRIDX 1
-------
General Integration Accuracy     IntAcc      ... 3.816
Radial Grid Type                 RadialGrid  ... OptM3 with GC (2021)
Angular Grid (max. ang.)         AngularGrid ... 1 (Lebedev-50)
Angular grid pruning method      GridPruning ... 4 (adaptive)
Weight generation scheme         WeightScheme... Becke
Basis function cutoff            BFCut       ... 1.0000e-11
Integration weight cutoff        WCut        ... 1.0000e-14
Angular grids for H and He will be reduced by one unit
Partially contracted basis set               ... on
Rotationally invariant grid construction     ... off

Total number of grid points                  ...    26948
Total number of batches                      ...      452
Average number of points per batch           ...       59
Average number of grid points per atom       ...      561
UseSFitting                                  ... on

GRIDX 2
-------
General Integration Accuracy     IntAcc      ... 4.020
Radial Grid Type                 RadialGrid  ... OptM3 with GC (2021)
Angular Grid (max. ang.)         AngularGrid ... 2 (Lebedev-110)
Angular grid pruning method      GridPruning ... 4 (adaptive)
Weight generation scheme         WeightScheme... Becke
Basis function cutoff            BFCut       ... 1.0000e-11
Integration weight cutoff        WCut        ... 1.0000e-14
Angular grids for H and He will be reduced by one unit
Partially contracted basis set               ... on
Rotationally invariant grid construction     ... off

Total number of grid points                  ...    56897
Total number of batches                      ...      915
Average number of points per batch           ...       62
Average number of grid points per atom       ...     1185
UseSFitting                                  ... on

GRIDX 3
-------
General Integration Accuracy     IntAcc      ... 4.338
Radial Grid Type                 RadialGrid  ... OptM3 with GC (2021)
Angular Grid (max. ang.)         AngularGrid ... 3 (Lebedev-194)
Angular grid pruning method      GridPruning ... 4 (adaptive)
Weight generation scheme         WeightScheme... Becke
Basis function cutoff            BFCut       ... 1.0000e-11
Integration weight cutoff        WCut        ... 1.0000e-14
Angular grids for H and He will be reduced by one unit
Partially contracted basis set               ... on
Rotationally invariant grid construction     ... off

Total number of grid points                  ...   124299
Total number of batches                      ...     1965
Average number of points per batch           ...       63
Average number of grid points per atom       ...     2590
UseSFitting                                  ... on

Time for X-Grid setup             =    2.110 sec

 re-compute Schwartz prescreening matrix in partically contracted basis (1) ...done (   0.117 sec)
--------------
SCF ITERATIONS
--------------
ITER       Energy         Delta-E        Max-DP      RMS-DP      [F,P]     Damp
               ***  Starting incremental Fock matrix formation  ***
  0   -815.2678600554   0.000000000000 0.06520865  0.00086073  0.0869844 0.7000
  1   -815.5028244507  -0.234964395275 0.04815653  0.00063620  0.0458304 0.7000
                               ***Turning on DIIS***
  2   -815.6079165424  -0.105092091709 0.09451630  0.00121338  0.0194143 0.0000
  3   -815.7542125718  -0.146296029379 0.01906725  0.00033297  0.0249359 0.0000
  4   -815.7938165555  -0.039603983732 0.00855397  0.00011555  0.0059713 0.0000
  5   -815.7960164893  -0.002199933821 0.00112211  0.00003212  0.0015041 0.0000
  6   -815.7961976299  -0.000181140539 0.00131518  0.00001941  0.0006943 0.0000
               *** Restarting incremental Fock matrix formation ***
                                   *** Resetting DIIS ***
  7   -815.7965554630  -0.000357833143 0.00143878  0.00001663  0.0009404 0.0000
  8   -815.7965147049   0.000040758148 0.00062831  0.00000682  0.0023521 0.0000
  9   -815.7965577240  -0.000043019164 0.00041905  0.00000477  0.0008618 0.0000
 10   -815.7965646341  -0.000006910039 0.00007333  0.00000114  0.0001135 0.0000
 11   -815.7965647814  -0.000000147344 0.00003173  0.00000054  0.0000309 0.0000
 12   -815.7965648261  -0.000000044645 0.00001817  0.00000018  0.0000112 0.0000
 13   -815.7965648259   0.000000000141 0.00000883  0.00000009  0.0000073 0.0000
 14   -815.7965648226   0.000000003287 0.00000534  0.00000006  0.0000014 0.0000
                 **** Energy Check signals convergence ****

               *****************************************************
               *                     SUCCESS                       *
               *           SCF CONVERGED AFTER  15 CYCLES          *
               *****************************************************

Old exchange energy                            =    -23.670512371 Eh
New exchange energy                            =    -23.670604272 Eh
Exchange energy change after final integration =     -0.000091901 Eh
Total energy after final integration           =   -815.796656732 Eh
Final COS-X integration done in                =     6.544 sec

----------------
TOTAL SCF ENERGY
----------------

Total Energy       :         -815.79665673 Eh          -22198.95560 eV

Components:
Nuclear Repulsion  :         1441.28460666 Eh           39219.34802 eV
Electronic Energy  :        -2257.08126339 Eh          -61418.30362 eV
One Electron Energy:        -3961.16870768 Eh         -107788.88042 eV
Two Electron Energy:         1704.08744429 Eh           46370.57679 eV
Max COSX asymmetry :            0.00000046 Eh               0.00001 eV

Virial components:
Potential Energy   :        -1625.73040426 Eh          -44238.37334 eV
Kinetic Energy     :          809.93374753 Eh           22039.41773 eV
Virial Ratio       :            2.00723875


DFT components:
N(Alpha)           :       77.000203672985 electrons
N(Beta)            :       76.000200832826 electrons
N(Total)           :      153.000404505811 electrons
E(X)               :      -93.827316663272 Eh       
E(C)               :       -5.896412823625 Eh       
E(XC)              :      -99.723729486896 Eh       
DFET-embed. en.    :        0.000000000000 Eh       

---------------
SCF CONVERGENCE
---------------

  Last Energy change         ...   -8.5788e-09  Tolerance :   1.0000e-08
  Last MAX-Density change    ...    0.0000e+00  Tolerance :   1.0000e-07
  Last RMS-Density change    ...    0.0000e+00  Tolerance :   5.0000e-09
  Last DIIS Error            ...    1.7881e-06  Tolerance :   5.0000e-07

             **** THE GBW FILE WAS UPDATED (opt_cc-pVDZ.gbw) ****
             **** DENSITY opt_cc-pVDZ.scfp WAS UPDATED ****
             **** ENERGY FILE WAS UPDATED (opt_cc-pVDZ.en.tmp) ****
----------------------
UHF SPIN CONTAMINATION
----------------------

Warning: in a DFT calculation there is little theoretical justification to 
         calculate <S**2> as in Hartree-Fock theory. We will do it anyways
         but you should keep in mind that the values have only limited relevance

Expectation value of <S**2>     :     0.753918
Ideal value S*(S+1) for S=0.5   :     0.750000
Deviation                       :     0.003918

             **** THE GBW FILE WAS UPDATED (opt_cc-pVDZ.gbw) ****
             **** DENSITY opt_cc-pVDZ.scfp WAS UPDATED ****
----------------
ORBITAL ENERGIES
----------------
                 SPIN UP ORBITALS
  NO   OCC          E(Eh)            E(eV) 
   0   1.0000     -10.212653      -277.9004 
   1   1.0000     -10.212620      -277.8995 
   2   1.0000     -10.201851      -277.6065 
   3   1.0000     -10.201791      -277.6048 
   4   1.0000     -10.192431      -277.3501 
   5   1.0000     -10.192389      -277.3490 
   6   1.0000     -10.191976      -277.3378 
   7   1.0000     -10.191967      -277.3375 
   8   1.0000     -10.187358      -277.2121 
   9   1.0000     -10.187123      -277.2057 
  10   1.0000     -10.187120      -277.2056 
  11   1.0000     -10.186977      -277.2017 
  12   1.0000     -10.185975      -277.1745 
  13   1.0000     -10.184105      -277.1236 
  14   1.0000     -10.182798      -277.0880 
  15   1.0000     -10.182022      -277.0669 
  16   1.0000     -10.181761      -277.0598 
  17   1.0000     -10.181755      -277.0596 
  18   1.0000     -10.180598      -277.0282 
  19   1.0000     -10.179654      -277.0025 
  20   1.0000     -10.175654      -276.8936 
  21   1.0000      -0.874857       -23.8061 
  22   1.0000      -0.819355       -22.2958 
  23   1.0000      -0.806455       -21.9448 
  24   1.0000      -0.795343       -21.6424 
  25   1.0000      -0.785566       -21.3763 
  26   1.0000      -0.762991       -20.7620 
  27   1.0000      -0.751997       -20.4629 
  28   1.0000      -0.733474       -19.9589 
  29   1.0000      -0.720460       -19.6047 
  30   1.0000      -0.706535       -19.2258 
  31   1.0000      -0.670971       -18.2580 
  32   1.0000      -0.642034       -17.4706 
  33   1.0000      -0.636777       -17.3276 
  34   1.0000      -0.611137       -16.6299 
  35   1.0000      -0.589680       -16.0460 
  36   1.0000      -0.578028       -15.7290 
  37   1.0000      -0.571460       -15.5502 
  38   1.0000      -0.563406       -15.3311 
  39   1.0000      -0.541873       -14.7451 
  40   1.0000      -0.525190       -14.2911 
  41   1.0000      -0.498919       -13.5763 
  42   1.0000      -0.484330       -13.1793 
  43   1.0000      -0.481201       -13.0942 
  44   1.0000      -0.476140       -12.9564 
  45   1.0000      -0.470473       -12.8022 
  46   1.0000      -0.460084       -12.5195 
  47   1.0000      -0.430513       -11.7149 
  48   1.0000      -0.427995       -11.6463 
  49   1.0000      -0.427635       -11.6366 
  50   1.0000      -0.421284       -11.4637 
  51   1.0000      -0.419646       -11.4192 
  52   1.0000      -0.412941       -11.2367 
  53   1.0000      -0.403139       -10.9700 
  54   1.0000      -0.391834       -10.6624 
  55   1.0000      -0.389212       -10.5910 
  56   1.0000      -0.374820       -10.1994 
  57   1.0000      -0.372852       -10.1458 
  58   1.0000      -0.363410        -9.8889 
  59   1.0000      -0.359706        -9.7881 
  60   1.0000      -0.353773        -9.6267 
  61   1.0000      -0.343042        -9.3347 
  62   1.0000      -0.341166        -9.2836 
  63   1.0000      -0.330302        -8.9880 
  64   1.0000      -0.329670        -8.9708 
  65   1.0000      -0.327329        -8.9071 
  66   1.0000      -0.324284        -8.8242 
  67   1.0000      -0.323513        -8.8032 
  68   1.0000      -0.320325        -8.7165 
  69   1.0000      -0.319149        -8.6845 
  70   1.0000      -0.317890        -8.6502 
  71   1.0000      -0.279311        -7.6004 
  72   1.0000      -0.276040        -7.5114 
  73   1.0000      -0.274954        -7.4819 
  74   1.0000      -0.246238        -6.7005 
  75   1.0000      -0.219244        -5.9659 
  76   1.0000      -0.198821        -5.4102 
  77   0.0000      -0.050734        -1.3806 
  78   0.0000      -0.003025        -0.0823 
  79   0.0000       0.040768         1.1094 
  80   0.0000       0.047794         1.3005 
  81   0.0000       0.050182         1.3655 
  82   0.0000       0.060773         1.6537 
  83   0.0000       0.062923         1.7122 
  84   0.0000       0.074018         2.0141 
  85   0.0000       0.080092         2.1794 
  86   0.0000       0.080491         2.1903 
  87   0.0000       0.084936         2.3112 
  88   0.0000       0.087013         2.3678 
  89   0.0000       0.090847         2.4721 
  90   0.0000       0.094678         2.5763 
  91   0.0000       0.095287         2.5929 
  92   0.0000       0.096337         2.6215 
  93   0.0000       0.108592         2.9549 
  94   0.0000       0.109846         2.9891 
  95   0.0000       0.114671         3.1204 
  96   0.0000       0.122229         3.3260 
  97   0.0000       0.130043         3.5387 
  98   0.0000       0.144938         3.9440 
  99   0.0000       0.145930         3.9710 
 100   0.0000       0.152133         4.1397 
 101   0.0000       0.158714         4.3188 
 102   0.0000       0.159844         4.3496 
 103   0.0000       0.160902         4.3784 
 104   0.0000       0.161955         4.4070 
 105   0.0000       0.167540         4.5590 
 106   0.0000       0.175838         4.7848 
 107   0.0000       0.177544         4.8312 
 108   0.0000       0.183918         5.0047 
 109   0.0000       0.190351         5.1797 
 110   0.0000       0.197299         5.3688 
 111   0.0000       0.199369         5.4251 
 112   0.0000       0.207932         5.6581 
 113   0.0000       0.211806         5.7635 
 114   0.0000       0.216397         5.8885 
 115   0.0000       0.221742         6.0339 
 116   0.0000       0.233185         6.3453 
 117   0.0000       0.245892         6.6911 
 118   0.0000       0.255054         6.9404 
 119   0.0000       0.260671         7.0932 
 120   0.0000       0.273052         7.4301 
 121   0.0000       0.276182         7.5153 
 122   0.0000       0.297207         8.0874 
 123   0.0000       0.316200         8.6043 
 124   0.0000       0.327599         8.9144 
 125   0.0000       0.337968         9.1966 
 126   0.0000       0.351213         9.5570 
 127   0.0000       0.366858         9.9827 
 128   0.0000       0.372714        10.1421 
 129   0.0000       0.377766        10.2795 
 130   0.0000       0.401916        10.9367 
 131   0.0000       0.406501        11.0614 
 132   0.0000       0.411767        11.2048 
 133   0.0000       0.414527        11.2798 
 134   0.0000       0.415240        11.2993 
 135   0.0000       0.419663        11.4196 
 136   0.0000       0.422172        11.4879 
 137   0.0000       0.426171        11.5967 
 138   0.0000       0.438983        11.9453 
 139   0.0000       0.445345        12.1184 
 140   0.0000       0.456250        12.4152 
 141   0.0000       0.461897        12.5689 
 142   0.0000       0.468139        12.7387 
 143   0.0000       0.473269        12.8783 
 144   0.0000       0.478326        13.0159 
 145   0.0000       0.484378        13.1806 
 146   0.0000       0.493235        13.4216 
 147   0.0000       0.495170        13.4743 
 148   0.0000       0.497335        13.5332 
 149   0.0000       0.504929        13.7398 
 150   0.0000       0.513981        13.9861 
 151   0.0000       0.517587        14.0843 
 152   0.0000       0.524483        14.2719 
 153   0.0000       0.530386        14.4325 
 154   0.0000       0.534661        14.5489 
 155   0.0000       0.536160        14.5896 
 156   0.0000       0.551729        15.0133 
 157   0.0000       0.554857        15.0984 
 158   0.0000       0.561238        15.2721 
 159   0.0000       0.581469        15.8226 
 160   0.0000       0.583901        15.8888 
 161   0.0000       0.595977        16.2174 
 162   0.0000       0.601296        16.3621 
 163   0.0000       0.607025        16.5180 
 164   0.0000       0.611711        16.6455 
 165   0.0000       0.614541        16.7225 
 166   0.0000       0.619763        16.8646 
 167   0.0000       0.630325        17.1520 
 168   0.0000       0.630998        17.1703 
 169   0.0000       0.631896        17.1948 
 170   0.0000       0.633566        17.2402 
 171   0.0000       0.641036        17.4435 
 172   0.0000       0.642268        17.4770 
 173   0.0000       0.648053        17.6344 
 174   0.0000       0.651608        17.7311 
 175   0.0000       0.656989        17.8776 
 176   0.0000       0.657348        17.8874 
 177   0.0000       0.658284        17.9128 
 178   0.0000       0.659722        17.9520 
 179   0.0000       0.660528        17.9739 
 180   0.0000       0.663771        18.0621 
 181   0.0000       0.665394        18.1063 
 182   0.0000       0.668183        18.1822 
 183   0.0000       0.672476        18.2990 
 184   0.0000       0.676720        18.4145 
 185   0.0000       0.684844        18.6356 
 186   0.0000       0.686803        18.6889 
 187   0.0000       0.690861        18.7993 
 188   0.0000       0.692505        18.8440 
 189   0.0000       0.695745        18.9322 
 190   0.0000       0.697269        18.9737 
 191   0.0000       0.700349        19.0575 
 192   0.0000       0.704325        19.1656 
 193   0.0000       0.708595        19.2819 
 194   0.0000       0.709912        19.3177 
 195   0.0000       0.720439        19.6041 
 196   0.0000       0.723253        19.6807 
 197   0.0000       0.726243        19.7621 
 198   0.0000       0.732978        19.9453 
 199   0.0000       0.736132        20.0312 
 200   0.0000       0.746418        20.3111 
 201   0.0000       0.748506        20.3679 
 202   0.0000       0.756333        20.5809 
 203   0.0000       0.771968        21.0063 
 204   0.0000       0.772359        21.0170 
 205   0.0000       0.781263        21.2592 
 206   0.0000       0.807853        21.9828 
 207   0.0000       0.823988        22.4219 
 208   0.0000       0.826061        22.4783 
 209   0.0000       0.833486        22.6803 
 210   0.0000       0.842203        22.9175 
 211   0.0000       0.842395        22.9227 
 212   0.0000       0.852094        23.1866 
 213   0.0000       0.865513        23.5518 
 214   0.0000       0.871868        23.7247 
 215   0.0000       0.883884        24.0517 
 216   0.0000       0.890791        24.2397 
 217   0.0000       0.916960        24.9517 
 218   0.0000       0.935464        25.4553 
 219   0.0000       0.956651        26.0318 
 220   0.0000       0.977471        26.5983 
 221   0.0000       0.980129        26.6707 
 222   0.0000       0.986419        26.8418 
 223   0.0000       0.989437        26.9240 
 224   0.0000       1.015252        27.6264 
 225   0.0000       1.023355        27.8469 
 226   0.0000       1.032207        28.0878 
 227   0.0000       1.033825        28.1318 
 228   0.0000       1.045562        28.4512 
 229   0.0000       1.050770        28.5929 
 230   0.0000       1.052216        28.6323 
 231   0.0000       1.060186        28.8491 
 232   0.0000       1.071784        29.1647 
 233   0.0000       1.078841        29.3568 
 234   0.0000       1.088791        29.6275 
 235   0.0000       1.114521        30.3277 
 236   0.0000       1.118411        30.4335 
 237   0.0000       1.151708        31.3396 
 238   0.0000       1.158944        31.5365 
 239   0.0000       1.171316        31.8731 
 240   0.0000       1.176211        32.0063 
 241   0.0000       1.194427        32.5020 
 242   0.0000       1.198744        32.6195 
 243   0.0000       1.202674        32.7264 
 244   0.0000       1.204856        32.7858 
 245   0.0000       1.206672        32.8352 
 246   0.0000       1.213977        33.0340 
 247   0.0000       1.215975        33.0884 
 248   0.0000       1.216845        33.1120 
 249   0.0000       1.222832        33.2749 
 250   0.0000       1.225073        33.3359 
 251   0.0000       1.230935        33.4954 
 252   0.0000       1.239719        33.7345 
 253   0.0000       1.262131        34.3443 
 254   0.0000       1.275100        34.6972 
 255   0.0000       1.305339        35.5201 
 256   0.0000       1.310012        35.6472 
 257   0.0000       1.319166        35.8963 
 258   0.0000       1.321304        35.9545 
 259   0.0000       1.327203        36.1150 
 260   0.0000       1.329869        36.1876 
 261   0.0000       1.333690        36.2915 
 262   0.0000       1.337622        36.3985 
 263   0.0000       1.348826        36.7034 
 264   0.0000       1.367719        37.2175 
 265   0.0000       1.378625        37.5143 
 266   0.0000       1.396099        37.9898 
 267   0.0000       1.398799        38.0632 
 268   0.0000       1.409075        38.3429 
 269   0.0000       1.417598        38.5748 
 270   0.0000       1.426488        38.8167 
 271   0.0000       1.435834        39.0710 
 272   0.0000       1.449857        39.4526 
 273   0.0000       1.463039        39.8113 
 274   0.0000       1.464673        39.8558 
 275   0.0000       1.468358        39.9561 
 276   0.0000       1.473177        40.0872 
 277   0.0000       1.476248        40.1707 
 278   0.0000       1.484484        40.3949 
 279   0.0000       1.494968        40.6801 
 280   0.0000       1.514513        41.2120 
 281   0.0000       1.516094        41.2550 
 282   0.0000       1.529738        41.6263 
 283   0.0000       1.531818        41.6829 
 284   0.0000       1.540992        41.9325 
 285   0.0000       1.554080        42.2887 
 286   0.0000       1.558116        42.3985 
 287   0.0000       1.576792        42.9067 
 288   0.0000       1.587500        43.1981 
 289   0.0000       1.593905        43.3724 
 290   0.0000       1.597097        43.4592 
 291   0.0000       1.597263        43.4637 
 292   0.0000       1.613320        43.9007 
 293   0.0000       1.626093        44.2482 
 294   0.0000       1.630296        44.3626 
 295   0.0000       1.631286        44.3896 
 296   0.0000       1.633302        44.4444 
 297   0.0000       1.638645        44.5898 
 298   0.0000       1.640373        44.6368 
 299   0.0000       1.645321        44.7715 
 300   0.0000       1.647240        44.8237 
 301   0.0000       1.651367        44.9360 
 302   0.0000       1.658358        45.1262 
 303   0.0000       1.665204        45.3125 
 304   0.0000       1.673340        45.5339 
 305   0.0000       1.679122        45.6912 
 306   0.0000       1.681726        45.7621 
 307   0.0000       1.689757        45.9806 
 308   0.0000       1.690646        46.0048 
[...]
      py      :     0.034227

SPIN
  0 C s       :     0.000000  s :     0.000000
      pz      :     0.000000  p :     0.000000
      px      :     0.000000
      py      :    -0.000000
      dz2     :    -0.000000  d :    -0.000000
      dxz     :    -0.000000
      dyz     :    -0.000000
      dx2y2   :    -0.000000
      dxy     :     0.000000
  1 C s       :    -0.000000  s :    -0.000000
      pz      :    -0.000000  p :    -0.000000
      px      :    -0.000000
      py      :    -0.000000
      dz2     :    -0.000000  d :     0.000000
      dxz     :     0.000000
      dyz     :    -0.000000
      dx2y2   :    -0.000000
      dxy     :    -0.000000
  2 C s       :     0.000000  s :     0.000000
      pz      :     0.000001  p :     0.000002
      px      :     0.000000
      py      :     0.000001
      dz2     :     0.000000  d :    -0.000000
      dxz     :    -0.000000
      dyz     :    -0.000000
      dx2y2   :     0.000000
      dxy     :     0.000000
  3 C s       :    -0.000000  s :    -0.000000
      pz      :     0.000001  p :     0.000001
      px      :     0.000000
      py      :    -0.000000
      dz2     :    -0.000000  d :    -0.000000
      dxz     :    -0.000000
      dyz     :    -0.000000
      dx2y2   :     0.000000
      dxy     :    -0.000000
  4 C s       :     0.000000  s :     0.000000
      pz      :    -0.000003  p :    -0.000003
      px      :    -0.000000
      py      :     0.000000
      dz2     :     0.000000  d :     0.000000
      dxz     :     0.000000
      dyz     :     0.000000
      dx2y2   :     0.000000
      dxy     :     0.000000
  5 C s       :     0.000001  s :     0.000001
      pz      :     0.000001  p :     0.000005
      px      :     0.000001
      py      :     0.000003
      dz2     :     0.000000  d :     0.000001
      dxz     :    -0.000000
      dyz     :    -0.000000
      dx2y2   :     0.000001
      dxy     :     0.000000
  6 C s       :     0.000004  s :     0.000004
      pz      :    -0.000002  p :     0.000011
      px      :     0.000002
      py      :     0.000011
      dz2     :     0.000001  d :     0.000005
      dxz     :     0.000000
      dyz     :     0.000000
      dx2y2   :     0.000003
      dxy     :     0.000001
  7 C s       :     0.000018  s :     0.000018
      pz      :     0.000008  p :     0.000062
      px      :     0.000013
      py      :     0.000042
      dz2     :     0.000002  d :     0.000014
      dxz     :    -0.000000
      dyz     :    -0.000000
      dx2y2   :     0.000011
      dxy     :     0.000002
  8 C s       :     0.000002  s :     0.000002
      pz      :    -0.000004  p :    -0.000003
      px      :    -0.000002
      py      :     0.000003
      dz2     :     0.000000  d :     0.000002
      dxz     :     0.000000
      dyz     :    -0.000000
      dx2y2   :     0.000001
      dxy     :     0.000001
  9 H s       :     0.000002  s :     0.000002
      pz      :     0.000000  p :     0.000000
      px      :     0.000000
      py      :     0.000000
 10 H s       :     0.000001  s :     0.000001
      pz      :    -0.000000  p :     0.000001
      px      :    -0.000000
      py      :     0.000001
 11 C s       :     0.000000  s :     0.000000
      pz      :     0.000000  p :     0.000000
      px      :     0.000000
      py      :     0.000000
      dz2     :    -0.000000  d :    -0.000000
      dxz     :    -0.000000
      dyz     :    -0.000000
      dx2y2   :    -0.000000
      dxy     :    -0.000000
 12 H s       :    -0.000000  s :    -0.000000
      pz      :     0.000000  p :     0.000000
      px      :     0.000000
      py      :    -0.000000
 13 H s       :    -0.000000  s :    -0.000000
      pz      :     0.000000  p :     0.000000
      px      :     0.000000
      py      :    -0.000000
 14 C s       :     0.000000  s :     0.000000
      pz      :     0.000000  p :     0.000000
      px      :     0.000000
      py      :     0.000000
      dz2     :     0.000000  d :     0.000000
      dxz     :    -0.000000
      dyz     :     0.000000
      dx2y2   :     0.000000
      dxy     :     0.000000
 15 H s       :     0.000000  s :     0.000000
      pz      :     0.000000  p :     0.000000
      px      :     0.000000
      py      :     0.000000
 16 H s       :     0.000000  s :     0.000000
      pz      :     0.000000  p :     0.000000
      px      :     0.000000
      py      :     0.000000
 17 C s       :     0.000000  s :     0.000000
      pz      :    -0.000000  p :     0.000000
      px      :     0.000000
      py      :     0.000000
      dz2     :    -0.000000  d :    -0.000000
      dxz     :    -0.000000
      dyz     :    -0.000000
      dx2y2   :     0.000000
      dxy     :     0.000000
 18 H s       :    -0.000000  s :    -0.000000
      pz      :     0.000000  p :     0.000000
      px      :     0.000000
      py      :     0.000000
 19 H s       :    -0.000000  s :    -0.000000
      pz      :     0.000000  p :     0.000000
      px      :     0.000000
      py      :     0.000000
 20 C s       :    -0.000000  s :    -0.000000
      pz      :    -0.000000  p :    -0.000000
      px      :    -0.000000
      py      :    -0.000000
      dz2     :     0.000000  d :     0.000000
      dxz     :    -0.000000
      dyz     :    -0.000000
      dx2y2   :     0.000000
      dxy     :     0.000000
 21 H s       :     0.000000  s :     0.000000
      pz      :     0.000000  p :     0.000000
      px      :     0.000000
      py      :    -0.000000
 22 H s       :     0.000000  s :     0.000000
      pz      :     0.000000  p :     0.000000
      px      :     0.000000
      py      :    -0.000000
 23 C s       :     0.000039  s :     0.000039
      pz      :     0.000007  p :     0.000158
      px      :     0.000048
      py      :     0.000103
      dz2     :     0.000008  d :     0.000049
      dxz     :    -0.000001
      dyz     :     0.000001
      dx2y2   :     0.000034
      dxy     :     0.000008
 24 H s       :    -0.000004  s :    -0.000004
      pz      :     0.000000  p :     0.000004
      px      :     0.000001
      py      :     0.000003
 25 H s       :    -0.000004  s :    -0.000004
      pz      :     0.000000  p :     0.000004
      px      :     0.000001
      py      :     0.000003
 26 C s       :     0.000244  s :     0.000244
      pz      :     0.000042  p :     0.000875
      px      :     0.000254
      py      :     0.000579
      dz2     :     0.000016  d :     0.000070
      dxz     :    -0.000009
      dyz     :     0.000001
      dx2y2   :     0.000048
      dxy     :     0.000013
 27 H s       :    -0.000022  s :    -0.000022
      pz      :     0.000002  p :     0.000023
      px      :     0.000009
      py      :     0.000011
 28 H s       :    -0.000022  s :    -0.000022
      pz      :     0.000002  p :     0.000023
      px      :     0.000009
      py      :     0.000011
 29 C s       :     0.000214  s :     0.000214
      pz      :     0.000021  p :     0.000709
      px      :     0.000005
      py      :     0.000683
      dz2     :     0.000078  d :     0.000569
      dxz     :    -0.000001
      dyz     :     0.000005
      dx2y2   :     0.000254
      dxy     :     0.000234
 30 H s       :     0.000042  s :     0.000042
      pz      :     0.000001  p :    -0.000011
      px      :    -0.000001
      py      :    -0.000012
 31 H s       :     0.000042  s :     0.000042
      pz      :     0.000001  p :    -0.000011
      px      :    -0.000001
      py      :    -0.000012
 32 C s       :     0.000539  s :     0.000539
      pz      :     0.000218  p :     0.005929
      px      :     0.002242
      py      :     0.003469
      dz2     :     0.000077  d :     0.000763
      dxz     :    -0.000031
      dyz     :     0.000020
      dx2y2   :     0.000763
      dxy     :    -0.000066
 33 H s       :    -0.000174  s :    -0.000174
      pz      :     0.000042  p :     0.000258
      px      :     0.000013
      py      :     0.000202
 34 H s       :    -0.000174  s :    -0.000174
      pz      :     0.000037  p :     0.000258
      px      :     0.000014
      py      :     0.000207
 35 C s       :     0.013056  s :     0.013056
      pz      :     0.001946  p :     0.037324
      px      :     0.006507
      py      :     0.028871
      dz2     :     0.000209  d :     0.000044
      dxz     :    -0.000365
      dyz     :    -0.000037
      dx2y2   :    -0.000432
      dxy     :     0.000669
 36 H s       :    -0.000138  s :    -0.000138
      pz      :     0.000219  p :     0.001243
      px      :     0.000605
      py      :     0.000419
 37 H s       :    -0.000136  s :    -0.000136
      pz      :     0.000214  p :     0.001243
      px      :     0.000593
      py      :     0.000435
 38 C s       :    -0.004822  s :    -0.004822
      pz      :    -0.003278  p :    -0.021841
      px      :    -0.008289
      py      :    -0.010273
      dz2     :     0.002871  d :     0.037156
      dxz     :     0.000796
      dyz     :     0.000250
      dx2y2   :     0.023702
      dxy     :     0.009536
 39 H s       :     0.010909  s :     0.010909
      pz      :    -0.000242  p :    -0.000765
      px      :     0.000060
      py      :    -0.000583
 40 H s       :     0.010972  s :     0.010972
      pz      :    -0.000230  p :    -0.000766
      px      :     0.000054
      py      :    -0.000590
 41 C s       :     0.030192  s :     0.030192
      pz      :     0.017039  p :     0.872951
      px      :     0.524701
      py      :     0.331212
      dz2     :    -0.001829  d :    -0.004956
      dxz     :    -0.000881
      dyz     :    -0.000653
      dx2y2   :     0.000416
      dxy     :    -0.002010
 42 H s       :    -0.022233  s :    -0.022233
      pz      :     0.002541  p :     0.026143
      px      :     0.013943
      py      :     0.009659
 43 H s       :    -0.022234  s :    -0.022234
      pz      :     0.002446  p :     0.026145
      px      :     0.013975
      py      :     0.009724
 44 C s       :    -0.000000  s :    -0.000000
      pz      :    -0.000002  p :    -0.000003
      px      :    -0.000000
      py      :    -0.000001
      dz2     :     0.000000  d :     0.000000
      dxz     :     0.000000
      dyz     :    -0.000000
      dx2y2   :     0.000000
      dxy     :     0.000000
 45 H s       :    -0.000000  s :    -0.000000
      pz      :     0.000000  p :     0.000000
      px      :     0.000000
      py      :    -0.000000
 46 H s       :     0.000000  s :     0.000000
      pz      :    -0.000000  p :    -0.000000
      px      :    -0.000000
      py      :    -0.000000
 47 H s       :     0.000000  s :     0.000000
      pz      :    -0.000000  p :     0.000000
      px      :     0.000000
      py      :    -0.000000


                      *****************************
                      * MAYER POPULATION ANALYSIS *
                      *****************************

  NA   - Mulliken gross atomic population
  ZA   - Total nuclear charge
  QA   - Mulliken gross atomic charge
  VA   - Mayer's total valence
  BVA  - Mayer's bonded valence
  FA   - Mayer's free valence

  ATOM       NA         ZA         QA         VA         BVA        FA
  0 C      6.6050     6.0000    -0.6050     3.3875     3.3875     0.0000
  1 C      5.3726     6.0000     0.6274     2.8932     2.8932     0.0000
  2 C      5.3727     6.0000     0.6273     2.8921     2.8921     0.0000
  3 C      6.0392     6.0000    -0.0392     3.8144     3.8144     0.0000
  4 C      6.0643     6.0000    -0.0643     4.1274     4.1274     0.0000
  5 C      5.9790     6.0000     0.0210     3.8825     3.8825     0.0000
  6 C      6.0380     6.0000    -0.0380     3.8151     3.8151     0.0000
  7 C      6.0638     6.0000    -0.0638     4.1271     4.1271     0.0000
  8 C      5.9775     6.0000     0.0225     3.8803     3.8803     0.0000
  9 H      1.0513     1.0000    -0.0513     1.0031     1.0031     0.0000
 10 H      1.0514     1.0000    -0.0514     1.0029     1.0029     0.0000
 11 C      5.9570     6.0000     0.0430     4.0294     4.0294     0.0000
 12 H      0.9685     1.0000     0.0315     0.9698     0.9698     0.0000
 13 H      0.9685     1.0000     0.0315     0.9697     0.9697     0.0000
 14 C      6.0363     6.0000    -0.0363     4.1153     4.1153     0.0000
 15 H      0.9836     1.0000     0.0164     0.9628     0.9628     0.0000
 16 H      0.9838     1.0000     0.0162     0.9629     0.9629     0.0000
 17 C      6.0238     6.0000    -0.0238     4.1173     4.1173     0.0000
 18 H      0.9941     1.0000     0.0059     0.9674     0.9674     0.0000
 19 H      0.9941     1.0000     0.0059     0.9674     0.9674     0.0000
 20 C      5.9962     6.0000     0.0038     4.0168     4.0168    -0.0000
 21 H      0.9830     1.0000     0.0170     0.9772     0.9772     0.0000
 22 H      0.9831     1.0000     0.0169     0.9773     0.9773    -0.0000
 23 C      5.9515     6.0000     0.0485     4.0211     4.0211     0.0000
 24 H      0.9681     1.0000     0.0319     0.9693     0.9693     0.0000
 25 H      0.9682     1.0000     0.0318     0.9697     0.9697     0.0000
 26 C      6.0355     6.0000    -0.0355     4.1172     4.1172     0.0000
 27 H      0.9836     1.0000     0.0164     0.9634     0.9634     0.0000
 28 H      0.9833     1.0000     0.0167     0.9631     0.9631     0.0000
 29 C      5.9848     6.0000     0.0152     4.0742     4.0742     0.0000
 30 H      0.9967     1.0000     0.0033     0.9695     0.9695     0.0000
 31 H      0.9966     1.0000     0.0034     0.9695     0.9695     0.0000
 32 C      6.0059     6.0000    -0.0059     4.0850     4.0849     0.0001
 33 H      0.9981     1.0000     0.0019     0.9699     0.9699     0.0000
 34 H      0.9981     1.0000     0.0019     0.9699     0.9699     0.0000
 35 C      5.9996     6.0000     0.0004     4.0591     4.0564     0.0027
 36 H      0.9966     1.0000     0.0034     0.9708     0.9708     0.0000
 37 H      0.9967     1.0000     0.0033     0.9708     0.9708     0.0000
 38 C      6.0008     6.0000    -0.0008     4.1004     4.0979     0.0025
 39 H      0.9895     1.0000     0.0105     0.9657     0.9655     0.0002
 40 H      0.9895     1.0000     0.0105     0.9657     0.9655     0.0002
 41 C      6.0680     6.0000    -0.0680     3.9788     3.1229     0.8559
 42 H      0.9753     1.0000     0.0247     0.9760     0.9737     0.0023
 43 H      0.9753     1.0000     0.0247     0.9760     0.9737     0.0023
 44 C      6.6051     6.0000    -0.6051     3.3875     3.3875     0.0000
 45 H      1.0295     1.0000    -0.0295     1.0305     1.0305     0.0000
 46 H      1.0295     1.0000    -0.0295     1.0305     1.0305     0.0000
 47 H      0.9874     1.0000     0.0126     0.9734     0.9734    -0.0000

  Mayer bond orders larger than 0.100000
B(  0-C ,  1-C ) :   2.1185 B(  0-C , 45-H ) :   1.1191 B(  1-C ,  3-C ) :   0.9085 
B(  2-C ,  6-C ) :   0.9076 B(  2-C , 44-C ) :   2.1184 B(  3-C ,  4-C ) :   1.3967 
B(  3-C ,  8-C ) :   1.3723 B(  4-C ,  5-C ) :   1.4265 B(  4-C , 11-C ) :   1.0905 
B(  5-C ,  6-C ) :   1.3732 B(  5-C ,  9-H ) :   0.9214 B(  6-C ,  7-C ) :   1.3972 
B(  7-C ,  8-C ) :   1.4264 B(  7-C , 23-C ) :   1.0895 B(  8-C , 10-H ) :   0.9220 
B( 11-C , 12-H ) :   0.8982 B( 11-C , 13-H ) :   0.8980 B( 11-C , 14-C ) :   1.1041 
B( 14-C , 15-H ) :   0.9293 B( 14-C , 16-H ) :   0.9293 B( 14-C , 17-C ) :   1.0752 
B( 17-C , 18-H ) :   0.9410 B( 17-C , 19-H ) :   0.9410 B( 17-C , 20-C ) :   1.1059 
B( 20-C , 21-H ) :   0.9663 B( 20-C , 22-H ) :   0.9662 B( 20-C , 47-H ) :   0.9617 
B( 23-C , 24-H ) :   0.8973 B( 23-C , 25-H ) :   0.8973 B( 23-C , 26-C ) :   1.1029 
B( 26-C , 27-H ) :   0.9273 B( 26-C , 28-H ) :   0.9269 B( 26-C , 29-C ) :   1.0768 
B( 29-C , 30-H ) :   0.9338 B( 29-C , 31-H ) :   0.9338 B( 29-C , 32-C ) :   1.0779 
B( 32-C , 33-H ) :   0.9358 B( 32-C , 34-H ) :   0.9358 B( 32-C , 35-C ) :   1.0780 
B( 35-C , 36-H ) :   0.9401 B( 35-C , 37-H ) :   0.9401 B( 35-C , 38-C ) :   1.0486 
B( 38-C , 39-H ) :   0.9359 B( 38-C , 40-H ) :   0.9358 B( 38-C , 41-C ) :   1.1364 
B( 41-C , 42-H ) :   0.9649 B( 41-C , 43-H ) :   0.9649 B( 44-C , 46-H ) :   1.1191 


-------
TIMINGS
-------

Total SCF time: 0 days 0 hours 0 min 46 sec 

Total time                  ....      46.566 sec
Sum of individual times     ....      43.454 sec  ( 93.3%)

Fock matrix formation       ....      38.537 sec  ( 82.8%)
  Split-RI-J                ....       2.964 sec  (  7.7% of F)
  Chain of spheres X        ....      24.957 sec  ( 64.8% of F)
  XC integration            ....       8.341 sec  ( 21.6% of F)
    Basis function eval.    ....       0.773 sec  (  9.3% of XC)
    Density eval.           ....       0.860 sec  ( 10.3% of XC)
    XC-Functional eval.     ....       0.196 sec  (  2.3% of XC)
    XC-Potential eval.      ....       0.451 sec  (  5.4% of XC)
Diagonalization             ....       0.718 sec  (  1.5%)
Density matrix formation    ....       0.074 sec  (  0.2%)
Population analysis         ....       0.310 sec  (  0.7%)
Initial guess               ....       0.128 sec  (  0.3%)
Orbital Transformation      ....       0.000 sec  (  0.0%)
Orbital Orthonormalization  ....       0.093 sec  (  0.2%)
DIIS solution               ....       0.388 sec  (  0.8%)
Grid generation             ....       3.299 sec  (  7.1%)

Maximum memory used throughout the entire SCF-calculation: 110.0 MB

-------------------------   --------------------
FINAL SINGLE POINT ENERGY      -815.796656977920
-------------------------   --------------------

                                *** OPTIMIZATION RUN DONE ***

                            ***************************************
                            *     ORCA property calculations      *
                            ***************************************

                                    ---------------------
                                    Active property flags
                                    ---------------------
   (+) Dipole Moment


------------------------------------------------------------------------------
                       ORCA ELECTRIC PROPERTIES CALCULATION
------------------------------------------------------------------------------

Dipole Moment Calculation                       ... on
Quadrupole Moment Calculation                   ... off
Polarizability Calculation                      ... off
GBWName                                         ... opt_cc-pVDZ.gbw
Electron density                                ... opt_cc-pVDZ.scfp
The origin for moment calculation is the CENTER OF MASS  = ( 0.446410,  2.473613 -0.161224)

-------------
DIPOLE MOMENT
-------------
                                X             Y             Z
Electronic contribution:     -2.07572     -10.76901      -0.13808
Nuclear contribution   :      2.05439      10.63883       0.13610
                        -----------------------------------------
Total Dipole Moment    :     -0.02133      -0.13018      -0.00198
                        -----------------------------------------
Magnitude (a.u.)       :      0.13193
Magnitude (Debye)      :      0.33534



--------------------
Rotational spectrum 
--------------------
 
Rotational constants in cm-1:     0.021354     0.002920     0.002583 
Rotational constants in MHz :   640.176281    87.546720    77.426860 

 Dipole components along the rotational axes: 
x,y,z [a.u.] :    -0.131732     0.007193     0.000384 
x,y,z [Debye]:    -0.334836     0.018283     0.000977 

 

Timings for individual modules:

Sum of individual times         ...      164.830 sec (=   2.747 min)
GTO integral calculation        ...        6.378 sec (=   0.106 min)   3.9 %
SCF iterations                  ...      138.606 sec (=   2.310 min)  84.1 %
SCF Gradient evaluation         ...       18.801 sec (=   0.313 min)  11.4 %
Geometry relaxation             ...        1.045 sec (=   0.017 min)   0.6 %
                             ****ORCA TERMINATED NORMALLY****
TOTAL RUN TIME: 0 days 0 hours 2 minutes 48 seconds 910 msec
