
                                 *****************
                                 * O   R   C   A *
                                 *****************

                                            #,                                       
                                            ###                                      
                                            ####                                     
                                            #####                                    
                                            ######                                   
                                           ########,                                 
                                     ,,################,,,,,                         
                               ,,#################################,,                 
                          ,,##########################################,,             
                       ,#########################################, ''#####,          
                    ,#############################################,,   '####,        
                  ,##################################################,,,,####,       
                ,###########''''           ''''###############################       
              ,#####''   ,,,,##########,,,,          '''####'''          '####       
            ,##' ,,,,###########################,,,                        '##       
           ' ,,###''''                  '''############,,,                           
         ,,##''                                '''############,,,,        ,,,,,,###''
      ,#''                                            '''#######################'''  
     '                                                          ''''####''''         
             ,#######,   #######,   ,#######,      ##                                
            ,#'     '#,  ##    ##  ,#'     '#,    #''#        ######   ,####,        
            ##       ##  ##   ,#'  ##            #'  '#       #        #'  '#        
            ##       ##  #######   ##           ,######,      #####,   #    #        
            '#,     ,#'  ##    ##  '#,     ,#' ,#      #,         ##   #,  ,#        
             '#######'   ##     ##  '#######'  #'      '#     #####' # '####'        



                  #######################################################
                  #                        -***-                        #
                  #          Department of theory and spectroscopy      #
                  #    Directorship and core code : Frank Neese         #
                  #        Max Planck Institute fuer Kohlenforschung    #
                  #                Kaiser Wilhelm Platz 1               #
                  #                 D-45470 Muelheim/Ruhr               #
                  #                      Germany                        #
                  #                                                     #
                  #                  All rights reserved                #
                  #                        -***-                        #
                  #######################################################


                         Program Version 5.0.4 -  RELEASE  -


 With contributions from (in alphabetic order):
   Daniel Aravena         : Magnetic Suceptibility
   Michael Atanasov       : Ab Initio Ligand Field Theory (pilot matlab implementation)
   Alexander A. Auer      : GIAO ZORA, VPT2 properties, NMR spectrum
   Ute Becker             : Parallelization
   Giovanni Bistoni       : ED, misc. LED, open-shell LED, HFLD
   Martin Brehm           : Molecular dynamics
   Dmytro Bykov           : SCF Hessian
   Vijay G. Chilkuri      : MRCI spin determinant printing, contributions to CSF-ICE
   Dipayan Datta          : RHF DLPNO-CCSD density
   Achintya Kumar Dutta   : EOM-CC, STEOM-CC
   Dmitry Ganyushin       : Spin-Orbit,Spin-Spin,Magnetic field MRCI
   Miquel Garcia          : C-PCM and meta-GGA Hessian, CC/C-PCM, Gaussian charge scheme
   Yang Guo               : DLPNO-NEVPT2, F12-NEVPT2, CIM, IAO-localization
   Andreas Hansen         : Spin unrestricted coupled pair/coupled cluster methods
   Benjamin Helmich-Paris : MC-RPA, TRAH-SCF, COSX integrals
   Lee Huntington         : MR-EOM, pCC
   Robert Izsak           : Overlap fitted RIJCOSX, COSX-SCS-MP3, EOM
   Marcus Kettner         : VPT2
   Christian Kollmar      : KDIIS, OOCD, Brueckner-CCSD(T), CCSD density, CASPT2, CASPT2-K
   Simone Kossmann        : Meta GGA functionals, TD-DFT gradient, OOMP2, MP2 Hessian
   Martin Krupicka        : Initial AUTO-CI
   Lucas Lang             : DCDCAS
   Marvin Lechner         : AUTO-CI (C++ implementation), FIC-MRCC
   Dagmar Lenk            : GEPOL surface, SMD
   Dimitrios Liakos       : Extrapolation schemes; Compound Job, initial MDCI parallelization
   Dimitrios Manganas     : Further ROCIS development; embedding schemes
   Dimitrios Pantazis     : SARC Basis sets
   Anastasios Papadopoulos: AUTO-CI, single reference methods and gradients
   Taras Petrenko         : DFT Hessian,TD-DFT gradient, ASA, ECA, R-Raman, ABS, FL, XAS/XES, NRVS
   Peter Pinski           : DLPNO-MP2, DLPNO-MP2 Gradient
   Christoph Reimann      : Effective Core Potentials
   Marius Retegan         : Local ZFS, SOC
   Christoph Riplinger    : Optimizer, TS searches, QM/MM, DLPNO-CCSD(T), (RO)-DLPNO pert. Triples
   Tobias Risthaus        : Range-separated hybrids, TD-DFT gradient, RPA, STAB
   Michael Roemelt        : Original ROCIS implementation
   Masaaki Saitow         : Open-shell DLPNO-CCSD energy and density
   Barbara Sandhoefer     : DKH picture change effects
   Avijit Sen             : IP-ROCIS
   Kantharuban Sivalingam : CASSCF convergence, NEVPT2, FIC-MRCI
   Bernardo de Souza      : ESD, SOC TD-DFT
   Georgi Stoychev        : AutoAux, RI-MP2 NMR, DLPNO-MP2 response
   Willem Van den Heuvel  : Paramagnetic NMR
   Boris Wezisla          : Elementary symmetry handling
   Frank Wennmohs         : Technical directorship


 We gratefully acknowledge several colleagues who have allowed us to
 interface, adapt or use parts of their codes:
   Stefan Grimme, W. Hujo, H. Kruse, P. Pracht,  : VdW corrections, initial TS optimization,
                  C. Bannwarth, S. Ehlert          DFT functionals, gCP, sTDA/sTD-DF
   Ed Valeev, F. Pavosevic, A. Kumar             : LibInt (2-el integral package), F12 methods
   Garnet Chan, S. Sharma, J. Yang, R. Olivares  : DMRG
   Ulf Ekstrom                                   : XCFun DFT Library
   Mihaly Kallay                                 : mrcc  (arbitrary order and MRCC methods)
   Jiri Pittner, Ondrej Demel                    : Mk-CCSD
   Frank Weinhold                                : gennbo (NPA and NBO analysis)
   Christopher J. Cramer and Donald G. Truhlar   : smd solvation model
   Lars Goerigk                                  : TD-DFT with DH, B97 family of functionals
   V. Asgeirsson, H. Jonsson                     : NEB implementation
   FAccTs GmbH                                   : IRC, NEB, NEB-TS, DLPNO-Multilevel, CI-OPT
                                                   MM, QMMM, 2- and 3-layer-ONIOM, Crystal-QMMM,
                                                   LR-CPCM, SF, NACMEs, symmetry and pop. for TD-DFT,
                                                   nearIR, NL-DFT gradient (VV10), updates on ESD,
                                                   ML-optimized integration grids
   S Lehtola, MJT Oliveira, MAL Marques          : LibXC Library
   Liviu Ungur et al                             : ANISO software


 Your calculation uses the libint2 library for the computation of 2-el integrals
 For citations please refer to: http://libint.valeyev.net

 Your ORCA version has been built with support for libXC version: 5.1.0
 For citations please refer to: https://tddft.org/programs/libxc/

 This ORCA versions uses:
   CBLAS   interface :  Fast vector & matrix operations
   LAPACKE interface :  Fast linear algebra routines
   SCALAPACK package :  Parallel linear algebra routines
   Shared memory     :  Shared parallel matrices
   BLAS/LAPACK       :  OpenBLAS 0.3.15  USE64BITINT DYNAMIC_ARCH NO_AFFINITY SkylakeX SINGLE_THREADED
        Core in use  :  SkylakeX
   Copyright (c) 2011-2014, The OpenBLAS Project




***************************************
The coordinates will be read from file: model.xyz
***************************************


================================================================================

----- Orbital basis set information -----
Your calculation utilizes the basis: EPR-II
   V. Barone, in Recent Advances in Density Functional Methods, Part 1 (ed. D. P. Chong), World Scientific, Singapore, 1995, p. 287.

----- AuxJ basis set information -----
Your calculation utilizes the auxiliary basis: def2/J
   F. Weigend, Phys. Chem. Chem. Phys. 8, 1057 (2006).

================================================================================
                                        WARNINGS
                       Please study these warnings very carefully!
================================================================================


WARNING: your system is open-shell and RHF/RKS was chosen
  ===> : WILL SWITCH to UHF/UKS


WARNING: Geometry Optimization
  ===> : Switching off AutoStart
         For restart on a previous wavefunction, please use MOREAD

INFO   : the flag for use of the SHARK integral package has been found!

================================================================================
                                       INPUT FILE
================================================================================
NAME = opt_EPRII.inp
|  1> ! B3LYP EPR-II OPT
|  2> %pal nprocs 16 end
|  3> *XYZFile 0 2 model.xyz
|  4> 
|  5>                          ****END OF INPUT****
================================================================================

                       *****************************
                       * Geometry Optimization Run *
                       *****************************

Geometry optimization settings:
Update method            Update   .... BFGS
Choice of coordinates    CoordSys .... Z-matrix Internals
Initial Hessian          InHess   .... Almoef's Model

Convergence Tolerances:
Energy Change            TolE     ....  5.0000e-06 Eh
Max. Gradient            TolMAXG  ....  3.0000e-04 Eh/bohr
RMS Gradient             TolRMSG  ....  1.0000e-04 Eh/bohr
Max. Displacement        TolMAXD  ....  4.0000e-03 bohr
RMS Displacement         TolRMSD  ....  2.0000e-03 bohr
Strict Convergence                ....  False
------------------------------------------------------------------------------
                        ORCA OPTIMIZATION COORDINATE SETUP
------------------------------------------------------------------------------

The optimization will be done in new redundant internal coordinates
Making redundant internal coordinates   ...  (new redundants) done
Evaluating the initial hessian          ...  (Almloef) done
Evaluating the coordinates              ...  done
Calculating the B-matrix                .... done
Calculating the G-matrix                .... done
Diagonalizing the G-matrix              .... done
Small eigenvalue found = 8.781e-04
Small eigenvalue found = 3.647e-03
Small eigenvalue found = 4.115e-03
Small eigenvalue found = 9.723e-03
Small eigenvalue found = 1.219e-02
Small eigenvalue found = 1.521e-02
Small eigenvalue found = 2.047e-02
Small eigenvalue found = 2.747e-02
Small eigenvalue found = 2.930e-02
The first mode is                       ....  113
The number of degrees of freedom        ....  138

    -----------------------------------------------------------------
                    Redundant Internal Coordinates


    -----------------------------------------------------------------
         Definition                    Initial Value    Approx d2E/dq
    -----------------------------------------------------------------
      1. B(C   1,C   0)                  1.2161         1.183430   
      2. B(C   3,C   1)                  1.4326         0.534242   
      3. B(C   4,C   3)                  1.4186         0.562522   
      4. B(C   5,C   4)                  1.3955         0.612340   
      5. B(C   6,C   5)                  1.4093         0.581965   
      6. B(C   6,C   2)                  1.4326         0.534264   
      7. B(C   7,C   6)                  1.4186         0.562499   
      8. B(C   8,C   7)                  1.3955         0.612367   
      9. B(C   8,C   3)                  1.4093         0.582034   
     10. B(H   9,C   5)                  1.0898         0.360419   
     11. B(H  10,C   8)                  1.0897         0.360439   
     12. B(C  11,C   4)                  1.5167         0.392320   
     13. B(H  12,C  11)                  1.1056         0.340069   
     14. B(H  13,C  11)                  1.1056         0.340033   
     15. B(C  14,C  11)                  1.5309         0.372395   
     16. B(H  15,C  14)                  1.1057         0.339962   
     17. B(H  16,C  14)                  1.1057         0.339942   
     18. B(C  17,C  14)                  1.5335         0.368766   
     19. B(H  18,C  17)                  1.1058         0.339734   
     20. B(H  19,C  17)                  1.1059         0.339726   
     21. B(C  20,C  17)                  1.5307         0.372562   
     22. B(H  21,C  20)                  1.1037         0.342364   
     23. B(H  22,C  20)                  1.1038         0.342362   
     24. B(C  23,C   7)                  1.5168         0.392076   
     25. B(H  24,C  23)                  1.1056         0.340061   
     26. B(H  25,C  23)                  1.1055         0.340211   
     27. B(C  26,C  23)                  1.5311         0.372131   
     28. B(H  27,C  26)                  1.1055         0.340226   
     29. B(H  28,C  26)                  1.1054         0.340256   
     30. B(C  29,C  26)                  1.5336         0.368716   
     31. B(H  30,C  29)                  1.1064         0.339034   
     32. B(H  31,C  29)                  1.1064         0.339047   
     33. B(C  32,C  29)                  1.5329         0.369657   
     34. B(H  33,C  32)                  1.1067         0.338655   
     35. B(H  34,C  32)                  1.1067         0.338640   
     36. B(C  35,C  32)                  1.5327         0.369836   
     37. B(H  36,C  35)                  1.1055         0.340127   
     38. B(H  37,C  35)                  1.1055         0.340123   
     39. B(C  38,C  35)                  1.5502         0.346903   
     40. B(H  39,C  38)                  1.1062         0.339265   
     41. B(H  40,C  38)                  1.1062         0.339248   
     42. B(C  41,C  38)                  1.4924         0.428947   
     43. B(H  42,C  41)                  1.0938         0.355144   
     44. B(H  43,C  41)                  1.0938         0.355156   
     45. B(C  44,C   2)                  1.2161         1.183440   
     46. B(H  45,C   0)                  1.0725         0.384073   
     47. B(H  46,C  44)                  1.0725         0.384073   
     48. B(H  47,C  20)                  1.1021         0.344434   
     49. L(C   1,C   0,H  45, 2)       179.8926         0.398980   
     50. L(C   1,C   0,H  45, 1)       180.0456         0.398980   
     51. L(C   0,C   1,C   3,C   8, 1) 179.5987         0.475201   
     52. L(C   0,C   1,C   3,C   8, 2) 180.2841         0.475201   
     53. L(C   6,C   2,C  44,C   5, 2) 179.8487         0.475205   
     54. L(C   6,C   2,C  44,C   5, 1) 179.6068         0.475205   
     55. A(C   1,C   3,C   8)          118.9604         0.417895   
     56. A(C   4,C   3,C   8)          120.3596         0.421757   
     57. A(C   1,C   3,C   4)          120.6800         0.415366   
     58. A(C   3,C   4,C  11)          119.9116         0.393337   
     59. A(C   5,C   4,C  11)          122.7875         0.399238   
     60. A(C   3,C   4,C   5)          117.3009         0.425602   
     61. A(C   6,C   5,H   9)          117.6390         0.349207   
     62. A(C   4,C   5,C   6)          122.3398         0.428201   
     63. A(C   4,C   5,H   9)          120.0212         0.352220   
     64. A(C   5,C   6,C   7)          120.3579         0.421745   
     65. A(C   2,C   6,C   7)          120.6669         0.415366   
     66. A(C   2,C   6,C   5)          118.9752         0.417889   
     67. A(C   6,C   7,C   8)          117.3017         0.425602   
     68. A(C   6,C   7,C  23)          119.9234         0.393291   
     69. A(C   8,C   7,C  23)          122.7749         0.399198   
     70. A(C   3,C   8,H  10)          117.6280         0.349217   
     71. A(C   3,C   8,C   7)          122.3401         0.428213   
     72. A(C   7,C   8,H  10)          120.0318         0.352226   
     73. A(C   4,C  11,H  12)          108.1746         0.323878   
     74. A(H  13,C  11,C  14)          109.2343         0.321118   
     75. A(H  12,C  11,C  14)          109.2494         0.321124   
     76. A(H  12,C  11,H  13)          104.4492         0.285672   
     77. A(C   4,C  11,H  13)          108.1647         0.323873   
     78. A(C   4,C  11,C  14)          116.8520         0.366210   
     79. A(H  16,C  14,C  17)          109.0399         0.320590   
     80. A(H  15,C  14,C  17)          109.0289         0.320593   
     81. A(C  11,C  14,C  17)          112.5936         0.362352   
     82. A(H  15,C  14,H  16)          106.2058         0.285647   
     83. A(C  11,C  14,H  16)          109.8719         0.321104   
     84. A(C  11,C  14,H  15)          109.8928         0.321107   
     85. A(C  14,C  17,H  18)          109.2026         0.320558   
     86. A(H  19,C  17,C  20)          109.5724         0.321094   
     87. A(H  18,C  17,C  20)          109.5848         0.321096   
     88. A(C  14,C  17,C  20)          113.1751         0.362380   
     89. A(H  18,C  17,H  19)          105.8452         0.285589   
     90. A(C  14,C  17,H  19)          109.1976         0.320557   
     91. A(H  21,C  20,H  47)          107.5980         0.286546   
     92. A(C  17,C  20,H  47)          111.5000         0.321818   
     93. A(H  21,C  20,H  22)          107.3788         0.286277   
     94. A(C  17,C  20,H  22)          111.2765         0.321501   
     95. A(C  17,C  20,H  21)          111.2868         0.321501   
     96. A(H  22,C  20,H  47)          107.5949         0.286546   
     97. A(H  25,C  23,C  26)          109.2629         0.321109   
     98. A(H  24,C  23,C  26)          109.2578         0.321085   
     99. A(C   7,C  23,C  26)          116.7661         0.366127   
    100. A(H  24,C  23,H  25)          104.4665         0.285695   
    101. A(C   7,C  23,H  25)          108.1894         0.323868   
    102. A(C   7,C  23,H  24)          108.1923         0.323844   
    103. A(H  28,C  26,C  29)          109.0522         0.320632   
    104. A(H  27,C  26,C  29)          109.0707         0.320627   
    105. A(C  23,C  26,C  29)          112.6382         0.362300   
    106. A(H  27,C  26,H  28)          106.2051         0.285722   
    107. A(C  23,C  26,H  28)          109.8532         0.321116   
    108. A(C  23,C  26,H  27)          109.8117         0.321111   
    109. A(H  31,C  29,C  32)          109.3466         0.320579   
    110. A(H  30,C  29,C  32)          109.3514         0.320577   
    111. A(C  26,C  29,C  32)          113.4016         0.361888   
    112. A(H  30,C  29,H  31)          105.8326         0.285408   
    113. A(C  26,C  29,H  31)          109.3100         0.320445   
    114. A(C  26,C  29,H  30)          109.3205         0.320443   
    115. A(C  29,C  32,C  35)          113.6079         0.362075   
    116. A(H  33,C  32,H  34)          105.8280         0.285305   
    117. A(C  29,C  32,H  34)          109.2652         0.320516   
    118. A(C  29,C  32,H  33)          109.2816         0.320518   
    119. A(H  34,C  32,C  35)          109.2819         0.320541   
    120. A(H  33,C  32,C  35)          109.2834         0.320543   
    121. A(H  37,C  35,C  38)          109.0764         0.317436   
    122. A(H  36,C  35,C  38)          109.0798         0.317437   
    123. A(C  32,C  35,C  38)          113.0160         0.358177   
    124. A(H  36,C  35,H  37)          106.0655         0.285692   
    125. A(C  32,C  35,H  37)          109.6858         0.320770   
    126. A(C  32,C  35,H  36)          109.6775         0.320771   
    127. A(H  40,C  38,C  41)          109.9943         0.328541   
    128. A(H  39,C  38,C  41)          110.0039         0.328543   
    129. A(C  35,C  38,C  41)          113.8785         0.367364   
    130. A(H  39,C  38,H  40)          106.5017         0.285464   
    131. A(C  35,C  38,H  40)          108.0881         0.317303   
    132. A(C  35,C  38,H  39)          108.0864         0.317306   
    133. A(H  42,C  41,H  43)          117.5478         0.289579   
    134. A(C  38,C  41,H  43)          120.8621         0.331038   
    135. A(C  38,C  41,H  42)          120.8577         0.331036   
    136. L(C   2,C  44,H  46, 2)       180.0605         0.398981   
    137. L(C   2,C  44,H  46, 1)       180.0133         0.398981   
    138. D(C   5,C   4,C   3,C   8)      0.0087         0.021683   
    139. D(C  11,C   4,C   3,C   1)     -0.0045         0.021683   
    140. D(C  11,C   4,C   3,C   8)   -179.9977         0.021683   
    141. D(C   5,C   4,C   3,C   1)   -179.9981         0.021683   
    142. D(H   9,C   5,C   4,C  11)      0.0055         0.025908   
    143. D(C   6,C   5,C   4,C   3)     -0.0065         0.025908   
    144. D(C   6,C   5,C   4,C  11)   -179.9999         0.025908   
    145. D(H   9,C   5,C   4,C   3)    179.9989         0.025908   
    146. D(C   2,C   6,C   5,H   9)      0.0151         0.023276   
    147. D(C   7,C   6,C   5,H   9)    179.9982         0.023276   
    148. D(C   2,C   6,C   5,C   4)   -179.9796         0.023276   
    149. D(C   7,C   6,C   5,C   4)      0.0035         0.023276   
    150. D(C   8,C   7,C   6,C   5)     -0.0025         0.021681   
    151. D(C   8,C   7,C   6,C   2)    179.9803         0.021681   
    152. D(C  23,C   7,C   6,C   2)     -0.0516         0.021681   
    153. D(C  23,C   7,C   6,C   5)    179.9656         0.021681   
    154. D(C   3,C   8,C   7,C  23)   -179.9622         0.025910   
    155. D(H  10,C   8,C   7,C  23)      0.0460         0.025910   
    156. D(C   7,C   8,C   3,C   4)     -0.0082         0.023282   
    157. D(C   7,C   8,C   3,C   1)    179.9984         0.023282   
    158. D(H  10,C   8,C   7,C   6)   -179.9869         0.025910   
    159. D(C   3,C   8,C   7,C   6)      0.0049         0.025910   
    160. D(H  10,C   8,C   3,C   4)    179.9838         0.023282   
    161. D(H  10,C   8,C   3,C   1)     -0.0096         0.023282   
    162. D(C  14,C  11,C   4,C   5)     -0.0491         0.011444   
    163. D(C  14,C  11,C   4,C   3)    179.9576         0.011444   
    164. D(H  13,C  11,C   4,C   5)    123.6424         0.011444   
    165. D(H  12,C  11,C   4,C   5)   -123.7690         0.011444   
    166. D(H  12,C  11,C   4,C   3)     56.2377         0.011444   
    167. D(H  13,C  11,C   4,C   3)    -56.3508         0.011444   
    168. D(H  15,C  14,C  11,C   4)    -58.1084         0.011077   
    169. D(C  17,C  14,C  11,H  12)    -56.6843         0.011077   
    170. D(C  17,C  14,C  11,C   4)   -179.8530         0.011077   
    171. D(H  16,C  14,C  11,H  13)    -64.7397         0.011077   
    172. D(H  16,C  14,C  11,H  12)   -178.4281         0.011077   
    173. D(H  16,C  14,C  11,C   4)     58.4032         0.011077   
    174. D(H  15,C  14,C  11,H  13)    178.7488         0.011077   
    175. D(C  17,C  14,C  11,H  13)     57.0042         0.011077   
    176. D(H  15,C  14,C  11,H  12)     65.0603         0.011077   
    177. D(C  20,C  17,C  14,H  16)    -57.6551         0.010875   
    178. D(C  20,C  17,C  14,C  11)   -179.8697         0.010875   
    179. D(H  19,C  17,C  14,H  16)   -179.9934         0.010875   
    180. D(H  19,C  17,C  14,H  15)    -64.4414         0.010875   
    181. D(H  19,C  17,C  14,C  11)     57.7920         0.010875   
    182. D(H  18,C  17,C  14,H  16)     64.7026         0.010875   
    183. D(C  20,C  17,C  14,H  15)     57.8969         0.010875   
    184. D(H  18,C  17,C  14,H  15)   -179.7453         0.010875   
    185. D(H  18,C  17,C  14,C  11)    -57.5120         0.010875   
    186. D(H  47,C  20,C  17,H  19)    -57.6966         0.011087   
    187. D(H  47,C  20,C  17,H  18)     58.0297         0.011087   
    188. D(H  47,C  20,C  17,C  14)   -179.8258         0.011087   
    189. D(H  22,C  20,C  17,H  19)     62.4391         0.011087   
    190. D(H  22,C  20,C  17,H  18)    178.1655         0.011087   
    191. D(H  22,C  20,C  17,C  14)    -59.6901         0.011087   
    192. D(H  21,C  20,C  17,H  19)   -177.8432         0.011087   
    193. D(H  21,C  20,C  17,H  18)    -62.1169         0.011087   
    194. D(H  21,C  20,C  17,C  14)     60.0276         0.011087   
    195. D(C  26,C  23,C   7,C   6)    179.4927         0.011430   
    196. D(H  25,C  23,C   7,C   8)   -124.2285         0.011430   
    197. D(H  25,C  23,C   7,C   6)     55.8053         0.011430   
    198. D(H  24,C  23,C   7,C   8)    123.1419         0.011430   
    199. D(C  26,C  23,C   7,C   8)     -0.5411         0.011430   
    200. D(H  24,C  23,C   7,C   6)    -56.8243         0.011430   
    201. D(C  29,C  26,C  23,H  25)    -56.7114         0.011063   
    202. D(C  29,C  26,C  23,C   7)   -179.8472         0.011063   
    203. D(H  28,C  26,C  23,H  25)   -178.4882         0.011063   
    204. D(H  28,C  26,C  23,H  24)    -64.7594         0.011063   
    205. D(H  28,C  26,C  23,C   7)     58.3761         0.011063   
    206. D(H  27,C  26,C  23,H  25)     65.0593         0.011063   
    207. D(C  29,C  26,C  23,H  24)     57.0174         0.011063   
    208. D(H  27,C  26,C  23,H  24)    178.7881         0.011063   
    209. D(H  27,C  26,C  23,C   7)    -58.0764         0.011063   
    210. D(C  32,C  29,C  26,H  28)    -57.7505         0.010873   
    211. D(C  32,C  29,C  26,H  27)     57.8304         0.010873   
    212. D(C  32,C  29,C  26,C  23)   -179.9800         0.010873   
    213. D(H  31,C  29,C  26,H  28)    179.9645         0.010873   
    214. D(H  31,C  29,C  26,H  27)    -64.4546         0.010873   
    215. D(H  31,C  29,C  26,C  23)     57.7350         0.010873   
    216. D(H  30,C  29,C  26,H  28)     64.5484         0.010873   
    217. D(H  30,C  29,C  26,H  27)   -179.8707         0.010873   
    218. D(H  30,C  29,C  26,C  23)    -57.6811         0.010873   
    219. D(C  35,C  32,C  29,H  31)    -57.7162         0.010925   
    220. D(C  35,C  32,C  29,H  30)     57.7374         0.010925   
    221. D(C  35,C  32,C  29,C  26)   -179.9808         0.010925   
    222. D(H  34,C  32,C  29,H  31)     64.5947         0.010925   
    223. D(H  34,C  32,C  29,H  30)   -179.9517         0.010925   
    224. D(H  34,C  32,C  29,C  26)    -57.6700         0.010925   
    225. D(H  33,C  32,C  29,H  31)    179.9590         0.010925   
    226. D(H  33,C  32,C  29,H  30)    -64.5874         0.010925   
    227. D(H  33,C  32,C  29,C  26)     57.6943         0.010925   
    228. D(C  38,C  35,C  32,H  34)     57.6900         0.010935   
    229. D(C  38,C  35,C  32,H  33)    -57.6846         0.010935   
    230. D(C  38,C  35,C  32,C  29)    179.9916         0.010935   
    231. D(H  37,C  35,C  32,H  34)    179.6362         0.010935   
    232. D(H  37,C  35,C  32,H  33)     64.2616         0.010935   
    233. D(H  37,C  35,C  32,C  29)    -58.0622         0.010935   
    234. D(H  36,C  35,C  32,H  34)    -64.2545         0.010935   
    235. D(H  36,C  35,C  32,H  33)   -179.6290         0.010935   
    236. D(H  36,C  35,C  32,C  29)     58.0472         0.010935   
    237. D(C  41,C  38,C  35,H  37)     57.6647         0.009710   
    238. D(C  41,C  38,C  35,C  32)    179.9524         0.009710   
    239. D(H  40,C  38,C  35,H  37)    -64.8805         0.009710   
    240. D(H  40,C  38,C  35,H  36)    179.6867         0.009710   
    241. D(H  40,C  38,C  35,C  32)     57.4072         0.009710   
    242. D(H  39,C  38,C  35,H  37)   -179.7790         0.009710   
    243. D(C  41,C  38,C  35,H  36)    -57.7681         0.009710   
    244. D(H  39,C  38,C  35,H  36)     64.7882         0.009710   
    245. D(H  39,C  38,C  35,C  32)    -57.4913         0.009710   
    246. D(H  43,C  41,C  38,H  40)   -153.4858         0.013590   
    247. D(H  43,C  41,C  38,H  39)    -36.4769         0.013590   
    248. D(H  43,C  41,C  38,C  35)     85.0210         0.013590   
    249. D(H  42,C  41,C  38,H  40)     36.5592         0.013590   
    250. D(H  42,C  41,C  38,H  39)    153.5681         0.013590   
    251. D(H  42,C  41,C  38,C  35)    -84.9339         0.013590   
    -----------------------------------------------------------------

Number of atoms                         .... 48
Number of degrees of freedom            .... 251

         *************************************************************
         *                GEOMETRY OPTIMIZATION CYCLE   1            *
         *************************************************************
---------------------------------
CARTESIAN COORDINATES (ANGSTROEM)
---------------------------------
  C     -4.033095    0.125995   -0.120550
  C     -2.818554    0.064283   -0.113733
  C      2.844701   -0.087698   -0.094014
  C     -1.387308    0.001670   -0.109120
  C     -0.717415   -1.248577   -0.131387
  C      0.677891   -1.227304   -0.125201
  C      1.413450   -0.025455   -0.098238
  C      0.743520    1.224786   -0.076040
  C     -0.651774    1.203497   -0.082207
  H      1.237515   -2.162251   -0.141592
  H     -1.211574    2.138326   -0.066066
  C     -1.519082   -2.535740   -0.160319
  H     -2.193391   -2.502424   -1.035822
  H     -2.198917   -2.538057    0.711570
  C     -0.725170   -3.844428   -0.184263
  H     -0.057419   -3.863303   -1.065313
  H     -0.067448   -3.901298    0.702698
  C     -1.630154   -5.082043   -0.216172
  H     -2.302557   -5.063679    0.661573
  H     -2.289170   -5.027876   -1.102556
  C     -0.849650   -6.398680   -0.237162
  H     -0.209987   -6.499597    0.656655
  H     -0.192325   -6.460562   -1.121673
  C      1.544976    2.512262   -0.046310
  H      2.211265    2.483799    0.835489
  H      2.232417    2.510877   -0.912033
  C      0.748806    3.819980   -0.035637
  H      0.094974    3.867835   -0.925718
  H      0.077234    3.843479    0.842094
  C      1.650750    5.059985   -0.009203
  H      2.308780    5.015134    0.879125
  H      2.325397    5.040432   -0.885895
  C      0.871144    6.379748    0.002295
  H      0.196174    6.397851    0.879166
  H      0.212832    6.422731   -0.886310
  C      1.768137    7.622332    0.028249
  H      2.440869    7.614214   -0.849002
  H      2.424364    7.589422    0.917345
  C      0.965992    8.948773    0.039424
  H      0.313046    8.962787   -0.853435
  H      0.295262    8.937141    0.919053
  C      1.821040   10.171631    0.065838
  H      2.200965   10.570215    1.010891
  H      2.218733   10.598274   -0.859437
  C      4.059287   -0.148837   -0.092234
  H     -5.104117    0.181270   -0.124553
  H      5.130370   -0.203000   -0.089533
  H     -1.525743   -7.268664   -0.263008

----------------------------
CARTESIAN COORDINATES (A.U.)
----------------------------
  NO LB      ZA    FRAG     MASS         X           Y           Z
   0 C     6.0000    0    12.011   -7.621445    0.238096   -0.227806
   1 C     6.0000    0    12.011   -5.326295    0.121477   -0.214924
   2 C     6.0000    0    12.011    5.375707   -0.165726   -0.177661
   3 C     6.0000    0    12.011   -2.621633    0.003156   -0.206208
   4 C     6.0000    0    12.011   -1.355718   -2.359469   -0.248285
   5 C     6.0000    0    12.011    1.281028   -2.319269   -0.236597
   6 C     6.0000    0    12.011    2.671033   -0.048104   -0.185643
   7 C     6.0000    0    12.011    1.405050    2.314511   -0.143695
   8 C     6.0000    0    12.011   -1.231674    2.274280   -0.155348
   9 H     1.0000    0     1.008    2.338565   -4.086062   -0.267571
  10 H     1.0000    0     1.008   -2.289542    4.040851   -0.124848
  11 C     6.0000    0    12.011   -2.870649   -4.791855   -0.302959
  12 H     1.0000    0     1.008   -4.144908   -4.728896   -1.957419
  13 H     1.0000    0     1.008   -4.155351   -4.796233    1.344672
  14 C     6.0000    0    12.011   -1.370372   -7.264916   -0.348206
  15 H     1.0000    0     1.008   -0.108507   -7.300585   -2.013149
  16 H     1.0000    0     1.008   -0.127457   -7.372384    1.327906
  17 C     6.0000    0    12.011   -3.080545   -9.603669   -0.408505
  18 H     1.0000    0     1.008   -4.351202   -9.568967    1.250192
  19 H     1.0000    0     1.008   -4.325904   -9.501309   -2.083529
  20 C     6.0000    0    12.011   -1.605605  -12.091753   -0.448172
  21 H     1.0000    0     1.008   -0.396818  -12.282458    1.240898
  22 H     1.0000    0     1.008   -0.363442  -12.208692   -2.119655
  23 C     6.0000    0    12.011    2.919582    4.747487   -0.087513
  24 H     1.0000    0     1.008    4.178684    4.693700    1.578845
  25 H     1.0000    0     1.008    4.218658    4.744871   -1.723493
  26 C     6.0000    0    12.011    1.415038    7.218715   -0.067345
  27 H     1.0000    0     1.008    0.179475    7.309149   -1.749353
  28 H     1.0000    0     1.008    0.145950    7.263122    1.591328
  29 C     6.0000    0    12.011    3.119466    9.561986   -0.017391
  30 H     1.0000    0     1.008    4.362961    9.477230    1.661306
  31 H     1.0000    0     1.008    4.394363    9.525036   -1.674099
  32 C     6.0000    0    12.011    1.646224   12.055976    0.004337
  33 H     1.0000    0     1.008    0.370715   12.090187    1.661383
  34 H     1.0000    0     1.008    0.402194   12.137203   -1.674883
  35 C     6.0000    0    12.011    3.341295   14.404120    0.053382
  36 H     1.0000    0     1.008    4.612574   14.388779   -1.604382
  37 H     1.0000    0     1.008    4.581384   14.341929    1.733531
  38 C     6.0000    0    12.011    1.825460   16.910729    0.074500
  39 H     1.0000    0     1.008    0.591572   16.937213   -1.612758
  40 H     1.0000    0     1.008    0.557964   16.888749    1.736758
  41 C     6.0000    0    12.011    3.441267   19.221597    0.124417
  42 H     1.0000    0     1.008    4.159221   19.974812    1.910308
  43 H     1.0000    0     1.008    4.192798   20.027834   -1.624101
  44 C     6.0000    0    12.011    7.670940   -0.281260   -0.174296
  45 H     1.0000    0     1.008   -9.645384    0.342550   -0.235371
  46 H     1.0000    0     1.008    9.694995   -0.383615   -0.169193
  47 H     1.0000    0     1.008   -2.883236  -13.735785   -0.497013

--------------------------------
INTERNAL COORDINATES (ANGSTROEM)
--------------------------------
 C      0   0   0     0.000000000000     0.00000000     0.00000000
 C      1   0   0     1.216126533425     0.00000000     0.00000000
 C      2   1   0     5.665328879189   178.62311323     0.00000000
 C      2   1   3     1.432622014091   179.57366667   346.36765878
 C      4   2   1     1.418580903656   120.67998894   199.85893781
 C      5   4   2     1.395481891878   117.30089220   180.00194210
 C      6   5   4     1.409331062043   122.33981991     0.00000000
 C      7   6   5     1.418591952718   120.35786033     0.00000000
 C      8   7   6     1.395469875603   117.30166258     0.00000000
 H      6   5   4     1.089758597975   120.02119069   179.99891363
 H      9   8   7     1.089744037995   120.03182786   180.01309598
 C      5   4   2     1.516672751091   119.91158003     0.00000000
 H     12   5   4     1.105579850259   108.17458873    56.23773308
 H     12   5   4     1.105608617036   108.16474260   303.64915849
 C     12   5   4     1.530860730586   116.85196988   179.95762620
 H     15  12   5     1.105665231667   109.89277517   301.89163176
 H     15  12   5     1.105681392118   109.87190177    58.40315050
 C     15  12   5     1.533526994534   112.59361507   180.14702054
 H     18  15  12     1.105847616516   109.20256463   302.48799365
 H     18  15  12     1.105854061265   109.19764228    57.79198366
 C     18  15  12     1.530739018735   113.17514602   180.13028485
 H     21  18  15     1.103748723839   111.28677580    60.02761689
 H     21  18  15     1.103750210883   111.27649423   300.30992875
 C      8   7   6     1.516841639996   119.92338399   179.96555595
 H     24   8   7     1.105585561708   108.19229282   303.17569237
 H     24   8   7     1.105465601363   108.18939608    55.80527247
 C     24   8   7     1.531054090402   116.76610637   179.49268478
 H     27  24   8     1.105454019405   109.81171929   301.92355081
 H     27  24   8     1.105429445798   109.85323597    58.37606105
 C     27  24   8     1.533563296303   112.63818716   180.15281981
 H     30  27  24     1.106409320032   109.32050156   302.31893984
 H     30  27  24     1.106399094548   109.30995567    57.73499914
 C     30  27  24     1.532869910717   113.40155910   180.02000813
 H     33  30  27     1.106713810006   109.28156324    57.69433825
 H     33  30  27     1.106725444466   109.26524721   302.33004611
 C     33  30  27     1.532737960493   113.60794831   180.01918290
 H     36  33  30     1.105532988879   109.67754542    58.04715616
 H     36  33  30     1.105535900967   109.68583839   301.93781246
 C     36  33  30     1.550163098883   113.01602217   179.99164143
 H     39  36  33     1.106223899969   108.08638156   302.50867140
 H     39  36  33     1.106237562865   108.08810700    57.40717091
 C     39  36  33     1.492376628128   113.87849646   179.95243980
 H     42  39  36     1.093772115972   120.85769729   275.06607383
 H     42  39  36     1.093763237714   120.86205473    85.02102555
 C      3   2   1     1.216124220326   178.65063847   189.98545716
 H      1   2   4     1.072455534972   179.88341160   274.34196710
 H     45   3   7     1.072455866565   179.93817679   270.13232413
 H     21  18  15     1.102108103087   111.50000175   180.17420782

---------------------------
INTERNAL COORDINATES (A.U.)
---------------------------
 C      0   0   0     0.000000000000     0.00000000     0.00000000
 C      1   0   0     2.298146092369     0.00000000     0.00000000
 C      2   1   0    10.705920040262   178.62311323     0.00000000
 C      2   1   3     2.707263260058   179.57366667   346.36765878
 C      4   2   1     2.680729406720   120.67998894   199.85893781
 C      5   4   2     2.637078600496   117.30089220   180.00194210
 C      6   5   4     2.663249739289   122.33981991     0.00000000
 C      7   6   5     2.680750286421   120.35786033     0.00000000
 C      8   7   6     2.637055893027   117.30166258     0.00000000
 H      6   5   4     2.059345302259   120.02119069   179.99891363
 H      9   8   7     2.059317787884   120.03182786   180.01309598
 C      5   4   2     2.866096134343   119.91158003     0.00000000
 H     12   5   4     2.089243136171   108.17458873    56.23773308
 H     12   5   4     2.089297497502   108.16474260   303.64915849
 C     12   5   4     2.892907529982   116.85196988   179.95762620
 H     15  12   5     2.089404483649   109.89277517   301.89163176
 H     15  12   5     2.089435022476   109.87190177    58.40315050
 C     15  12   5     2.897946038645   112.59361507   180.14702054
 H     18  15  12     2.089749141065   109.20256463   302.48799365
 H     18  15  12     2.089761319875   109.19764228    57.79198366
 C     18  15  12     2.892677527916   113.17514602   180.13028485
 H     21  18  15     2.085782808721   111.28677580    60.02761689
 H     21  18  15     2.085785618826   111.27649423   300.30992875
 C      8   7   6     2.866415288121   119.92338399   179.96555595
 H     24   8   7     2.089253929245   108.19229282   303.17569237
 H     24   8   7     2.089027237047   108.18939608    55.80527247
 C     24   8   7     2.893272927080   116.76610637   179.49268478
 H     27  24   8     2.089005350317   109.81171929   301.92355081
 H     27  24   8     2.088958912930   109.85323597    58.37606105
 C     27  24   8     2.898014639047   112.63818716   180.15281981
 H     30  27  24     2.090810606878   109.32050156   302.31893984
 H     30  27  24     2.090791283514   109.30995567    57.73499914
 C     30  27  24     2.896704330183   113.40155910   180.02000813
 H     33  30  27     2.091386009539   109.28156324    57.69433825
 H     33  30  27     2.091407995484   109.26524721   302.33004611
 C     33  30  27     2.896454980396   113.60794831   180.01918290
 H     36  33  30     2.089154580996   109.67754542    58.04715616
 H     36  33  30     2.089160084045   109.68583839   301.93781246
 C     36  33  30     2.929383719800   113.01602217   179.99164143
 H     39  36  33     2.090460213740   108.08638156   302.50867140
 H     39  36  33     2.090486032872   108.08810700    57.40717091
 C     39  36  33     2.820183115826   113.87849646   179.95243980
 H     42  39  36     2.066929752106   120.85769729   275.06607383
 H     42  39  36     2.066912974631   120.86205473    85.02102555
 C      3   2   1     2.298141721245   178.65063847   189.98545716
 H      1   2   4     2.026647251906   179.88341160   274.34196710
 H     45   3   7     2.026647878524   179.93817679   270.13232413
 H     21  18  15     2.082682484811   111.50000175   180.17420782

---------------------
BASIS SET INFORMATION
---------------------
There are 2 groups of distinct atoms

 Group   1 Type C   : 10s5p1d contracted to 6s2p1d pattern {511111/41/1}
 Group   2 Type H   : 6s1p contracted to 4s1p pattern {3111/1}

Atom   0C    basis set group =>   1
Atom   1C    basis set group =>   1
Atom   2C    basis set group =>   1
Atom   3C    basis set group =>   1
Atom   4C    basis set group =>   1
Atom   5C    basis set group =>   1
Atom   6C    basis set group =>   1
Atom   7C    basis set group =>   1
Atom   8C    basis set group =>   1
Atom   9H    basis set group =>   2
Atom  10H    basis set group =>   2
Atom  11C    basis set group =>   1
Atom  12H    basis set group =>   2
Atom  13H    basis set group =>   2
Atom  14C    basis set group =>   1
Atom  15H    basis set group =>   2
Atom  16H    basis set group =>   2
Atom  17C    basis set group =>   1
Atom  18H    basis set group =>   2
Atom  19H    basis set group =>   2
Atom  20C    basis set group =>   1
Atom  21H    basis set group =>   2
Atom  22H    basis set group =>   2
Atom  23C    basis set group =>   1
Atom  24H    basis set group =>   2
Atom  25H    basis set group =>   2
Atom  26C    basis set group =>   1
Atom  27H    basis set group =>   2
Atom  28H    basis set group =>   2
Atom  29C    basis set group =>   1
Atom  30H    basis set group =>   2
Atom  31H    basis set group =>   2
Atom  32C    basis set group =>   1
Atom  33H    basis set group =>   2
Atom  34H    basis set group =>   2
Atom  35C    basis set group =>   1
Atom  36H    basis set group =>   2
Atom  37H    basis set group =>   2
Atom  38C    basis set group =>   1
Atom  39H    basis set group =>   2
Atom  40H    basis set group =>   2
Atom  41C    basis set group =>   1
Atom  42H    basis set group =>   2
Atom  43H    basis set group =>   2
Atom  44C    basis set group =>   1
Atom  45H    basis set group =>   2
Atom  46H    basis set group =>   2
Atom  47H    basis set group =>   2
---------------------------------
AUXILIARY/J BASIS SET INFORMATION
---------------------------------
There are 2 groups of distinct atoms

 Group   1 Type C   : 12s5p4d2f1g contracted to 6s4p3d1f1g pattern {711111/2111/211/2/1}
 Group   2 Type H   : 5s2p1d contracted to 3s1p1d pattern {311/2/1}

Atom   0C    basis set group =>   1
Atom   1C    basis set group =>   1
Atom   2C    basis set group =>   1
Atom   3C    basis set group =>   1
Atom   4C    basis set group =>   1
Atom   5C    basis set group =>   1
Atom   6C    basis set group =>   1
Atom   7C    basis set group =>   1
Atom   8C    basis set group =>   1
Atom   9H    basis set group =>   2
Atom  10H    basis set group =>   2
Atom  11C    basis set group =>   1
Atom  12H    basis set group =>   2
Atom  13H    basis set group =>   2
Atom  14C    basis set group =>   1
Atom  15H    basis set group =>   2
Atom  16H    basis set group =>   2
Atom  17C    basis set group =>   1
Atom  18H    basis set group =>   2
Atom  19H    basis set group =>   2
Atom  20C    basis set group =>   1
Atom  21H    basis set group =>   2
Atom  22H    basis set group =>   2
Atom  23C    basis set group =>   1
Atom  24H    basis set group =>   2
Atom  25H    basis set group =>   2
Atom  26C    basis set group =>   1
Atom  27H    basis set group =>   2
Atom  28H    basis set group =>   2
Atom  29C    basis set group =>   1
Atom  30H    basis set group =>   2
Atom  31H    basis set group =>   2
Atom  32C    basis set group =>   1
Atom  33H    basis set group =>   2
Atom  34H    basis set group =>   2
Atom  35C    basis set group =>   1
Atom  36H    basis set group =>   2
Atom  37H    basis set group =>   2
Atom  38C    basis set group =>   1
Atom  39H    basis set group =>   2
Atom  40H    basis set group =>   2
Atom  41C    basis set group =>   1
Atom  42H    basis set group =>   2
Atom  43H    basis set group =>   2
Atom  44C    basis set group =>   1
Atom  45H    basis set group =>   2
Atom  46H    basis set group =>   2
Atom  47H    basis set group =>   2


           ************************************************************
           *        Program running with 16 parallel MPI-processes    *
           *              working on a common directory               *
           ************************************************************
------------------------------------------------------------------------------
                           ORCA GTO INTEGRAL CALCULATION
                           -- RI-GTO INTEGRALS CHOSEN --
------------------------------------------------------------------------------
------------------------------------------------------------------------------
                   ___                                                        
                  /   \      - P O W E R E D   B Y -                         
                 /     \                                                     
                 |  |  |   _    _      __       _____    __    __             
                 |  |  |  | |  | |    /  \     |  _  \  |  |  /  |          
                  \  \/   | |  | |   /    \    | | | |  |  | /  /          
                 / \  \   | |__| |  /  /\  \   | |_| |  |  |/  /          
                |  |  |   |  __  | /  /__\  \  |    /   |      \           
                |  |  |   | |  | | |   __   |  |    \   |  |\   \          
                \     /   | |  | | |  |  |  |  | |\  \  |  | \   \       
                 \___/    |_|  |_| |__|  |__|  |_| \__\ |__|  \__/        
                                                                              
                      - O R C A' S   B I G   F R I E N D -                    
                                      &                                       
                       - I N T E G R A L  F E E D E R -                       
                                                                              
 v1 FN, 2020, v2 2021                                                         
------------------------------------------------------------------------------


Reading SHARK input file opt_EPRII.SHARKINP.tmp ... ok
----------------------
SHARK INTEGRAL PACKAGE
----------------------

Number of atoms                             ...     48
Number of basis functions                   ...    546
Number of shells                            ...    324
Maximum angular momentum                    ...      2
Integral batch strategy                     ... SHARK/LIBINT Hybrid
RI-J (if used) integral strategy            ... SPLIT-RIJ (Revised 2003 algorithm where possible)
Printlevel                                  ...      1
Contraction scheme used                     ... SEGMENTED contraction
Coulomb Range Separation                    ... NOT USED
Exchange Range Separation                   ... NOT USED
Finite Nucleus Model                        ... NOT USED
Auxiliary Coulomb fitting basis             ... AVAILABLE
   # of basis functions in Aux-J            ...   1326
   # of shells in Aux-J                     ...    450
   Maximum angular momentum in Aux-J        ...      4
Auxiliary J/K fitting basis                 ... NOT available
Auxiliary Correlation fitting basis         ... NOT available
Auxiliary 'external' fitting basis          ... NOT available
Integral threshold                          ...     2.500000e-11
Primitive cut-off                           ...     2.500000e-12
Primitive pair pre-selection threshold      ...     2.500000e-12

Calculating pre-screening integrals         ... done (  0.0 sec) Dimension = 324
Organizing shell pair data                  ... done (  0.2 sec)
Shell pair information
Total number of shell pairs                 ...     52650
Shell pairs after pre-screening             ...     26926
Total number of primitive shell pairs       ...    138492
Primitive shell pairs kept                  ...     50503
          la=0 lb=0:  12528 shell pairs
          la=1 lb=0:   9263 shell pairs
          la=1 lb=1:   1615 shell pairs
          la=2 lb=0:   2491 shell pairs
          la=2 lb=1:    892 shell pairs
          la=2 lb=2:    137 shell pairs

Calculating one electron integrals          ... done (  0.0 sec)
Calculating RI/J V-Matrix + Cholesky decomp.... done (  0.2 sec)
Calculating Nuclear repulsion               ... done (  0.0 sec) ENN=   1441.284606657862 Eh

SHARK setup successfully completed in   1.0 seconds

Maximum memory used throughout the entire GTOINT-calculation: 37.4 MB


           ************************************************************
           *        Program running with 16 parallel MPI-processes    *
           *              working on a common directory               *
           ************************************************************
-------------------------------------------------------------------------------
                                 ORCA SCF
-------------------------------------------------------------------------------

------------
SCF SETTINGS
------------
Hamiltonian:
 Density Functional     Method          .... DFT(GTOs)
 Exchange Functional    Exchange        .... B88
   X-Alpha parameter    XAlpha          ....  0.666667
   Becke's b parameter  XBeta           ....  0.004200
 Correlation Functional Correlation     .... LYP
 LDA part of GGA corr.  LDAOpt          .... VWN-5
 Gradients option       PostSCFGGA      .... off
 Hybrid DFT is turned on
   Fraction HF Exchange ScalHFX         ....  0.200000
   Scaling of DF-GGA-X  ScalDFX         ....  0.720000
   Scaling of DF-GGA-C  ScalDFC         ....  0.810000
   Scaling of DF-LDA-C  ScalLDAC        ....  1.000000
   Perturbative correction              ....  0.000000
   Density functional embedding theory  .... OFF
   NL short-range parameter             ....  4.800000
 RI-approximation to the Coulomb term is turned on
   Number of AuxJ basis functions       .... 1326
   RIJ-COSX (HFX calculated with COS-X)).... on


General Settings:
 Integral files         IntName         .... opt_EPRII
 Hartree-Fock type      HFTyp           .... UHF
 Total Charge           Charge          ....    0
 Multiplicity           Mult            ....    2
 Number of Electrons    NEL             ....  153
 Basis Dimension        Dim             ....  546
 Nuclear Repulsion      ENuc            ....   1441.2846066579 Eh

Convergence Acceleration:
 DIIS                   CNVDIIS         .... on
   Start iteration      DIISMaxIt       ....    12
   Startup error        DIISStart       ....  0.200000
   # of expansion vecs  DIISMaxEq       ....     5
   Bias factor          DIISBfac        ....   1.050
   Max. coefficient     DIISMaxC        ....  10.000
 Trust-Rad. Augm. Hess. CNVTRAH         .... auto
   Auto Start mean grad. ratio tolernc. ....  1.125000
   Auto Start start iteration           ....    20
   Auto Start num. interpolation iter.  ....    10
   Max. Number of Micro iterations      ....    16
   Max. Number of Macro iterations      .... Maxiter - #DIIS iter
   Number of Davidson start vectors     ....     2
   Converg. threshold I  (grad. norm)   ....   1.000e-05
   Converg. threshold II (energy diff.) ....   1.000e-08
   Grad. Scal. Fac. for Micro threshold ....   0.100
   Minimum threshold for Micro iter.    ....   0.010
   NR start threshold (gradient norm)   ....   0.001
   Initial trust radius                 ....   0.400
   Minimum AH scaling param. (alpha)    ....   1.000
   Maximum AH scaling param. (alpha)    .... 1000.000
   Orbital update algorithm             .... Taylor
   White noise on init. David. guess    .... on
   Maximum white noise                  ....   0.010
   Quad. conv. algorithm                .... NR
 SOSCF                  CNVSOSCF        .... off
 Level Shifting         CNVShift        .... on
   Level shift para.    LevelShift      ....    0.2500
   Turn off err/grad.   ShiftErr        ....    0.0010
 Zerner damping         CNVZerner       .... off
 Static damping         CNVDamp         .... on
   Fraction old density DampFac         ....    0.7000
   Max. Damping (<1)    DampMax         ....    0.9800
   Min. Damping (>=0)   DampMin         ....    0.0000
   Turn off err/grad.   DampErr         ....    0.1000
 Fernandez-Rico         CNVRico         .... off

SCF Procedure:
 Maximum # iterations   MaxIter         ....   125
 SCF integral mode      SCFMode         .... Direct
   Integral package                     .... SHARK and LIBINT hybrid scheme
 Reset frequency        DirectResetFreq ....    20
 Integral Threshold     Thresh          ....  2.500e-11 Eh
 Primitive CutOff       TCut            ....  2.500e-12 Eh

Convergence Tolerance:
 Convergence Check Mode ConvCheckMode   .... Total+1el-Energy
 Convergence forced     ConvForced      .... 0
 Energy Change          TolE            ....  1.000e-08 Eh
 1-El. energy change                    ....  1.000e-05 Eh
 DIIS Error             TolErr          ....  5.000e-07


Diagonalization of the overlap matrix:
Smallest eigenvalue                        ... 1.350e-04
Time for diagonalization                   ...    0.084 sec
Threshold for overlap eigenvalues          ... 1.000e-08
Number of eigenvalues below threshold      ... 0
Time for construction of square roots      ...    0.049 sec
Total time needed                          ...    0.135 sec

Time for model grid setup =    0.288 sec

------------------------------
INITIAL GUESS: MODEL POTENTIAL
------------------------------
Loading Hartree-Fock densities                     ... done
Calculating cut-offs                               ... done
Initializing the effective Hamiltonian             ... done
Setting up the integral package (SHARK)            ... done
Starting the Coulomb interaction                   ... done (   0.3 sec)
Reading the grid                                   ... done
Mapping shells                                     ... done
Starting the XC term evaluation                    ... done (   0.1 sec)
  promolecular density results
     # of electrons  =    153.001150862
     EX              =   -115.836141457
     EC              =     -4.990179161
     EX+EC           =   -120.826320618
Transforming the Hamiltonian                       ... done (   0.0 sec)
Diagonalizing the Hamiltonian                      ... done (   0.0 sec)
Back transforming the eigenvectors                 ... done (   0.0 sec)
Now organizing SCF variables                       ... done
                      ------------------
                      INITIAL GUESS DONE (   1.0 sec)
                      ------------------
-------------------
DFT GRID GENERATION
-------------------

General Integration Accuracy     IntAcc      ... 4.388
Radial Grid Type                 RadialGrid  ... OptM3 with GC (2021)
Angular Grid (max. ang.)         AngularGrid ... 4 (Lebedev-302)
Angular grid pruning method      GridPruning ... 4 (adaptive)
Weight generation scheme         WeightScheme... Becke
Basis function cutoff            BFCut       ... 1.0000e-11
Integration weight cutoff        WCut        ... 1.0000e-14
Angular grids for H and He will be reduced by one unit
Partially contracted basis set               ... off
Rotationally invariant grid construction     ... off

Total number of grid points                  ...   211461
Total number of batches                      ...     3328
Average number of points per batch           ...       63
Average number of grid points per atom       ...     4405
Time for grid setup =    1.156 sec

--------------------
COSX GRID GENERATION
--------------------

GRIDX 1
-------
General Integration Accuracy     IntAcc      ... 3.816
Radial Grid Type                 RadialGrid  ... OptM3 with GC (2021)
Angular Grid (max. ang.)         AngularGrid ... 1 (Lebedev-50)
Angular grid pruning method      GridPruning ... 4 (adaptive)
Weight generation scheme         WeightScheme... Becke
Basis function cutoff            BFCut       ... 1.0000e-11
Integration weight cutoff        WCut        ... 1.0000e-14
Angular grids for H and He will be reduced by one unit
Partially contracted basis set               ... on
Rotationally invariant grid construction     ... off

Total number of grid points                  ...    26948
Total number of batches                      ...      452
Average number of points per batch           ...       59
Average number of grid points per atom       ...      561
UseSFitting                                  ... on

GRIDX 2
-------
General Integration Accuracy     IntAcc      ... 4.020
Radial Grid Type                 RadialGrid  ... OptM3 with GC (2021)
Angular Grid (max. ang.)         AngularGrid ... 2 (Lebedev-110)
Angular grid pruning method      GridPruning ... 4 (adaptive)
Weight generation scheme         WeightScheme... Becke
Basis function cutoff            BFCut       ... 1.0000e-11
Integration weight cutoff        WCut        ... 1.0000e-14
Angular grids for H and He will be reduced by one unit
Partially contracted basis set               ... on
Rotationally invariant grid construction     ... off

Total number of grid points                  ...    56897
Total number of batches                      ...      915
Average number of points per batch           ...       62
Average number of grid points per atom       ...     1185
UseSFitting                                  ... on

GRIDX 3
-------
General Integration Accuracy     IntAcc      ... 4.338
Radial Grid Type                 RadialGrid  ... OptM3 with GC (2021)
Angular Grid (max. ang.)         AngularGrid ... 3 (Lebedev-194)
Angular grid pruning method      GridPruning ... 4 (adaptive)
Weight generation scheme         WeightScheme... Becke
Basis function cutoff            BFCut       ... 1.0000e-11
Integration weight cutoff        WCut        ... 1.0000e-14
Angular grids for H and He will be reduced by one unit
Partially contracted basis set               ... on
Rotationally invariant grid construction     ... off

Total number of grid points                  ...   124299
Total number of batches                      ...     1965
Average number of points per batch           ...       63
Average number of grid points per atom       ...     2590
UseSFitting                                  ... on

Time for X-Grid setup             =    2.202 sec

--------------
SCF ITERATIONS
--------------
ITER       Energy         Delta-E        Max-DP      RMS-DP      [F,P]     Damp
               ***  Starting incremental Fock matrix formation  ***
  0   -815.3564640359   0.000000000000 0.05447776  0.00083162  0.0796636 0.7000
  1   -815.5875452448  -0.231081208914 0.03861541  0.00062995  0.0426587 0.7000
                               ***Turning on DIIS***
  2   -815.6908691959  -0.103323951050 0.12153890  0.00136335  0.0177141 0.0000
  3   -815.8335262749  -0.142657079044 0.02578912  0.00035371  0.0233949 0.0000
  4   -815.8739909854  -0.040464710483 0.02863274  0.00020166  0.0048327 0.0000
  5   -815.8756913350  -0.001700349648 0.01733769  0.00010593  0.0014985 0.0000
  6   -815.8758432834  -0.000151948346 0.01025840  0.00006612  0.0006246 0.0000
               *** Restarting incremental Fock matrix formation ***
                                   *** Resetting DIIS ***
  7   -815.8762074942  -0.000364210798 0.00310470  0.00002045  0.0010449 0.0000
  8   -815.8762040564   0.000003437782 0.00066173  0.00000547  0.0012525 0.0000
  9   -815.8762172872  -0.000013230777 0.00049531  0.00000371  0.0004362 0.0000
 10   -815.8762191578  -0.000001870656 0.00010127  0.00000098  0.0000649 0.0000
 11   -815.8762192158  -0.000000057938 0.00003942  0.00000043  0.0000260 0.0000
 12   -815.8762192232  -0.000000007458 0.00004349  0.00000030  0.0000069 0.0000
 13   -815.8762192352  -0.000000011978 0.00002504  0.00000015  0.0000035 0.0000
 14   -815.8762192250   0.000000010185 0.00001483  0.00000011  0.0000021 0.0000
 15   -815.8762192182   0.000000006775 0.00001401  0.00000008  0.0000023 0.0000
 16   -815.8762192068   0.000000011409 0.00000859  0.00000005  0.0000017 0.0000
                            ***DIIS convergence achieved***

               *****************************************************
               *                     SUCCESS                       *
               *           SCF CONVERGED AFTER  17 CYCLES          *
               *****************************************************

Old exchange energy                            =    -23.642645105 Eh
New exchange energy                            =    -23.642556693 Eh
Exchange energy change after final integration =      0.000088412 Eh
Total energy after final integration           =   -815.876130786 Eh
Final COS-X integration done in                =     8.427 sec

----------------
TOTAL SCF ENERGY
----------------

Total Energy       :         -815.87613079 Eh          -22201.11820 eV

Components:
Nuclear Repulsion  :         1441.28460666 Eh           39219.34802 eV
Electronic Energy  :        -2257.16073744 Eh          -61420.46622 eV
One Electron Energy:        -3961.16561193 Eh         -107788.79618 eV
Two Electron Energy:         1704.00487448 Eh           46368.32996 eV
Max COSX asymmetry :            0.00000326 Eh               0.00009 eV

Virial components:
Potential Energy   :        -1625.22987370 Eh          -44224.75321 eV
Kinetic Energy     :          809.35374291 Eh           22023.63500 eV
Virial Ratio       :            2.00805876


DFT components:
N(Alpha)           :       77.000149854890 electrons
N(Beta)            :       76.000160650178 electrons
N(Total)           :      153.000310505068 electrons
E(X)               :      -93.741306462441 Eh       
E(C)               :       -5.898508656968 Eh       
E(XC)              :      -99.639815119410 Eh       
DFET-embed. en.    :        0.000000000000 Eh       

---------------
SCF CONVERGENCE
---------------

  Last Energy change         ...    9.3291e-09  Tolerance :   1.0000e-08
  Last MAX-Density change    ...    0.0000e+00  Tolerance :   1.0000e-07
  Last RMS-Density change    ...    0.0000e+00  Tolerance :   5.0000e-09
  Last DIIS Error            ...    3.0798e-07  Tolerance :   5.0000e-07

             **** THE GBW FILE WAS UPDATED (opt_EPRII.gbw) ****
             **** DENSITY opt_EPRII.scfp WAS UPDATED ****
             **** ENERGY FILE WAS UPDATED (opt_EPRII.en.tmp) ****
----------------------
UHF SPIN CONTAMINATION
----------------------

Warning: in a DFT calculation there is little theoretical justification to 
         calculate <S**2> as in Hartree-Fock theory. We will do it anyways
         but you should keep in mind that the values have only limited relevance

Expectation value of <S**2>     :     0.753832
Ideal value S*(S+1) for S=0.5   :     0.750000
Deviation                       :     0.003832

             **** THE GBW FILE WAS UPDATED (opt_EPRII.gbw) ****
             **** DENSITY opt_EPRII.scfp WAS UPDATED ****
----------------
ORBITAL ENERGIES
----------------
                 SPIN UP ORBITALS
  NO   OCC          E(Eh)            E(eV) 
   0   1.0000     -10.223269      -278.1893 
   1   1.0000     -10.223254      -278.1889 
   2   1.0000     -10.211480      -277.8685 
   3   1.0000     -10.211446      -277.8676 
   4   1.0000     -10.206232      -277.7257 
   5   1.0000     -10.206224      -277.7255 
   6   1.0000     -10.199815      -277.5511 
   7   1.0000     -10.199777      -277.5500 
   8   1.0000     -10.198029      -277.5025 
   9   1.0000     -10.198018      -277.5022 
  10   1.0000     -10.188854      -277.2528 
  11   1.0000     -10.188539      -277.2442 
  12   1.0000     -10.188246      -277.2363 
  13   1.0000     -10.185819      -277.1702 
  14   1.0000     -10.183421      -277.1050 
  15   1.0000     -10.182833      -277.0890 
  16   1.0000     -10.182451      -277.0786 
  17   1.0000     -10.182371      -277.0764 
  18   1.0000     -10.181039      -277.0402 
  19   1.0000     -10.180182      -277.0168 
  20   1.0000     -10.173237      -276.8278 
  21   1.0000      -0.874857       -23.8061 
  22   1.0000      -0.818416       -22.2702 
  23   1.0000      -0.804690       -21.8967 
  24   1.0000      -0.794940       -21.6314 
  25   1.0000      -0.784124       -21.3371 
  26   1.0000      -0.761680       -20.7264 
  27   1.0000      -0.753899       -20.5146 
  28   1.0000      -0.732090       -19.9212 
  29   1.0000      -0.722158       -19.6509 
  30   1.0000      -0.705295       -19.1921 
  31   1.0000      -0.669685       -18.2230 
  32   1.0000      -0.642373       -17.4799 
  33   1.0000      -0.636395       -17.3172 
  34   1.0000      -0.610378       -16.6092 
  35   1.0000      -0.589382       -16.0379 
  36   1.0000      -0.577130       -15.7045 
  37   1.0000      -0.570726       -15.5302 
  38   1.0000      -0.563102       -15.3228 
  39   1.0000      -0.543700       -14.7948 
  40   1.0000      -0.526669       -14.3314 
  41   1.0000      -0.499832       -13.6011 
  42   1.0000      -0.485542       -13.2123 
  43   1.0000      -0.480835       -13.0842 
  44   1.0000      -0.475848       -12.9485 
  45   1.0000      -0.470272       -12.7968 
  46   1.0000      -0.460302       -12.5255 
  47   1.0000      -0.430827       -11.7234 
  48   1.0000      -0.428362       -11.6563 
  49   1.0000      -0.426697       -11.6110 
  50   1.0000      -0.420118       -11.4320 
  51   1.0000      -0.419764       -11.4224 
  52   1.0000      -0.412289       -11.2189 
  53   1.0000      -0.401845       -10.9348 
  54   1.0000      -0.392155       -10.6711 
  55   1.0000      -0.388837       -10.5808 
  56   1.0000      -0.373882       -10.1738 
  57   1.0000      -0.373152       -10.1540 
  58   1.0000      -0.363070        -9.8796 
  59   1.0000      -0.359321        -9.7776 
  60   1.0000      -0.354009        -9.6331 
  61   1.0000      -0.342299        -9.3144 
  62   1.0000      -0.341450        -9.2913 
  63   1.0000      -0.330204        -8.9853 
  64   1.0000      -0.329450        -8.9648 
  65   1.0000      -0.326425        -8.8825 
  66   1.0000      -0.323234        -8.7957 
  67   1.0000      -0.323174        -8.7940 
  68   1.0000      -0.320264        -8.7148 
  69   1.0000      -0.318415        -8.6645 
  70   1.0000      -0.316395        -8.6096 
  71   1.0000      -0.281114        -7.6495 
  72   1.0000      -0.278179        -7.5696 
  73   1.0000      -0.276980        -7.5370 
  74   1.0000      -0.246820        -6.7163 
  75   1.0000      -0.220907        -6.0112 
  76   1.0000      -0.198991        -5.4148 
  77   0.0000      -0.053623        -1.4592 
  78   0.0000      -0.005582        -0.1519 
  79   0.0000       0.018742         0.5100 
  80   0.0000       0.021469         0.5842 
  81   0.0000       0.024189         0.6582 
  82   0.0000       0.029590         0.8052 
  83   0.0000       0.032495         0.8842 
  84   0.0000       0.037240         1.0134 
  85   0.0000       0.038779         1.0552 
  86   0.0000       0.042154         1.1471 
  87   0.0000       0.043316         1.1787 
  88   0.0000       0.044253         1.2042 
  89   0.0000       0.045362         1.2344 
  90   0.0000       0.052026         1.4157 
  91   0.0000       0.059069         1.6073 
  92   0.0000       0.071703         1.9511 
  93   0.0000       0.081722         2.2238 
  94   0.0000       0.089602         2.4382 
  95   0.0000       0.095938         2.6106 
  96   0.0000       0.105276         2.8647 
  97   0.0000       0.108017         2.9393 
  98   0.0000       0.116049         3.1578 
  99   0.0000       0.126140         3.4324 
 100   0.0000       0.147577         4.0158 
 101   0.0000       0.151579         4.1247 
 102   0.0000       0.153348         4.1728 
 103   0.0000       0.155558         4.2329 
 104   0.0000       0.159176         4.3314 
 105   0.0000       0.165218         4.4958 
 106   0.0000       0.166881         4.5411 
 107   0.0000       0.176923         4.8143 
 108   0.0000       0.182495         4.9659 
 109   0.0000       0.186026         5.0620 
 110   0.0000       0.191634         5.2146 
 111   0.0000       0.192917         5.2495 
 112   0.0000       0.193157         5.2561 
 113   0.0000       0.198194         5.3931 
 114   0.0000       0.200236         5.4487 
 115   0.0000       0.205983         5.6051 
 116   0.0000       0.213452         5.8083 
 117   0.0000       0.214659         5.8412 
 118   0.0000       0.215749         5.8708 
 119   0.0000       0.220415         5.9978 
 120   0.0000       0.222207         6.0465 
 121   0.0000       0.225442         6.1346 
 122   0.0000       0.231637         6.3032 
 123   0.0000       0.237718         6.4686 
 124   0.0000       0.247863         6.7447 
 125   0.0000       0.248802         6.7703 
 126   0.0000       0.251023         6.8307 
 127   0.0000       0.253071         6.8864 
 128   0.0000       0.256850         6.9893 
 129   0.0000       0.261610         7.1188 
 130   0.0000       0.264109         7.1868 
 131   0.0000       0.271752         7.3947 
 132   0.0000       0.277686         7.5562 
 133   0.0000       0.279311         7.6005 
 134   0.0000       0.279502         7.6056 
 135   0.0000       0.285411         7.7664 
 136   0.0000       0.290312         7.8998 
 137   0.0000       0.291575         7.9342 
 138   0.0000       0.295062         8.0290 
 139   0.0000       0.299206         8.1418 
 140   0.0000       0.301119         8.1939 
 141   0.0000       0.307291         8.3618 
 142   0.0000       0.308845         8.4041 
 143   0.0000       0.310716         8.4550 
 144   0.0000       0.314866         8.5679 
 145   0.0000       0.317545         8.6408 
 146   0.0000       0.319586         8.6964 
 147   0.0000       0.321033         8.7358 
 148   0.0000       0.325681         8.8622 
 149   0.0000       0.328729         8.9452 
 150   0.0000       0.332207         9.0398 
 151   0.0000       0.341363         9.2890 
 152   0.0000       0.346705         9.4343 
 153   0.0000       0.350405         9.5350 
 154   0.0000       0.353448         9.6178 
 155   0.0000       0.359937         9.7944 
 156   0.0000       0.363941         9.9033 
 157   0.0000       0.367530        10.0010 
 158   0.0000       0.370381        10.0786 
 159   0.0000       0.376221        10.2375 
 160   0.0000       0.376696        10.2504 
 161   0.0000       0.385847        10.4994 
 162   0.0000       0.395008        10.7487 
 163   0.0000       0.402008        10.9392 
 164   0.0000       0.404138        10.9972 
 165   0.0000       0.405336        11.0297 
 166   0.0000       0.409866        11.1530 
 167   0.0000       0.417683        11.3657 
 168   0.0000       0.418064        11.3761 
 169   0.0000       0.425952        11.5907 
 170   0.0000       0.429280        11.6813 
 171   0.0000       0.429565        11.6891 
 172   0.0000       0.441849        12.0233 
 173   0.0000       0.443805        12.0766 
 174   0.0000       0.452104        12.3024 
 175   0.0000       0.456850        12.4315 
 176   0.0000       0.460490        12.5306 
 177   0.0000       0.463413        12.6101 
 178   0.0000       0.471208        12.8222 
 179   0.0000       0.474336        12.9073 
 180   0.0000       0.475921        12.9505 
 181   0.0000       0.482702        13.1350 
 182   0.0000       0.500465        13.6183 
 183   0.0000       0.504358        13.7243 
 184   0.0000       0.509208        13.8562 
 185   0.0000       0.513812        13.9815 
 186   0.0000       0.517376        14.0785 
 187   0.0000       0.519793        14.1443 
 188   0.0000       0.536606        14.6018 
 189   0.0000       0.537973        14.6390 
 190   0.0000       0.540488        14.7074 
 191   0.0000       0.542618        14.7654 
 192   0.0000       0.550249        14.9730 
 193   0.0000       0.552617        15.0375 
 194   0.0000       0.568872        15.4798 
 195   0.0000       0.581451        15.8221 
 196   0.0000       0.582773        15.8581 
 197   0.0000       0.583444        15.8763 
 198   0.0000       0.588331        16.0093 
 199   0.0000       0.595852        16.2140 
 200   0.0000       0.605820        16.4852 
 201   0.0000       0.610874        16.6227 
 202   0.0000       0.618900        16.8411 
 203   0.0000       0.636689        17.3252 
 204   0.0000       0.654450        17.8085 
 205   0.0000       0.660695        17.9784 
 206   0.0000       0.673695        18.3322 
 207   0.0000       0.683617        18.6022 
 208   0.0000       0.711388        19.3578 
 209   0.0000       0.725775        19.7494 
 210   0.0000       0.742646        20.2084 
 211   0.0000       0.771752        21.0004 
 212   0.0000       0.774760        21.0823 
 213   0.0000       0.795986        21.6599 
 214   0.0000       0.800230        21.7754 
 215   0.0000       0.810738        22.0613 
 216   0.0000       0.829949        22.5841 
 217   0.0000       0.836307        22.7571 
 218   0.0000       0.845376        23.0039 
 219   0.0000       0.845747        23.0139 
 220   0.0000       0.851653        23.1747 
 221   0.0000       0.861656        23.4469 
 222   0.0000       0.862788        23.4777 
 223   0.0000       0.866159        23.5694 
 224   0.0000       0.879007        23.9190 
 225   0.0000       0.881789        23.9947 
 226   0.0000       0.888313        24.1722 
 227   0.0000       0.900654        24.5080 
 228   0.0000       0.900721        24.5099 
 229   0.0000       0.908157        24.7122 
 230   0.0000       0.918135        24.9837 
 231   0.0000       0.920515        25.0485 
 232   0.0000       0.921684        25.0803 
 233   0.0000       0.924470        25.1561 
 234   0.0000       0.924942        25.1690 
 235   0.0000       0.927429        25.2366 
 236   0.0000       0.937824        25.5195 
 237   0.0000       0.944730        25.7074 
 238   0.0000       0.944966        25.7138 
 239   0.0000       0.966053        26.2876 
 240   0.0000       0.967825        26.3359 
 241   0.0000       0.971608        26.4388 
 242   0.0000       0.972883        26.4735 
 243   0.0000       0.979556        26.6551 
 244   0.0000       0.987000        26.8576 
 245   0.0000       0.990747        26.9596 
 246   0.0000       0.991334        26.9756 
 247   0.0000       0.996855        27.1258 
 248   0.0000       1.000819        27.2337 
 249   0.0000       1.012072        27.5399 
 250   0.0000       1.014028        27.5931 
 251   0.0000       1.029927        28.0257 
 252   0.0000       1.031168        28.0595 
 253   0.0000       1.032588        28.0981 
 254   0.0000       1.033541        28.1241 
 255   0.0000       1.039354        28.2823 
 256   0.0000       1.045584        28.4518 
 257   0.0000       1.049564        28.5601 
 258   0.0000       1.058968        28.8160 
 259   0.0000       1.068547        29.0766 
 260   0.0000       1.080943        29.4140 
 261   0.0000       1.092837        29.7376 
 262   0.0000       1.104528        30.0557 
 263   0.0000       1.105663        30.0866 
 264   0.0000       1.107263        30.1301 
 265   0.0000       1.113905        30.3109 
 266   0.0000       1.132183        30.8083 
 267   0.0000       1.141465        31.0608 
 268   0.0000       1.151866        31.3439 
 269   0.0000       1.152519        31.3616 
 270   0.0000       1.157250        31.4904 
 271   0.0000       1.160627        31.5823 
 272   0.0000       1.176504        32.0143 
 273   0.0000       1.186009        32.2729 
 274   0.0000       1.190302        32.3898 
 275   0.0000       1.190509        32.3954 
 276   0.0000       1.201978        32.7075 
 277   0.0000       1.206070        32.8188 
 278   0.0000       1.210502        32.9394 
 279   0.0000       1.212942        33.0058 
 280   0.0000       1.223807        33.3015 
 281   0.0000       1.233065        33.5534 
 282   0.0000       1.236597        33.6495 
 283   0.0000       1.244543        33.8657 
 284   0.0000       1.245991        33.9052 
 285   0.0000       1.256224        34.1836 
 286   0.0000       1.267816        34.4990 
 287   0.0000       1.278595        34.7923 
 288   0.0000       1.294031        35.2124 
 289   0.0000       1.295801        35.2605 
 290   0.0000       1.304984        35.5104 
 291   0.0000       1.308741        35.6127 
 292   0.0000       1.314241        35.7623 
 293   0.0000       1.342955        36.5437 
 294   0.0000       1.350950        36.7612 
 295   0.0000       1.355896        36.8958 
 296   0.0000       1.368887        37.2493 
 297   0.0000       1.378263        37.5045 
 298   0.0000       1.380662        37.5697 
 299   0.0000       1.385420        37.6992 
 300   0.0000       1.392035        37.8792 
 301   0.0000       1.396013        37.9874 
 302   0.0000       1.402264        38.1575 
 303   0.0000       1.410585        38.3840 
 304   0.0000       1.414263        38.4840 
 305   0.0000       1.427538        38.8453 
 306   0.0000       1.439407        39.1683 
 307   0.0000       1.445188        39.3256 
 308   0.0000       1.449018        39.4298 
 309   0.0000       1.453598        39.5544 
 310   0.0000       1.466235        39.8983 
 311   0.0000       1.489308        40.5261 
 312   0.0000       1.498790        40.7842 
 313   0.0000       1.503334        40.9078 
 314   0.0000       1.505532        40.9676 
 315   0.0000       1.518399        41.3177 
 316   0.0000       1.525342        41.5067 
 317   0.0000       1.526527        41.5389 
 318   0.0000       1.529193        41.6114 
 319   0.0000       1.551543        42.2196 
 320   0.0000       1.557960        42.3943 
 321   0.0000       1.560196        42.4551 
 322   0.0000       1.579005        42.9669 
 323   0.0000       1.580342        43.0033 
 324   0.0000       1.583629        43.0927 
 325   0.0000       1.586878        43.1811 
 326   0.0000       1.597222        43.4626 
 327   0.0000       1.598946        43.5095 
 328   0.0000       1.603938        43.6454 
 329   0.0000       1.609701        43.8022 
 330   0.0000       1.612137        43.8685 
 331   0.0000       1.613438        43.9039 
 332   0.0000       1.625120        44.2218 
 333   0.0000       1.627337        44.2821 
 334   0.0000       1.639640        44.6169 
 335   0.0000       1.639946        44.6252 
 336   0.0000       1.654046        45.0089 
 337   0.0000       1.660273        45.1783 
 338   0.0000       1.676941        45.6319 
 339   0.0000       1.680576        45.7308 
 340   0.0000       1.687031        45.9065 
[...]

SPIN
  0 C s       :     0.000000  s :     0.000000
      pz      :     0.000000  p :     0.000000
      px      :     0.000000
      py      :    -0.000000
      dz2     :    -0.000000  d :    -0.000000
      dxz     :    -0.000000
      dyz     :    -0.000000
      dx2y2   :     0.000000
      dxy     :     0.000000
  1 C s       :     0.000000  s :     0.000000
      pz      :    -0.000000  p :    -0.000000
      px      :     0.000000
      py      :    -0.000000
      dz2     :    -0.000000  d :     0.000000
      dxz     :     0.000000
      dyz     :    -0.000000
      dx2y2   :    -0.000000
      dxy     :    -0.000000
  2 C s       :     0.000000  s :     0.000000
      pz      :     0.000001  p :     0.000002
      px      :     0.000000
      py      :     0.000001
      dz2     :     0.000000  d :    -0.000000
      dxz     :    -0.000000
      dyz     :    -0.000000
      dx2y2   :     0.000000
      dxy     :    -0.000000
  3 C s       :     0.000000  s :     0.000000
      pz      :     0.000001  p :     0.000001
      px      :     0.000000
      py      :    -0.000000
      dz2     :    -0.000000  d :    -0.000000
      dxz     :    -0.000000
      dyz     :    -0.000000
      dx2y2   :     0.000000
      dxy     :    -0.000000
  4 C s       :     0.000000  s :     0.000000
      pz      :    -0.000003  p :    -0.000003
      px      :    -0.000000
      py      :    -0.000000
      dz2     :     0.000000  d :     0.000000
      dxz     :     0.000000
      dyz     :     0.000000
      dx2y2   :     0.000000
      dxy     :     0.000000
  5 C s       :     0.000001  s :     0.000001
      pz      :     0.000001  p :     0.000004
      px      :     0.000001
      py      :     0.000002
      dz2     :     0.000000  d :     0.000001
      dxz     :    -0.000000
      dyz     :    -0.000000
      dx2y2   :     0.000001
      dxy     :     0.000000
  6 C s       :     0.000005  s :     0.000005
      pz      :    -0.000002  p :     0.000009
      px      :     0.000002
      py      :     0.000009
      dz2     :     0.000001  d :     0.000005
      dxz     :     0.000000
      dyz     :     0.000000
      dx2y2   :     0.000003
      dxy     :     0.000001
  7 C s       :     0.000022  s :     0.000022
      pz      :     0.000008  p :     0.000062
      px      :     0.000013
      py      :     0.000042
      dz2     :     0.000001  d :     0.000014
      dxz     :    -0.000000
      dyz     :    -0.000000
      dx2y2   :     0.000010
      dxy     :     0.000002
  8 C s       :     0.000002  s :     0.000002
      pz      :    -0.000004  p :    -0.000002
      px      :    -0.000001
      py      :     0.000003
      dz2     :     0.000000  d :     0.000002
      dxz     :     0.000000
      dyz     :    -0.000000
      dx2y2   :     0.000001
      dxy     :     0.000001
  9 H s       :     0.000002  s :     0.000002
      pz      :     0.000000  p :     0.000000
      px      :     0.000000
      py      :     0.000000
 10 H s       :     0.000000  s :     0.000000
      pz      :    -0.000000  p :     0.000001
      px      :    -0.000000
      py      :     0.000001
 11 C s       :     0.000000  s :     0.000000
      pz      :    -0.000000  p :     0.000000
      px      :     0.000000
      py      :     0.000000
      dz2     :    -0.000000  d :    -0.000000
      dxz     :    -0.000000
      dyz     :    -0.000000
      dx2y2   :    -0.000000
      dxy     :    -0.000000
 12 H s       :    -0.000000  s :    -0.000000
      pz      :     0.000000  p :     0.000000
      px      :     0.000000
      py      :    -0.000000
 13 H s       :    -0.000000  s :    -0.000000
      pz      :     0.000000  p :     0.000000
      px      :     0.000000
      py      :    -0.000000
 14 C s       :     0.000000  s :     0.000000
      pz      :     0.000000  p :     0.000000
      px      :     0.000000
      py      :     0.000000
      dz2     :     0.000000  d :     0.000000
      dxz     :    -0.000000
      dyz     :     0.000000
      dx2y2   :     0.000000
      dxy     :     0.000000
 15 H s       :     0.000000  s :     0.000000
      pz      :     0.000000  p :     0.000000
      px      :     0.000000
      py      :     0.000000
 16 H s       :     0.000000  s :     0.000000
      pz      :     0.000000  p :     0.000000
      px      :     0.000000
      py      :     0.000000
 17 C s       :     0.000000  s :     0.000000
      pz      :    -0.000000  p :     0.000000
      px      :     0.000000
      py      :     0.000000
      dz2     :     0.000000  d :     0.000000
      dxz     :    -0.000000
      dyz     :    -0.000000
      dx2y2   :    -0.000000
      dxy     :     0.000000
 18 H s       :     0.000000  s :     0.000000
      pz      :     0.000000  p :     0.000000
      px      :     0.000000
      py      :     0.000000
 19 H s       :    -0.000000  s :    -0.000000
      pz      :     0.000000  p :     0.000000
      px      :     0.000000
      py      :     0.000000
 20 C s       :     0.000000  s :     0.000000
      pz      :    -0.000000  p :     0.000000
      px      :     0.000000
      py      :    -0.000000
      dz2     :     0.000000  d :     0.000000
      dxz     :    -0.000000
      dyz     :    -0.000000
      dx2y2   :     0.000000
      dxy     :     0.000000
 21 H s       :    -0.000000  s :    -0.000000
      pz      :     0.000000  p :     0.000000
      px      :     0.000000
      py      :     0.000000
 22 H s       :     0.000000  s :     0.000000
      pz      :     0.000000  p :     0.000000
      px      :     0.000000
      py      :     0.000000
 23 C s       :     0.000037  s :     0.000037
      pz      :     0.000006  p :     0.000151
      px      :     0.000047
      py      :     0.000098
      dz2     :     0.000007  d :     0.000046
      dxz     :    -0.000001
      dyz     :     0.000001
      dx2y2   :     0.000032
      dxy     :     0.000008
 24 H s       :    -0.000003  s :    -0.000003
      pz      :     0.000000  p :     0.000004
      px      :     0.000001
      py      :     0.000003
 25 H s       :    -0.000003  s :    -0.000003
      pz      :     0.000000  p :     0.000004
      px      :     0.000001
      py      :     0.000003
 26 C s       :     0.000234  s :     0.000234
      pz      :     0.000039  p :     0.000945
      px      :     0.000274
      py      :     0.000632
      dz2     :     0.000015  d :     0.000065
      dxz     :    -0.000007
      dyz     :     0.000001
      dx2y2   :     0.000042
      dxy     :     0.000014
 27 H s       :    -0.000030  s :    -0.000030
      pz      :     0.000003  p :     0.000020
      px      :     0.000011
      py      :     0.000007
 28 H s       :    -0.000030  s :    -0.000030
      pz      :     0.000002  p :     0.000021
      px      :     0.000011
      py      :     0.000007
 29 C s       :     0.000156  s :     0.000156
      pz      :     0.000017  p :     0.000682
      px      :     0.000012
      py      :     0.000653
      dz2     :     0.000079  d :     0.000559
      dxz     :    -0.000001
      dyz     :     0.000005
      dx2y2   :     0.000236
      dxy     :     0.000241
 30 H s       :     0.000066  s :     0.000066
      pz      :     0.000000  p :    -0.000011
      px      :     0.000000
      py      :    -0.000011
 31 H s       :     0.000065  s :     0.000065
      pz      :     0.000000  p :    -0.000011
      px      :     0.000000
      py      :    -0.000011
 32 C s       :     0.000777  s :     0.000777
      pz      :     0.000204  p :     0.005672
      px      :     0.002206
      py      :     0.003262
      dz2     :     0.000067  d :     0.000738
      dxz     :    -0.000025
      dyz     :     0.000017
      dx2y2   :     0.000732
      dxy     :    -0.000053
 33 H s       :    -0.000212  s :    -0.000212
      pz      :     0.000040  p :     0.000233
      px      :     0.000011
      py      :     0.000181
 34 H s       :    -0.000212  s :    -0.000212
      pz      :     0.000036  p :     0.000233
      px      :     0.000011
      py      :     0.000185
 35 C s       :     0.017730  s :     0.017730
      pz      :     0.001792  p :     0.040565
      px      :     0.007314
      py      :     0.031459
      dz2     :     0.000200  d :     0.000181
      dxz     :    -0.000276
      dyz     :    -0.000026
      dx2y2   :    -0.000400
      dxy     :     0.000684
 36 H s       :    -0.001208  s :    -0.001208
      pz      :     0.000219  p :     0.001302
      px      :     0.000610
      py      :     0.000474
 37 H s       :    -0.001205  s :    -0.001205
      pz      :     0.000222  p :     0.001302
      px      :     0.000591
      py      :     0.000489
 38 C s       :    -0.004166  s :    -0.004166
      pz      :    -0.003022  p :    -0.019377
      px      :    -0.008024
      py      :    -0.008331
      dz2     :     0.002531  d :     0.034884
      dxz     :     0.000567
      dyz     :     0.000188
      dx2y2   :     0.022156
      dxy     :     0.009441
 39 H s       :     0.010273  s :     0.010273
      pz      :    -0.000239  p :    -0.000764
      px      :     0.000059
      py      :    -0.000584
 40 H s       :     0.010301  s :     0.010301
      pz      :    -0.000222  p :    -0.000764
      px      :     0.000047
      py      :    -0.000589
 41 C s       :     0.027455  s :     0.027455
      pz      :     0.014924  p :     0.863544
      px      :     0.523468
      py      :     0.325152
      dz2     :    -0.001239  d :    -0.003605
      dxz     :    -0.000579
      dyz     :    -0.000454
      dx2y2   :     0.000523
      dxy     :    -0.001856
 42 H s       :    -0.020369  s :    -0.020369
      pz      :     0.002751  p :     0.026984
      px      :     0.014431
      py      :     0.009802
 43 H s       :    -0.020370  s :    -0.020370
      pz      :     0.002640  p :     0.026985
      px      :     0.014475
      py      :     0.009870
 44 C s       :    -0.000000  s :    -0.000000
      pz      :    -0.000002  p :    -0.000003
      px      :    -0.000000
      py      :    -0.000001
      dz2     :     0.000000  d :     0.000000
      dxz     :     0.000000
      dyz     :     0.000000
      dx2y2   :     0.000000
      dxy     :     0.000000
 45 H s       :     0.000000  s :     0.000000
      pz      :     0.000000  p :     0.000000
      px      :     0.000000
      py      :    -0.000000
 46 H s       :     0.000000  s :     0.000000
      pz      :    -0.000000  p :    -0.000000
      px      :    -0.000000
      py      :    -0.000000
 47 H s       :    -0.000000  s :    -0.000000
      pz      :     0.000000  p :     0.000000
      px      :     0.000000
      py      :     0.000000


                      *****************************
                      * MAYER POPULATION ANALYSIS *
                      *****************************

  NA   - Mulliken gross atomic population
  ZA   - Total nuclear charge
  QA   - Mulliken gross atomic charge
  VA   - Mayer's total valence
  BVA  - Mayer's bonded valence
  FA   - Mayer's free valence

  ATOM       NA         ZA         QA         VA         BVA        FA
  0 C      6.5386     6.0000    -0.5386     3.8878     3.8878     0.0000
  1 C      6.0045     6.0000    -0.0045     3.8122     3.8122     0.0000
  2 C      6.0034     6.0000    -0.0034     3.8164     3.8164     0.0000
  3 C      5.6125     6.0000     0.3875     3.9328     3.9328     0.0000
  4 C      5.6725     6.0000     0.3275     3.8348     3.8348     0.0000
  5 C      6.4145     6.0000    -0.4145     4.2983     4.2983     0.0000
  6 C      5.6083     6.0000     0.3917     3.9421     3.9421     0.0000
  7 C      5.6729     6.0000     0.3271     3.8091     3.8091     0.0000
  8 C      6.4137     6.0000    -0.4137     4.3035     4.3035     0.0000
  9 H      0.8649     1.0000     0.1351     0.9657     0.9657    -0.0000
 10 H      0.8648     1.0000     0.1352     0.9661     0.9661     0.0000
 11 C      6.3899     6.0000    -0.3899     4.0546     4.0546     0.0000
 12 H      0.8444     1.0000     0.1556     0.9621     0.9621     0.0000
 13 H      0.8444     1.0000     0.1556     0.9622     0.9622     0.0000
 14 C      6.2678     6.0000    -0.2678     4.0139     4.0139     0.0000
 15 H      0.8584     1.0000     0.1416     0.9663     0.9663     0.0000
 16 H      0.8581     1.0000     0.1419     0.9662     0.9662     0.0000
 17 C      6.2626     6.0000    -0.2626     3.8885     3.8885     0.0000
 18 H      0.8552     1.0000     0.1448     0.9669     0.9669     0.0000
 19 H      0.8551     1.0000     0.1449     0.9669     0.9669     0.0000
 20 C      6.5103     6.0000    -0.5103     3.9007     3.9007     0.0000
 21 H      0.8403     1.0000     0.1597     0.9653     0.9653     0.0000
 22 H      0.8404     1.0000     0.1596     0.9653     0.9653    -0.0000
 23 C      6.4027     6.0000    -0.4027     4.0557     4.0557    -0.0000
 24 H      0.8419     1.0000     0.1581     0.9623     0.9623     0.0000
 25 H      0.8423     1.0000     0.1577     0.9625     0.9625     0.0000
 26 C      6.2703     6.0000    -0.2703     3.9712     3.9712     0.0000
 27 H      0.8546     1.0000     0.1454     0.9670     0.9670     0.0000
 28 H      0.8556     1.0000     0.1444     0.9673     0.9673     0.0000
 29 C      6.2893     6.0000    -0.2893     3.9361     3.9361    -0.0000
 30 H      0.8542     1.0000     0.1458     0.9685     0.9685     0.0000
 31 H      0.8543     1.0000     0.1457     0.9685     0.9685     0.0000
 32 C      6.2880     6.0000    -0.2880     3.9325     3.9324     0.0001
 33 H      0.8521     1.0000     0.1479     0.9692     0.9692     0.0000
 34 H      0.8521     1.0000     0.1479     0.9692     0.9692     0.0000
 35 C      6.3083     6.0000    -0.3083     3.9072     3.9024     0.0048
 36 H      0.8412     1.0000     0.1588     0.9661     0.9661     0.0000
 37 H      0.8412     1.0000     0.1588     0.9661     0.9661     0.0000
 38 C      6.2302     6.0000    -0.2302     3.8788     3.8768     0.0020
 39 H      0.8499     1.0000     0.1501     0.9680     0.9679     0.0001
 40 H      0.8500     1.0000     0.1500     0.9680     0.9679     0.0001
 41 C      6.4350     6.0000    -0.4350     3.8504     2.9888     0.8616
 42 H      0.8321     1.0000     0.1679     0.9699     0.9679     0.0020
 43 H      0.8321     1.0000     0.1679     0.9699     0.9679     0.0020
 44 C      6.5372     6.0000    -0.5372     3.8886     3.8886     0.0000
 45 H      0.8160     1.0000     0.1840     0.9772     0.9772     0.0000
 46 H      0.8161     1.0000     0.1839     0.9772     0.9772     0.0000
 47 H      0.8555     1.0000     0.1445     0.9667     0.9667    -0.0000

  Mayer bond orders larger than 0.100000
B(  0-C ,  1-C ) :   2.7074 B(  0-C , 45-H ) :   0.9834 B(  1-C ,  3-C ) :   0.9082 
B(  2-C ,  6-C ) :   0.9150 B(  2-C , 44-C ) :   2.7042 B(  3-C ,  4-C ) :   1.3673 
B(  3-C ,  5-C ) :   0.1133 B(  3-C ,  8-C ) :   1.4163 B(  4-C ,  5-C ) :   1.4386 
B(  4-C , 11-C ) :   0.9438 B(  5-C ,  6-C ) :   1.4224 B(  5-C ,  9-H ) :   0.9703 
B(  6-C ,  7-C ) :   1.3569 B(  6-C ,  8-C ) :   0.1123 B(  7-C ,  8-C ) :   1.4426 
B(  7-C , 23-C ) :   0.9368 B(  8-C , 10-H ) :   0.9709 B( 11-C , 12-H ) :   0.9607 
B( 11-C , 13-H ) :   0.9605 B( 11-C , 14-C ) :   1.0198 B( 14-C , 15-H ) :   0.9612 
B( 14-C , 16-H ) :   0.9616 B( 14-C , 17-C ) :   0.9858 B( 17-C , 18-H ) :   0.9717 
B( 17-C , 19-H ) :   0.9719 B( 17-C , 20-C ) :   0.9544 B( 20-C , 21-H ) :   0.9730 
B( 20-C , 22-H ) :   0.9730 B( 20-C , 47-H ) :   0.9678 B( 23-C , 24-H ) :   0.9620 
B( 23-C , 25-H ) :   0.9617 B( 23-C , 26-C ) :   1.0100 B( 26-C , 27-H ) :   0.9623 
B( 26-C , 28-H ) :   0.9614 B( 26-C , 29-C ) :   0.9684 B( 29-C , 30-H ) :   0.9768 
B( 29-C , 31-H ) :   0.9766 B( 29-C , 32-C ) :   0.9692 B( 32-C , 33-H ) :   0.9808 
B( 32-C , 34-H ) :   0.9807 B( 32-C , 35-C ) :   0.9548 B( 35-C , 36-H ) :   0.9792 
B( 35-C , 37-H ) :   0.9792 B( 35-C , 38-C ) :   0.9352 B( 38-C , 39-H ) :   0.9781 
B( 38-C , 40-H ) :   0.9781 B( 38-C , 41-C ) :   0.9734 B( 41-C , 42-H ) :   0.9738 
B( 41-C , 43-H ) :   0.9738 B( 44-C , 46-H ) :   0.9833 

-------
TIMINGS
-------

Total SCF time: 0 days 0 hours 1 min 8 sec 

Total time                  ....      68.798 sec
Sum of individual times     ....      64.955 sec  ( 94.4%)

Fock matrix formation       ....      57.991 sec  ( 84.3%)
  Split-RI-J                ....       4.552 sec  (  7.9% of F)
  Chain of spheres X        ....      37.074 sec  ( 63.9% of F)
  XC integration            ....      11.865 sec  ( 20.5% of F)
    Basis function eval.    ....       0.910 sec  (  7.7% of XC)
    Density eval.           ....       1.439 sec  ( 12.1% of XC)
    XC-Functional eval.     ....       0.244 sec  (  2.1% of XC)
    XC-Potential eval.      ....       0.779 sec  (  6.6% of XC)
Diagonalization             ....       1.536 sec  (  2.2%)
Density matrix formation    ....       0.145 sec  (  0.2%)
Population analysis         ....       0.417 sec  (  0.6%)
Initial guess               ....       0.235 sec  (  0.3%)
Orbital Transformation      ....       0.000 sec  (  0.0%)
Orbital Orthonormalization  ....       0.182 sec  (  0.3%)
DIIS solution               ....       1.031 sec  (  1.5%)
Grid generation             ....       3.600 sec  (  5.2%)

Maximum memory used throughout the entire SCF-calculation: 124.2 MB

-------------------------   --------------------
FINAL SINGLE POINT ENERGY      -815.877327442482
-------------------------   --------------------

                                *** OPTIMIZATION RUN DONE ***

                            ***************************************
                            *     ORCA property calculations      *
                            ***************************************

                                    ---------------------
                                    Active property flags
                                    ---------------------
   (+) Dipole Moment


------------------------------------------------------------------------------
                       ORCA ELECTRIC PROPERTIES CALCULATION
------------------------------------------------------------------------------

Dipole Moment Calculation                       ... on
Quadrupole Moment Calculation                   ... off
Polarizability Calculation                      ... off
GBWName                                         ... opt_EPRII.gbw
Electron density                                ... opt_EPRII.scfp
The origin for moment calculation is the CENTER OF MASS  = ( 0.445777,  2.472134 -0.160502)

-------------
DIPOLE MOMENT
-------------
                                X             Y             Z
Electronic contribution:     -2.08928     -10.82348      -0.11996
Nuclear contribution   :      2.07086      10.67733       0.11733
                        -----------------------------------------
Total Dipole Moment    :     -0.01842      -0.14616      -0.00263
                        -----------------------------------------
Magnitude (a.u.)       :      0.14734
Magnitude (Debye)      :      0.37450



--------------------
Rotational spectrum 
--------------------
 
Rotational constants in cm-1:     0.021268     0.002909     0.002573 
Rotational constants in MHz :   637.584761    87.209896    77.122107 

 Dipole components along the rotational axes: 
x,y,z [a.u.] :    -0.146719     0.013474    -0.000005 
x,y,z [Debye]:    -0.372931     0.034248    -0.000014 

 

Timings for individual modules:

Sum of individual times         ...      538.693 sec (=   8.978 min)
GTO integral calculation        ...       15.483 sec (=   0.258 min)   2.9 %
SCF iterations                  ...      424.031 sec (=   7.067 min)  78.7 %
SCF Gradient evaluation         ...       97.468 sec (=   1.624 min)  18.1 %
Geometry relaxation             ...        1.711 sec (=   0.029 min)   0.3 %
                             ****ORCA TERMINATED NORMALLY****
TOTAL RUN TIME: 0 days 0 hours 9 minutes 14 seconds 451 msec
