
                                 *****************
                                 * O   R   C   A *
                                 *****************

                                            #,                                       
                                            ###                                      
                                            ####                                     
                                            #####                                    
                                            ######                                   
                                           ########,                                 
                                     ,,################,,,,,                         
                               ,,#################################,,                 
                          ,,##########################################,,             
                       ,#########################################, ''#####,          
                    ,#############################################,,   '####,        
                  ,##################################################,,,,####,       
                ,###########''''           ''''###############################       
              ,#####''   ,,,,##########,,,,          '''####'''          '####       
            ,##' ,,,,###########################,,,                        '##       
           ' ,,###''''                  '''############,,,                           
         ,,##''                                '''############,,,,        ,,,,,,###''
      ,#''                                            '''#######################'''  
     '                                                          ''''####''''         
             ,#######,   #######,   ,#######,      ##                                
            ,#'     '#,  ##    ##  ,#'     '#,    #''#        ######   ,####,        
            ##       ##  ##   ,#'  ##            #'  '#       #        #'  '#        
            ##       ##  #######   ##           ,######,      #####,   #    #        
            '#,     ,#'  ##    ##  '#,     ,#' ,#      #,         ##   #,  ,#        
             '#######'   ##     ##  '#######'  #'      '#     #####' # '####'        



                  #######################################################
                  #                        -***-                        #
                  #          Department of theory and spectroscopy      #
                  #    Directorship and core code : Frank Neese         #
                  #        Max Planck Institute fuer Kohlenforschung    #
                  #                Kaiser Wilhelm Platz 1               #
                  #                 D-45470 Muelheim/Ruhr               #
                  #                      Germany                        #
                  #                                                     #
                  #                  All rights reserved                #
                  #                        -***-                        #
                  #######################################################


                         Program Version 5.0.4 -  RELEASE  -


 With contributions from (in alphabetic order):
   Daniel Aravena         : Magnetic Suceptibility
   Michael Atanasov       : Ab Initio Ligand Field Theory (pilot matlab implementation)
   Alexander A. Auer      : GIAO ZORA, VPT2 properties, NMR spectrum
   Ute Becker             : Parallelization
   Giovanni Bistoni       : ED, misc. LED, open-shell LED, HFLD
   Martin Brehm           : Molecular dynamics
   Dmytro Bykov           : SCF Hessian
   Vijay G. Chilkuri      : MRCI spin determinant printing, contributions to CSF-ICE
   Dipayan Datta          : RHF DLPNO-CCSD density
   Achintya Kumar Dutta   : EOM-CC, STEOM-CC
   Dmitry Ganyushin       : Spin-Orbit,Spin-Spin,Magnetic field MRCI
   Miquel Garcia          : C-PCM and meta-GGA Hessian, CC/C-PCM, Gaussian charge scheme
   Yang Guo               : DLPNO-NEVPT2, F12-NEVPT2, CIM, IAO-localization
   Andreas Hansen         : Spin unrestricted coupled pair/coupled cluster methods
   Benjamin Helmich-Paris : MC-RPA, TRAH-SCF, COSX integrals
   Lee Huntington         : MR-EOM, pCC
   Robert Izsak           : Overlap fitted RIJCOSX, COSX-SCS-MP3, EOM
   Marcus Kettner         : VPT2
   Christian Kollmar      : KDIIS, OOCD, Brueckner-CCSD(T), CCSD density, CASPT2, CASPT2-K
   Simone Kossmann        : Meta GGA functionals, TD-DFT gradient, OOMP2, MP2 Hessian
   Martin Krupicka        : Initial AUTO-CI
   Lucas Lang             : DCDCAS
   Marvin Lechner         : AUTO-CI (C++ implementation), FIC-MRCC
   Dagmar Lenk            : GEPOL surface, SMD
   Dimitrios Liakos       : Extrapolation schemes; Compound Job, initial MDCI parallelization
   Dimitrios Manganas     : Further ROCIS development; embedding schemes
   Dimitrios Pantazis     : SARC Basis sets
   Anastasios Papadopoulos: AUTO-CI, single reference methods and gradients
   Taras Petrenko         : DFT Hessian,TD-DFT gradient, ASA, ECA, R-Raman, ABS, FL, XAS/XES, NRVS
   Peter Pinski           : DLPNO-MP2, DLPNO-MP2 Gradient
   Christoph Reimann      : Effective Core Potentials
   Marius Retegan         : Local ZFS, SOC
   Christoph Riplinger    : Optimizer, TS searches, QM/MM, DLPNO-CCSD(T), (RO)-DLPNO pert. Triples
   Tobias Risthaus        : Range-separated hybrids, TD-DFT gradient, RPA, STAB
   Michael Roemelt        : Original ROCIS implementation
   Masaaki Saitow         : Open-shell DLPNO-CCSD energy and density
   Barbara Sandhoefer     : DKH picture change effects
   Avijit Sen             : IP-ROCIS
   Kantharuban Sivalingam : CASSCF convergence, NEVPT2, FIC-MRCI
   Bernardo de Souza      : ESD, SOC TD-DFT
   Georgi Stoychev        : AutoAux, RI-MP2 NMR, DLPNO-MP2 response
   Willem Van den Heuvel  : Paramagnetic NMR
   Boris Wezisla          : Elementary symmetry handling
   Frank Wennmohs         : Technical directorship


 We gratefully acknowledge several colleagues who have allowed us to
 interface, adapt or use parts of their codes:
   Stefan Grimme, W. Hujo, H. Kruse, P. Pracht,  : VdW corrections, initial TS optimization,
                  C. Bannwarth, S. Ehlert          DFT functionals, gCP, sTDA/sTD-DF
   Ed Valeev, F. Pavosevic, A. Kumar             : LibInt (2-el integral package), F12 methods
   Garnet Chan, S. Sharma, J. Yang, R. Olivares  : DMRG
   Ulf Ekstrom                                   : XCFun DFT Library
   Mihaly Kallay                                 : mrcc  (arbitrary order and MRCC methods)
   Jiri Pittner, Ondrej Demel                    : Mk-CCSD
   Frank Weinhold                                : gennbo (NPA and NBO analysis)
   Christopher J. Cramer and Donald G. Truhlar   : smd solvation model
   Lars Goerigk                                  : TD-DFT with DH, B97 family of functionals
   V. Asgeirsson, H. Jonsson                     : NEB implementation
   FAccTs GmbH                                   : IRC, NEB, NEB-TS, DLPNO-Multilevel, CI-OPT
                                                   MM, QMMM, 2- and 3-layer-ONIOM, Crystal-QMMM,
                                                   LR-CPCM, SF, NACMEs, symmetry and pop. for TD-DFT,
                                                   nearIR, NL-DFT gradient (VV10), updates on ESD,
                                                   ML-optimized integration grids
   S Lehtola, MJT Oliveira, MAL Marques          : LibXC Library
   Liviu Ungur et al                             : ANISO software


 Your calculation uses the libint2 library for the computation of 2-el integrals
 For citations please refer to: http://libint.valeyev.net

 Your ORCA version has been built with support for libXC version: 5.1.0
 For citations please refer to: https://tddft.org/programs/libxc/

 This ORCA versions uses:
   CBLAS   interface :  Fast vector & matrix operations
   LAPACKE interface :  Fast linear algebra routines
   SCALAPACK package :  Parallel linear algebra routines
   Shared memory     :  Shared parallel matrices
   BLAS/LAPACK       :  OpenBLAS 0.3.15  USE64BITINT DYNAMIC_ARCH NO_AFFINITY SkylakeX SINGLE_THREADED
        Core in use  :  SkylakeX
   Copyright (c) 2011-2014, The OpenBLAS Project




***************************************
The coordinates will be read from file: opt_cc-pVDZ.xyz
***************************************


================================================================================

----- Orbital basis set information -----
Your calculation utilizes the basis: cc-pVDZ 
       H, B-Ne : Obtained from the ccRepo (grant-hill.group.shef.ac.uk/ccrepo) Feb. 2017
                 T. H. Dunning, Jr., J. Chem. Phys. 90, 1007 (1989)
            He : Obtained from the ccRepo (grant-hill.group.shef.ac.uk/ccrepo) Feb. 2017
                 D. E. Woon, T. H. Dunning, Jr., J. Chem. Phys. 100, 2975 (1994)
  Li-Be, Na-Mg : Obtained from the ccRepo (grant-hill.group.shef.ac.uk/ccrepo) Feb. 2017
                 B. P. Prascher, D. E. Woon, K. A. Peterson, T. H. Dunning, Jr., A. K. Wilson, Theor. Chem. Acc. 128, 69 (2011)
         Al-Ar : Obtained from the ccRepo (grant-hill.group.shef.ac.uk/ccrepo) Feb. 2017
                 D. E. Woon, T. H. Dunning, Jr., J. Chem. Phys. 98, 1358 (1993)
            Ca : Obtained from the Peterson Research Group Website (tyr0.chem.wsu.edu/~kipeters) Feb. 2017
                 J. Koput, K. A. Peterson, J. Phys. Chem. 106, 9595 (2002)
         Sc-Zn : Obtained from the ccRepo (grant-hill.group.shef.ac.uk/ccrepo) Feb. 2017
                 N. B. Balabanov, K. A. Peterson, J. Chem. Phys. 123, 064107 (2005)
                 N. B. Balabanov, K. A. Peterson, J. Chem. Phys. 125, 074110 (2006)
         Ga-Kr : Obtained from the ccRepo (grant-hill.group.shef.ac.uk/ccrepo) Feb. 2017
                 A. K. Wilson, D. E. Woon, K. A. Peterson, T. H. Dunning, Jr., J. Chem. Phys. 110, 7667 (1999)

----- AuxJ basis set information -----
Your calculation utilizes the AutoAux generation procedure.
  G. L. Stoychev, A. A. Auer, F. Neese, J. Chem. Theory Comput. 13, 554 (2017)

----- AuxC basis set information -----
Your calculation utilizes the AutoAux generation procedure.
  G. L. Stoychev, A. A. Auer, F. Neese, J. Chem. Theory Comput. 13, 554 (2017)

----- AuxJK basis set information -----
Your calculation utilizes the AutoAux generation procedure.
  G. L. Stoychev, A. A. Auer, F. Neese, J. Chem. Theory Comput. 13, 554 (2017)

================================================================================
                                        WARNINGS
                       Please study these warnings very carefully!
================================================================================

WARNING: Old DensityContainer found on disk!
         Will remove this file - 
         If you want to keep old densities, please start your calculation with a different basename. 


WARNING: your system is open-shell and RHF/RKS was chosen
  ===> : WILL SWITCH to UHF/UKS


INFO   : the flag for use of the SHARK integral package has been found!

================================================================================
                                       INPUT FILE
================================================================================
NAME = cc-pVDZ.inp
|  1> ! B3LYP cc-pVDZ AUTOAUX
|  2> %pal nprocs 16 end
|  3> *XYZFile 0 2 opt_cc-pVDZ.xyz
|  4> %EPRNMR
|  5>         GTENSOR   TRUE
|  6>         NUCLEI    = ALL H {SHIFT, AISO, ADIP, AORB}
|  7>         ORI       CenterOfElCharge
|  8> END
|  9> 
| 10>                          ****END OF INPUT****
================================================================================

                       ****************************
                       * Single Point Calculation *
                       ****************************

---------------------------------
CARTESIAN COORDINATES (ANGSTROEM)
---------------------------------
  C     -4.099899    0.082567   -0.018222
  C     -2.815921    0.043418   -0.012229
  C      2.806049   -0.003031   -0.008541
  C     -1.423093    0.006863   -0.011428
  C     -0.707962   -1.246480   -0.013936
  C      0.676236   -1.193941   -0.012699
  C      1.390993    0.033560   -0.009300
  C      0.691892    1.284761   -0.006775
  C     -0.689981    1.235246   -0.007997
  H      1.260463   -2.113783   -0.014437
  H     -1.277924    2.152514   -0.006310
  C     -1.482008   -2.545169   -0.017734
  H     -2.162351   -2.531957   -0.888129
  H     -2.163386   -2.536406    0.851912
  C     -0.663838   -3.838606   -0.020482
  H     -0.000096   -3.863432   -0.904786
  H     -0.001596   -3.868106    0.864805
  C     -1.548663   -5.091379   -0.024540
  H     -2.215661   -5.067542    0.856707
  H     -2.213902   -5.063080   -0.906983
  C     -0.745911   -6.394552   -0.027052
  H     -0.097468   -6.468101    0.863227
  H     -0.095359   -6.463360   -0.916169
  C      1.475014    2.581762   -0.003063
  H      2.150207    2.572768    0.872597
  H      2.151368    2.577042   -0.877865
  C      0.659386    3.877214   -0.000463
  H     -0.002720    3.905301   -0.885088
  H     -0.004360    3.900769    0.883063
  C      1.544472    5.129641    0.003570
  H      2.209340    5.102453    0.886978
  H      2.211255    5.106769   -0.878515
  C      0.741225    6.432647    0.005903
  H      0.090431    6.500190    0.894528
  H      0.092772    6.504832   -0.884068
  C      4.030698   -0.050771   -0.009906
  H     -1.407951   -7.275432   -0.030188
  H      1.402772    7.313924    0.009079
  C      5.453343   -0.107447   -0.009657
  C      6.120738   -1.353300   -0.011991
  C      7.513356   -1.403494   -0.011667
  C      8.262125   -0.220420   -0.009064
  C      7.610872    1.019106   -0.006781
  C      6.218765    1.080757   -0.007089
  H      9.353658   -0.264543   -0.008825
  H      8.193249    1.943256   -0.004756
  H      5.532020   -2.272375   -0.014021
  H      5.705859    2.044207   -0.005329
  H      8.019799   -2.371347   -0.013462

----------------------------
CARTESIAN COORDINATES (A.U.)
----------------------------
  NO LB      ZA    FRAG     MASS         X           Y           Z
   0 C     6.0000    0    12.011   -7.747687    0.156029   -0.034434
   1 C     6.0000    0    12.011   -5.321319    0.082049   -0.023110
   2 C     6.0000    0    12.011    5.302663   -0.005727   -0.016140
   3 C     6.0000    0    12.011   -2.689256    0.012970   -0.021596
   4 C     6.0000    0    12.011   -1.337855   -2.355506   -0.026336
   5 C     6.0000    0    12.011    1.277900   -2.256222   -0.023998
   6 C     6.0000    0    12.011    2.628595    0.063419   -0.017575
   7 C     6.0000    0    12.011    1.307487    2.427846   -0.012803
   8 C     6.0000    0    12.011   -1.303876    2.334277   -0.015112
   9 H     1.0000    0     1.008    2.381930   -3.994471   -0.027282
  10 H     1.0000    0     1.008   -2.414927    4.067661   -0.011925
  11 C     6.0000    0    12.011   -2.800589   -4.809672   -0.033512
  12 H     1.0000    0     1.008   -4.086251   -4.784704   -1.678320
  13 H     1.0000    0     1.008   -4.088206   -4.793113    1.609880
  14 C     6.0000    0    12.011   -1.254471   -7.253915   -0.038706
  15 H     1.0000    0     1.008   -0.000181   -7.300829   -1.709797
  16 H     1.0000    0     1.008   -0.003015   -7.309662    1.634244
  17 C     6.0000    0    12.011   -2.926550   -9.621311   -0.046375
  18 H     1.0000    0     1.008   -4.186992   -9.576267    1.618941
  19 H     1.0000    0     1.008   -4.183668   -9.567835   -1.713950
  20 C     6.0000    0    12.011   -1.409567  -12.083953   -0.051120
  21 H     1.0000    0     1.008   -0.184187  -12.222939    1.631262
  22 H     1.0000    0     1.008   -0.180202  -12.213980   -1.731308
  23 C     6.0000    0    12.011    2.787372    4.878824   -0.005788
  24 H     1.0000    0     1.008    4.063302    4.861827    1.648969
  25 H     1.0000    0     1.008    4.065497    4.869904   -1.658924
  26 C     6.0000    0    12.011    1.246058    7.326873   -0.000875
  27 H     1.0000    0     1.008   -0.005139    7.379950   -1.672574
  28 H     1.0000    0     1.008   -0.008239    7.371386    1.668747
  29 C     6.0000    0    12.011    2.918630    9.693616    0.006746
  30 H     1.0000    0     1.008    4.175047    9.642239    1.676146
  31 H     1.0000    0     1.008    4.178667    9.650395   -1.660153
  32 C     6.0000    0    12.011    1.400713   12.155940    0.011154
  33 H     1.0000    0     1.008    0.170889   12.283580    1.690414
  34 H     1.0000    0     1.008    0.175313   12.292351   -1.670647
  35 C     6.0000    0    12.011    7.616916   -0.095943   -0.018719
  36 H     1.0000    0     1.008   -2.660641  -13.748574   -0.057048
  37 H     1.0000    0     1.008    2.650855   13.821313    0.017157
  38 C     6.0000    0    12.011   10.305324   -0.203046   -0.018248
  39 C     6.0000    0    12.011   11.566519   -2.557367   -0.022660
  40 C     6.0000    0    12.011   14.198185   -2.652219   -0.022047
  41 C     6.0000    0    12.011   15.613153   -0.416534   -0.017128
  42 C     6.0000    0    12.011   14.382463    1.925831   -0.012814
  43 C     6.0000    0    12.011   11.751763    2.042335   -0.013395
  44 H     1.0000    0     1.008   17.675851   -0.499913   -0.016676
  45 H     1.0000    0     1.008   15.482996    3.672222   -0.008988
  46 H     1.0000    0     1.008   10.454002   -4.294166   -0.026495
  47 H     1.0000    0     1.008   10.782511    3.862992   -0.010070
  48 H     1.0000    0     1.008   15.155223   -4.481196   -0.025440

--------------------------------
INTERNAL COORDINATES (ANGSTROEM)
--------------------------------
 C      0   0   0     0.000000000000     0.00000000     0.00000000
 C      1   0   0     1.284589537291     0.00000000     0.00000000
 C      2   1   0     5.622162299512   178.70641065     0.00000000
 C      2   1   3     1.393307256627   179.66241696   326.27136708
 C      4   2   1     1.443013734867   121.21140087   224.09072607
 C      5   4   2     1.385195429912   117.53428882   180.01074752
 C      3   2   1     1.415529113068     1.00789119    10.61773360
 C      7   3   6     1.433266022037   120.67511440   180.00390852
 C      8   7   3     1.382760781613   117.14172580   179.98698370
 H      6   5   4     1.089694016459   120.24737872   179.99663975
 H      9   8   7     1.089522271476   120.60649311   180.00640016
 C      5   4   2     1.511870594453   119.49616960     0.00000000
 H     12   5   4     1.104820669042   107.87734532    55.82244333
 H     12   5   4     1.104824061686   107.87625606   304.15171404
 C     12   5   4     1.530487090937   116.88872677   179.99062897
 H     15  12   5     1.105966602418   109.95204445   301.68123401
 H     15  12   5     1.105969145639   109.95038528    58.34471960
 C     15  12   5     1.533744089952   112.45123859   180.01231867
 H     18  15  12     1.105463579593   109.16943866   302.38814302
 H     18  15  12     1.105462984641   109.16984135    57.63519894
 C     18  15  12     1.530581586448   113.13382859   180.01122393
 H     21  18  15     1.103849431862   111.31548255    59.91665403
 H     21  18  15     1.103848627720   111.31491080   300.10962128
 C      8   7   3     1.515092407316   119.68281764     0.00000000
 H     24   8   7     1.105778982790   108.09458628   303.62844224
 H     24   8   7     1.105782756433   108.09289083    56.37926675
 C     24   8   7     1.530833508393   116.68194217   180.00219562
 H     27  24   8     1.105320719032   109.83425605   301.74190774
 H     27  24   8     1.105319464637   109.83659054    58.22748321
 C     27  24   8     1.533612232757   112.55653118   179.98548293
 H     30  27  24     1.105982740437   109.20610979   302.29395297
 H     30  27  24     1.105981832271   109.20545677    57.68071219
 C     30  27  24     1.530697787710   113.09934704   179.98787975
 H     33  30  27     1.103517828402   111.27252073    59.84433835
 H     33  30  27     1.103517702856   111.27319873   300.12360253
 C      3   2   1     1.225580569369   178.23803968   193.52727128
 H     21  18  15     1.101932365622   111.43986810   180.01361120
 H     33  30  27     1.101954139685   111.45372826   179.98340846
 C     36   3   7     1.423772909721   179.91140694   296.38922661
 C     39  36   3     1.413355091988   120.45898912    56.55350663
 C     40  39  36     1.393522124008   120.24178610   180.00333196
 C     41  40  39     1.400115721249   120.26554605     0.00000000
 C     42  41  40     1.400200661271   119.95268429     0.00000000
 C     43  42  41     1.393470791607   120.25333020     0.00000000
 H     42  41  40     1.092424283792   120.01496603   180.00032655
 H     43  42  41     1.092346226064   120.06429611   180.00048980
 H     40  39  36     1.091462855301   119.18059512     0.00000000
 H     44  43  42     1.091472189586   120.56490596   180.00076723
 H     41  40  39     1.092349175018   119.68555687   179.99867040

---------------------------
INTERNAL COORDINATES (A.U.)
---------------------------
 C      0   0   0     0.000000000000     0.00000000     0.00000000
 C      1   0   0     2.427522419981     0.00000000     0.00000000
 C      2   1   0    10.624347026535   178.70641065     0.00000000
 C      2   1   3     2.632969135430   179.66241696   326.27136708
 C      4   2   1     2.726900766385   121.21140087   224.09072607
 C      5   4   2     2.617640004493   117.53428882   180.01074752
 C      3   2   1     2.674962358292     1.00789119    10.61773360
 C      7   3   6     2.708480258705   120.67511440   180.00390852
 C      8   7   3     2.613039185975   117.14172580   179.98698370
 H      6   5   4     2.059223260881   120.24737872   179.99663975
 H      9   8   7     2.058898709897   120.60649311   180.00640016
 C      5   4   2     2.857021373444   119.49616960     0.00000000
 H     12   5   4     2.087808491586   107.87734532    55.82244333
 H     12   5   4     2.087814902752   107.87625606   304.15171404
 C     12   5   4     2.892201453372   116.88872677   179.99062897
 H     15  12   5     2.089973991833   109.95204445   301.68123401
 H     15  12   5     2.089978797825   109.95038528    58.34471960
 C     15  12   5     2.898356289530   112.45123859   180.01231867
 H     18  15  12     2.089023416454   109.16943866   302.38814302
 H     18  15  12     2.089022292158   109.16984135    57.63519894
 C     18  15  12     2.892380024010   113.13382859   180.01122393
 H     21  18  15     2.085973119305   111.31548255    59.91665403
 H     21  18  15     2.085971599695   111.31491080   300.10962128
 C      8   7   3     2.863109717410   119.68281764     0.00000000
 H     24   8   7     2.089619442119   108.09458628   303.62844224
 H     24   8   7     2.089626573271   108.09289083    56.37926675
 C     24   8   7     2.892856087492   116.68194217   180.00219562
 H     27  24   8     2.088753449120   109.83425605   301.74190774
 H     27  24   8     2.088751078656   109.83659054    58.22748321
 C     27  24   8     2.898107115543   112.55653118   179.98548293
 H     30  27  24     2.090004488269   109.20610979   302.29395297
 H     30  27  24     2.090002772085   109.20545677    57.68071219
 C     30  27  24     2.892599612570   113.09934704   179.98787975
 H     33  30  27     2.085346479579   111.27252073    59.84433835
 H     33  30  27     2.085346242332   111.27319873   300.12360253
 C      3   2   1     2.316011631163   178.23803968   193.52727128
 H     21  18  15     2.082350389129   111.43986810   180.01361120
 H     33  30  27     2.082391536146   111.45372826   179.98340846
 C     36   3   7     2.690540876269   179.91140694   296.38922661
 C     39  36   3     2.670854053840   120.45898912    56.55350663
 C     40  39  36     2.633375175935   120.24178610   180.00333196
 C     41  40  39     2.645835268959   120.26554605     0.00000000
 C     42  41  40     2.645995782338   119.95268429     0.00000000
 C     43  42  41     2.633278171756   120.25333020     0.00000000
 H     42  41  40     2.064382718411   120.01496603   180.00032655
 H     43  42  41     2.064235210683   120.06429611   180.00048980
 H     40  39  36     2.062565881867   119.18059512     0.00000000
 H     44  43  42     2.062583521109   120.56490596   180.00076723
 H     41  40  39     2.064240783399   119.68555687   179.99867040

---------------------
BASIS SET INFORMATION
---------------------
There are 2 groups of distinct atoms

 Group   1 Type C   : 17s4p1d contracted to 3s2p1d pattern {881/31/1}
 Group   2 Type H   : 4s1p contracted to 2s1p pattern {31/1}

Atom   0C    basis set group =>   1
Atom   1C    basis set group =>   1
Atom   2C    basis set group =>   1
Atom   3C    basis set group =>   1
Atom   4C    basis set group =>   1
Atom   5C    basis set group =>   1
Atom   6C    basis set group =>   1
Atom   7C    basis set group =>   1
Atom   8C    basis set group =>   1
Atom   9H    basis set group =>   2
Atom  10H    basis set group =>   2
Atom  11C    basis set group =>   1
Atom  12H    basis set group =>   2
Atom  13H    basis set group =>   2
Atom  14C    basis set group =>   1
Atom  15H    basis set group =>   2
Atom  16H    basis set group =>   2
Atom  17C    basis set group =>   1
Atom  18H    basis set group =>   2
Atom  19H    basis set group =>   2
Atom  20C    basis set group =>   1
Atom  21H    basis set group =>   2
Atom  22H    basis set group =>   2
Atom  23C    basis set group =>   1
Atom  24H    basis set group =>   2
Atom  25H    basis set group =>   2
Atom  26C    basis set group =>   1
Atom  27H    basis set group =>   2
Atom  28H    basis set group =>   2
Atom  29C    basis set group =>   1
Atom  30H    basis set group =>   2
Atom  31H    basis set group =>   2
Atom  32C    basis set group =>   1
Atom  33H    basis set group =>   2
Atom  34H    basis set group =>   2
Atom  35C    basis set group =>   1
Atom  36H    basis set group =>   2
Atom  37H    basis set group =>   2
Atom  38C    basis set group =>   1
Atom  39C    basis set group =>   1
Atom  40C    basis set group =>   1
Atom  41C    basis set group =>   1
Atom  42C    basis set group =>   1
Atom  43C    basis set group =>   1
Atom  44H    basis set group =>   2
Atom  45H    basis set group =>   2
Atom  46H    basis set group =>   2
Atom  47H    basis set group =>   2
Atom  48H    basis set group =>   2
---------------------------------
AUXILIARY/J BASIS SET INFORMATION
---------------------------------
There are 2 groups of distinct atoms

 Group   1 Type C   : 14s11p10d2f contracted to 14s11p10d2f pattern {11111111111111/11111111111/1111111111/11}
 Group   2 Type H   : 9s2p1d contracted to 9s2p1d pattern {111111111/11/1}

Atom   0C    basis set group =>   1
Atom   1C    basis set group =>   1
Atom   2C    basis set group =>   1
Atom   3C    basis set group =>   1
Atom   4C    basis set group =>   1
Atom   5C    basis set group =>   1
Atom   6C    basis set group =>   1
Atom   7C    basis set group =>   1
Atom   8C    basis set group =>   1
Atom   9H    basis set group =>   2
Atom  10H    basis set group =>   2
Atom  11C    basis set group =>   1
Atom  12H    basis set group =>   2
Atom  13H    basis set group =>   2
Atom  14C    basis set group =>   1
Atom  15H    basis set group =>   2
Atom  16H    basis set group =>   2
Atom  17C    basis set group =>   1
Atom  18H    basis set group =>   2
Atom  19H    basis set group =>   2
Atom  20C    basis set group =>   1
Atom  21H    basis set group =>   2
Atom  22H    basis set group =>   2
Atom  23C    basis set group =>   1
Atom  24H    basis set group =>   2
Atom  25H    basis set group =>   2
Atom  26C    basis set group =>   1
Atom  27H    basis set group =>   2
Atom  28H    basis set group =>   2
Atom  29C    basis set group =>   1
Atom  30H    basis set group =>   2
Atom  31H    basis set group =>   2
Atom  32C    basis set group =>   1
Atom  33H    basis set group =>   2
Atom  34H    basis set group =>   2
Atom  35C    basis set group =>   1
Atom  36H    basis set group =>   2
Atom  37H    basis set group =>   2
Atom  38C    basis set group =>   1
Atom  39C    basis set group =>   1
Atom  40C    basis set group =>   1
Atom  41C    basis set group =>   1
Atom  42C    basis set group =>   1
Atom  43C    basis set group =>   1
Atom  44H    basis set group =>   2
Atom  45H    basis set group =>   2
Atom  46H    basis set group =>   2
Atom  47H    basis set group =>   2
Atom  48H    basis set group =>   2
---------------------------------
AUXILIARY/C BASIS SET INFORMATION
---------------------------------
There are 2 groups of distinct atoms

 Group   1 Type C   : 14s11p10d2f contracted to 14s11p10d2f pattern {11111111111111/11111111111/1111111111/11}
 Group   2 Type H   : 9s2p1d contracted to 9s2p1d pattern {111111111/11/1}

Atom   0C    basis set group =>   1
Atom   1C    basis set group =>   1
Atom   2C    basis set group =>   1
Atom   3C    basis set group =>   1
Atom   4C    basis set group =>   1
Atom   5C    basis set group =>   1
Atom   6C    basis set group =>   1
Atom   7C    basis set group =>   1
Atom   8C    basis set group =>   1
Atom   9H    basis set group =>   2
Atom  10H    basis set group =>   2
Atom  11C    basis set group =>   1
Atom  12H    basis set group =>   2
Atom  13H    basis set group =>   2
Atom  14C    basis set group =>   1
Atom  15H    basis set group =>   2
Atom  16H    basis set group =>   2
Atom  17C    basis set group =>   1
Atom  18H    basis set group =>   2
Atom  19H    basis set group =>   2
Atom  20C    basis set group =>   1
Atom  21H    basis set group =>   2
Atom  22H    basis set group =>   2
Atom  23C    basis set group =>   1
Atom  24H    basis set group =>   2
Atom  25H    basis set group =>   2
Atom  26C    basis set group =>   1
Atom  27H    basis set group =>   2
Atom  28H    basis set group =>   2
Atom  29C    basis set group =>   1
Atom  30H    basis set group =>   2
Atom  31H    basis set group =>   2
Atom  32C    basis set group =>   1
Atom  33H    basis set group =>   2
Atom  34H    basis set group =>   2
Atom  35C    basis set group =>   1
Atom  36H    basis set group =>   2
Atom  37H    basis set group =>   2
Atom  38C    basis set group =>   1
Atom  39C    basis set group =>   1
Atom  40C    basis set group =>   1
Atom  41C    basis set group =>   1
Atom  42C    basis set group =>   1
Atom  43C    basis set group =>   1
Atom  44H    basis set group =>   2
Atom  45H    basis set group =>   2
Atom  46H    basis set group =>   2
Atom  47H    basis set group =>   2
Atom  48H    basis set group =>   2
----------------------------------
AUXILIARY/JK BASIS SET INFORMATION
----------------------------------
There are 2 groups of distinct atoms

 Group   1 Type C   : 14s11p10d2f contracted to 14s11p10d2f pattern {11111111111111/11111111111/1111111111/11}
 Group   2 Type H   : 9s2p1d contracted to 9s2p1d pattern {111111111/11/1}

Atom   0C    basis set group =>   1
Atom   1C    basis set group =>   1
Atom   2C    basis set group =>   1
Atom   3C    basis set group =>   1
Atom   4C    basis set group =>   1
Atom   5C    basis set group =>   1
Atom   6C    basis set group =>   1
Atom   7C    basis set group =>   1
Atom   8C    basis set group =>   1
Atom   9H    basis set group =>   2
Atom  10H    basis set group =>   2
Atom  11C    basis set group =>   1
Atom  12H    basis set group =>   2
Atom  13H    basis set group =>   2
Atom  14C    basis set group =>   1
Atom  15H    basis set group =>   2
Atom  16H    basis set group =>   2
Atom  17C    basis set group =>   1
Atom  18H    basis set group =>   2
Atom  19H    basis set group =>   2
Atom  20C    basis set group =>   1
Atom  21H    basis set group =>   2
Atom  22H    basis set group =>   2
Atom  23C    basis set group =>   1
Atom  24H    basis set group =>   2
Atom  25H    basis set group =>   2
Atom  26C    basis set group =>   1
Atom  27H    basis set group =>   2
Atom  28H    basis set group =>   2
Atom  29C    basis set group =>   1
Atom  30H    basis set group =>   2
Atom  31H    basis set group =>   2
Atom  32C    basis set group =>   1
Atom  33H    basis set group =>   2
Atom  34H    basis set group =>   2
Atom  35C    basis set group =>   1
Atom  36H    basis set group =>   2
Atom  37H    basis set group =>   2
Atom  38C    basis set group =>   1
Atom  39C    basis set group =>   1
Atom  40C    basis set group =>   1
Atom  41C    basis set group =>   1
Atom  42C    basis set group =>   1
Atom  43C    basis set group =>   1
Atom  44H    basis set group =>   2
Atom  45H    basis set group =>   2
Atom  46H    basis set group =>   2
Atom  47H    basis set group =>   2
Atom  48H    basis set group =>   2

Checking for AutoStart:
The File: cc-pVDZ.gbw exists
Trying to determine its content:
     ... Fine, the file contains calculation information
     ... Fine, the calculation information was read
     ... Fine, the file contains a basis set
     ... Fine, the basis set was read
     ... Fine, the file contains a geometry
     ... Fine, the geometry was read
     ... Fine, the file contains a set of orbitals
     ... Fine, the orbitals can be read
     => possible old guess file was deleted
     => GBW file was renamed to GES file
     => GES file is set as startup file
     => Guess is set to MORead
     ... now leaving AutoStart



           ************************************************************
           *        Program running with 16 parallel MPI-processes    *
           *              working on a common directory               *
           ************************************************************
------------------------------------------------------------------------------
                           ORCA GTO INTEGRAL CALCULATION
                           -- RI-GTO INTEGRALS CHOSEN --
------------------------------------------------------------------------------
------------------------------------------------------------------------------
                   ___                                                        
                  /   \      - P O W E R E D   B Y -                         
                 /     \                                                     
                 |  |  |   _    _      __       _____    __    __             
                 |  |  |  | |  | |    /  \     |  _  \  |  |  /  |          
                  \  \/   | |  | |   /    \    | | | |  |  | /  /          
                 / \  \   | |__| |  /  /\  \   | |_| |  |  |/  /          
                |  |  |   |  __  | /  /__\  \  |    /   |      \           
                |  |  |   | |  | | |   __   |  |    \   |  |\   \          
                \     /   | |  | | |  |  |  |  | |\  \  |  | \   \       
                 \___/    |_|  |_| |__|  |__|  |_| \__\ |__|  \__/        
                                                                              
                      - O R C A' S   B I G   F R I E N D -                    
                                      &                                       
                       - I N T E G R A L  F E E D E R -                       
                                                                              
 v1 FN, 2020, v2 2021                                                         
------------------------------------------------------------------------------


Reading SHARK input file cc-pVDZ.SHARKINP.tmp ... ok
----------------------
SHARK INTEGRAL PACKAGE
----------------------

Number of atoms                             ...     49
Number of basis functions                   ...    605
Number of shells                            ...    363
Maximum angular momentum                    ...      2
Integral batch strategy                     ... SHARK/LIBINT Hybrid
RI-J (if used) integral strategy            ... SPLIT-RIJ (Revised 2003 algorithm where possible)
Printlevel                                  ...      1
Contraction scheme used                     ... PARTIAL GENERAL contraction
Coulomb Range Separation                    ... NOT USED
Exchange Range Separation                   ... NOT USED
Finite Nucleus Model                        ... NOT USED
Auxiliary Coulomb fitting basis             ... AVAILABLE
   # of basis functions in Aux-J            ...   3164
   # of shells in Aux-J                     ...   1188
   Maximum angular momentum in Aux-J        ...      3
Auxiliary J/K fitting basis                 ... AVAILABLE
   # of basis functions in Aux-JK           ...   3164
   # of shells in Aux-JK                    ...   1188
   Maximum angular momentum in Aux-JK       ...      3
Auxiliary Correlation fitting basis         ... AVAILABLE
   # of basis functions in Aux-C            ...   3164
   # of shells in Aux-C                     ...   1188
   Maximum angular momentum in Aux-C        ...      3
Auxiliary 'external' fitting basis          ... NOT available
Integral threshold                          ...     1.000000e-10
Primitive cut-off                           ...     1.000000e-11
Primitive pair pre-selection threshold      ...     1.000000e-11

Calculating pre-screening integrals         ... done (  0.0 sec) Dimension = 363
Calculating pre-screening integrals (ORCA)  ... done (  0.1 sec) Dimension = 219
Organizing shell pair data                  ... done (  0.2 sec)
Shell pair information
Total number of shell pairs                 ...     66066
Shell pairs after pre-screening             ...     25650
Total number of primitive shell pairs       ...    106638
Primitive shell pairs kept                  ...     34614
          la=0 lb=0:  11100 shell pairs
          la=1 lb=0:   9073 shell pairs
          la=1 lb=1:   1618 shell pairs
          la=2 lb=0:   2711 shell pairs
          la=2 lb=1:    986 shell pairs
          la=2 lb=2:    162 shell pairs

Calculating one electron integrals          ... done (  0.0 sec)
Calculating RI/J V-Matrix + Cholesky decomp.... done (  0.6 sec)
Calculating RI/JK V-Matrix + Cholesky decomp... done (  0.6 sec)
Calculating RI/C V-Matrix + Cholesky decomp.... done (  0.6 sec)
Calculating Nuclear repulsion               ... done (  0.0 sec) ENN=   1728.309592196967 Eh

SHARK setup successfully completed in   2.5 seconds

Maximum memory used throughout the entire GTOINT-calculation: 41.7 MB


           ************************************************************
           *        Program running with 16 parallel MPI-processes    *
           *              working on a common directory               *
           ************************************************************
-------------------------------------------------------------------------------
                                 ORCA SCF
-------------------------------------------------------------------------------

------------
SCF SETTINGS
------------
Hamiltonian:
 Density Functional     Method          .... DFT(GTOs)
 Exchange Functional    Exchange        .... B88
   X-Alpha parameter    XAlpha          ....  0.666667
   Becke's b parameter  XBeta           ....  0.004200
 Correlation Functional Correlation     .... LYP
 LDA part of GGA corr.  LDAOpt          .... VWN-5
 Gradients option       PostSCFGGA      .... off
 Hybrid DFT is turned on
   Fraction HF Exchange ScalHFX         ....  0.200000
   Scaling of DF-GGA-X  ScalDFX         ....  0.720000
   Scaling of DF-GGA-C  ScalDFC         ....  0.810000
   Scaling of DF-LDA-C  ScalLDAC        ....  1.000000
   Perturbative correction              ....  0.000000
   Density functional embedding theory  .... OFF
   NL short-range parameter             ....  4.800000
 RI-approximation to the Coulomb term is turned on
   Number of AuxJ basis functions       .... 3164
   RIJ-COSX (HFX calculated with COS-X)).... on


General Settings:
 Integral files         IntName         .... cc-pVDZ
 Hartree-Fock type      HFTyp           .... UHF
 Total Charge           Charge          ....    0
 Multiplicity           Mult            ....    2
 Number of Electrons    NEL             ....  169
 Basis Dimension        Dim             ....  461
 Nuclear Repulsion      ENuc            ....   1728.3095921970 Eh

Convergence Acceleration:
 DIIS                   CNVDIIS         .... on
   Start iteration      DIISMaxIt       ....    12
   Startup error        DIISStart       ....  0.200000
   # of expansion vecs  DIISMaxEq       ....     5
   Bias factor          DIISBfac        ....   1.050
   Max. coefficient     DIISMaxC        ....  10.000
 Trust-Rad. Augm. Hess. CNVTRAH         .... auto
   Auto Start mean grad. ratio tolernc. ....  1.125000
   Auto Start start iteration           ....     1
   Auto Start num. interpolation iter.  ....    10
   Max. Number of Micro iterations      ....    16
   Max. Number of Macro iterations      .... Maxiter - #DIIS iter
   Number of Davidson start vectors     ....     2
   Converg. threshold I  (grad. norm)   ....   5.000e-05
   Converg. threshold II (energy diff.) ....   1.000e-06
   Grad. Scal. Fac. for Micro threshold ....   0.100
   Minimum threshold for Micro iter.    ....   0.010
   NR start threshold (gradient norm)   ....   0.001
   Initial trust radius                 ....   0.400
   Minimum AH scaling param. (alpha)    ....   1.000
   Maximum AH scaling param. (alpha)    .... 1000.000
   Orbital update algorithm             .... Taylor
   White noise on init. David. guess    .... on
   Maximum white noise                  ....   0.010
   Quad. conv. algorithm                .... NR
 SOSCF                  CNVSOSCF        .... off
 Level Shifting         CNVShift        .... on
   Level shift para.    LevelShift      ....    0.2500
   Turn off err/grad.   ShiftErr        ....    0.0010
 Zerner damping         CNVZerner       .... off
 Static damping         CNVDamp         .... on
   Fraction old density DampFac         ....    0.7000
   Max. Damping (<1)    DampMax         ....    0.9800
   Min. Damping (>=0)   DampMin         ....    0.0000
   Turn off err/grad.   DampErr         ....    0.1000
 Fernandez-Rico         CNVRico         .... off

SCF Procedure:
 Maximum # iterations   MaxIter         ....   125
 SCF integral mode      SCFMode         .... Direct
   Integral package                     .... SHARK and LIBINT hybrid scheme
 Reset frequency        DirectResetFreq ....    20
 Integral Threshold     Thresh          ....  1.000e-10 Eh
 Primitive CutOff       TCut            ....  1.000e-11 Eh

Convergence Tolerance:
 Convergence Check Mode ConvCheckMode   .... Total+1el-Energy
 Convergence forced     ConvForced      .... 0
 Energy Change          TolE            ....  1.000e-06 Eh
 1-El. energy change                    ....  1.000e-03 Eh
 DIIS Error             TolErr          ....  1.000e-06


Diagonalization of the overlap matrix:
Smallest eigenvalue                        ... 5.177e-05
Time for diagonalization                   ...    0.054 sec
Threshold for overlap eigenvalues          ... 1.000e-08
Number of eigenvalues below threshold      ... 0
Time for construction of square roots      ...    0.045 sec
Total time needed                          ...    0.101 sec

---------------------
INITIAL GUESS: MOREAD
---------------------
Guess MOs are being read from file: cc-pVDZ.ges
Input geometry compatible with but different from current geometry
Input basis set matches current basis set (good)
MOs were renormalized
MOs were reorthogonalized (Cholesky)
                      ------------------
                      INITIAL GUESS DONE (   0.2 sec)
                      ------------------
-------------------
DFT GRID GENERATION
-------------------

General Integration Accuracy     IntAcc      ... 4.388
Radial Grid Type                 RadialGrid  ... OptM3 with GC (2021)
Angular Grid (max. ang.)         AngularGrid ... 4 (Lebedev-302)
Angular grid pruning method      GridPruning ... 4 (adaptive)
Weight generation scheme         WeightScheme... Becke
Basis function cutoff            BFCut       ... 1.0000e-10
Integration weight cutoff        WCut        ... 1.0000e-14
Angular grids for H and He will be reduced by one unit
Partially contracted basis set               ... off
Rotationally invariant grid construction     ... off

Total number of grid points                  ...   222998
Total number of batches                      ...     3510
Average number of points per batch           ...       63
Average number of grid points per atom       ...     4551
Time for grid setup =    1.460 sec

--------------------
COSX GRID GENERATION
--------------------

GRIDX 1
-------
General Integration Accuracy     IntAcc      ... 3.816
Radial Grid Type                 RadialGrid  ... OptM3 with GC (2021)
Angular Grid (max. ang.)         AngularGrid ... 1 (Lebedev-50)
Angular grid pruning method      GridPruning ... 4 (adaptive)
Weight generation scheme         WeightScheme... Becke
Basis function cutoff            BFCut       ... 1.0000e-10
Integration weight cutoff        WCut        ... 1.0000e-14
Angular grids for H and He will be reduced by one unit
Partially contracted basis set               ... on
Rotationally invariant grid construction     ... off

Total number of grid points                  ...    28398
Total number of batches                      ...      471
Average number of points per batch           ...       60
Average number of grid points per atom       ...      580
UseSFitting                                  ... on

GRIDX 2
-------
General Integration Accuracy     IntAcc      ... 4.020
Radial Grid Type                 RadialGrid  ... OptM3 with GC (2021)
Angular Grid (max. ang.)         AngularGrid ... 2 (Lebedev-110)
Angular grid pruning method      GridPruning ... 4 (adaptive)
Weight generation scheme         WeightScheme... Becke
Basis function cutoff            BFCut       ... 1.0000e-10
Integration weight cutoff        WCut        ... 1.0000e-14
Angular grids for H and He will be reduced by one unit
Partially contracted basis set               ... on
Rotationally invariant grid construction     ... off

Total number of grid points                  ...    60558
Total number of batches                      ...      970
Average number of points per batch           ...       62
Average number of grid points per atom       ...     1236
UseSFitting                                  ... on

GRIDX 3
-------
General Integration Accuracy     IntAcc      ... 4.338
Radial Grid Type                 RadialGrid  ... OptM3 with GC (2021)
Angular Grid (max. ang.)         AngularGrid ... 3 (Lebedev-194)
Angular grid pruning method      GridPruning ... 4 (adaptive)
Weight generation scheme         WeightScheme... Becke
Basis function cutoff            BFCut       ... 1.0000e-10
Integration weight cutoff        WCut        ... 1.0000e-14
Angular grids for H and He will be reduced by one unit
Partially contracted basis set               ... on
Rotationally invariant grid construction     ... off

Total number of grid points                  ...   132523
Total number of batches                      ...     2094
Average number of points per batch           ...       63
Average number of grid points per atom       ...     2705
UseSFitting                                  ... on

Time for X-Grid setup             =    2.376 sec

 re-compute Schwartz prescreening matrix in partically contracted basis (1) ...done (   0.111 sec)
--------------
SCF ITERATIONS
--------------
ITER       Energy         Delta-E        Max-DP      RMS-DP      [F,P]     Damp
               ***  Starting incremental Fock matrix formation  ***
  0   -928.8441665841   0.000000000000 0.00007416  0.00000117  0.0002618 0.7000
                 **** Energy Check signals convergence ****

               *****************************************************
               *                     SUCCESS                       *
               *           SCF CONVERGED AFTER   1 CYCLES          *
               *****************************************************

Old exchange energy                            =    -26.626329912 Eh
New exchange energy                            =    -26.626434354 Eh
Exchange energy change after final integration =     -0.000104442 Eh
Total energy after final integration           =   -928.844271712 Eh
Final COS-X integration done in                =     8.941 sec

----------------
TOTAL SCF ENERGY
----------------

Total Energy       :         -928.84427171 Eh          -25275.13760 eV

Components:
Nuclear Repulsion  :         1728.30959220 Eh           47029.69495 eV
Electronic Energy  :        -2657.15386391 Eh          -72304.83254 eV
One Electron Energy:        -4683.85928180 Eh         -127454.29071 eV
Two Electron Energy:         2026.70541789 Eh           55149.45817 eV
Max COSX asymmetry :            0.00000064 Eh               0.00002 eV

Virial components:
Potential Energy   :        -1851.30005827 Eh          -50376.43567 eV
Kinetic Energy     :          922.45578656 Eh           25101.29808 eV
Virial Ratio       :            2.00692552


DFT components:
N(Alpha)           :       85.000198260802 electrons
N(Beta)            :       84.000199795977 electrons
N(Total)           :      169.000398056779 electrons
E(X)               :     -105.615625178461 Eh       
E(C)               :       -6.571924113271 Eh       
E(XC)              :     -112.187549291732 Eh       
DFET-embed. en.    :        0.000000000000 Eh       

---------------
SCF CONVERGENCE
---------------

  Last Energy change         ...   -6.8660e-07  Tolerance :   1.0000e-06
  Last MAX-Density change    ...    2.5069e-05  Tolerance :   1.0000e-05
  Last RMS-Density change    ...    3.6991e-07  Tolerance :   1.0000e-06
  Last DIIS Error            ...    1.8547e-04  Tolerance :   1.0000e-06

             **** THE GBW FILE WAS UPDATED (cc-pVDZ.gbw) ****
             **** DENSITY cc-pVDZ.scfp WAS UPDATED ****
             **** ENERGY FILE WAS UPDATED (cc-pVDZ.en.tmp) ****
----------------------
UHF SPIN CONTAMINATION
----------------------

Warning: in a DFT calculation there is little theoretical justification to 
         calculate <S**2> as in Hartree-Fock theory. We will do it anyways
         but you should keep in mind that the values have only limited relevance

Expectation value of <S**2>     :     0.773568
Ideal value S*(S+1) for S=0.5   :     0.750000
Deviation                       :     0.023568

             **** THE GBW FILE WAS UPDATED (cc-pVDZ.gbw) ****
             **** DENSITY cc-pVDZ.scfp WAS UPDATED ****
----------------
ORBITAL ENERGIES
----------------
                 SPIN UP ORBITALS
  NO   OCC          E(Eh)            E(eV) 
   0   1.0000     -10.243942      -278.7518 
   1   1.0000     -10.235712      -278.5279 
   2   1.0000     -10.229500      -278.3589 
   3   1.0000     -10.222995      -278.1818 
   4   1.0000     -10.219902      -278.0977 
   5   1.0000     -10.219338      -278.0823 
   6   1.0000     -10.217110      -278.0217 
   7   1.0000     -10.216969      -278.0179 
   8   1.0000     -10.215164      -277.9688 
   9   1.0000     -10.212642      -277.9001 
  10   1.0000     -10.212569      -277.8981 
  11   1.0000     -10.212523      -277.8969 
  12   1.0000     -10.210887      -277.8524 
  13   1.0000     -10.209949      -277.8268 
  14   1.0000     -10.201279      -277.5909 
  15   1.0000     -10.192761      -277.3591 
  16   1.0000     -10.191178      -277.3161 
  17   1.0000     -10.189628      -277.2739 
  18   1.0000     -10.187881      -277.2263 
  19   1.0000     -10.184339      -277.1300 
  20   1.0000     -10.180763      -277.0326 
  21   1.0000     -10.178322      -276.9662 
  22   1.0000     -10.170850      -276.7629 
  23   1.0000     -10.168889      -276.7095 
  24   1.0000      -0.892950       -24.2984 
  25   1.0000      -0.882807       -24.0224 
  26   1.0000      -0.833104       -22.6699 
  27   1.0000      -0.814692       -22.1689 
  28   1.0000      -0.802336       -21.8327 
  29   1.0000      -0.796064       -21.6620 
  30   1.0000      -0.777316       -21.1518 
  31   1.0000      -0.769781       -20.9468 
  32   1.0000      -0.753141       -20.4940 
  33   1.0000      -0.738888       -20.1062 
  34   1.0000      -0.717972       -19.5370 
  35   1.0000      -0.706751       -19.2317 
  36   1.0000      -0.663029       -18.0419 
  37   1.0000      -0.657160       -17.8822 
  38   1.0000      -0.632557       -17.2128 
  39   1.0000      -0.629903       -17.1405 
  40   1.0000      -0.627387       -17.0721 
  41   1.0000      -0.601780       -16.3753 
  42   1.0000      -0.585978       -15.9453 
  43   1.0000      -0.572868       -15.5885 
  44   1.0000      -0.557497       -15.1703 
  45   1.0000      -0.524892       -14.2830 
  46   1.0000      -0.522221       -14.2104 
  47   1.0000      -0.498024       -13.5519 
  48   1.0000      -0.492790       -13.4095 
  49   1.0000      -0.480676       -13.0799 
  50   1.0000      -0.476554       -12.9677 
  51   1.0000      -0.475439       -12.9374 
  52   1.0000      -0.453692       -12.3456 
  53   1.0000      -0.445465       -12.1217 
  54   1.0000      -0.442485       -12.0406 
  55   1.0000      -0.435301       -11.8451 
  56   1.0000      -0.434853       -11.8330 
  57   1.0000      -0.429958       -11.6997 
  58   1.0000      -0.423920       -11.5354 
  59   1.0000      -0.418347       -11.3838 
  60   1.0000      -0.409786       -11.1508 
  61   1.0000      -0.403738       -10.9863 
  62   1.0000      -0.391170       -10.6443 
  63   1.0000      -0.382277       -10.4023 
  64   1.0000      -0.378806       -10.3078 
  65   1.0000      -0.374314       -10.1856 
  66   1.0000      -0.369219       -10.0470 
  67   1.0000      -0.367076        -9.9886 
  68   1.0000      -0.366838        -9.9822 
  69   1.0000      -0.353910        -9.6304 
  70   1.0000      -0.344076        -9.3628 
  71   1.0000      -0.341277        -9.2866 
  72   1.0000      -0.336161        -9.1474 
  73   1.0000      -0.332603        -9.0506 
  74   1.0000      -0.330805        -9.0017 
  75   1.0000      -0.330209        -8.9854 
  76   1.0000      -0.326464        -8.8835 
  77   1.0000      -0.310967        -8.4619 
  78   1.0000      -0.291530        -7.9329 
  79   1.0000      -0.277536        -7.5521 
  80   1.0000      -0.265889        -7.2352 
  81   1.0000      -0.262470        -7.1422 
  82   1.0000      -0.243666        -6.6305 
  83   1.0000      -0.242728        -6.6050 
  84   1.0000      -0.218472        -5.9449 
  85   0.0000      -0.080211        -2.1827 
  86   0.0000      -0.028673        -0.7802 
  87   0.0000      -0.028606        -0.7784 
  88   0.0000      -0.019187        -0.5221 
  89   0.0000       0.023093         0.6284 
  90   0.0000       0.039893         1.0855 
  91   0.0000       0.050850         1.3837 
  92   0.0000       0.054588         1.4854 
  93   0.0000       0.057292         1.5590 
  94   0.0000       0.067537         1.8378 
  95   0.0000       0.069780         1.8988 
  96   0.0000       0.076113         2.0712 
  97   0.0000       0.086289         2.3480 
  98   0.0000       0.087507         2.3812 
  99   0.0000       0.088223         2.4007 
 100   0.0000       0.090886         2.4731 
 101   0.0000       0.091375         2.4864 
 102   0.0000       0.101793         2.7699 
 103   0.0000       0.104974         2.8565 
 104   0.0000       0.118833         3.2336 
 105   0.0000       0.122641         3.3372 
 106   0.0000       0.127251         3.4627 
 107   0.0000       0.132401         3.6028 
 108   0.0000       0.141980         3.8635 
 109   0.0000       0.144233         3.9248 
 110   0.0000       0.145313         3.9542 
 111   0.0000       0.145397         3.9565 
 112   0.0000       0.152066         4.1379 
 113   0.0000       0.153038         4.1644 
 114   0.0000       0.156713         4.2644 
 115   0.0000       0.159408         4.3377 
 116   0.0000       0.166526         4.5314 
 117   0.0000       0.168784         4.5928 
 118   0.0000       0.178738         4.8637 
 119   0.0000       0.189759         5.1636 
 120   0.0000       0.191309         5.2058 
 121   0.0000       0.198580         5.4036 
 122   0.0000       0.205136         5.5820 
 123   0.0000       0.209743         5.7074 
 124   0.0000       0.212906         5.7935 
 125   0.0000       0.230635         6.2759 
 126   0.0000       0.235088         6.3971 
 127   0.0000       0.253176         6.8893 
 128   0.0000       0.260057         7.0765 
 129   0.0000       0.262688         7.1481 
 130   0.0000       0.268583         7.3085 
 131   0.0000       0.276357         7.5201 
 132   0.0000       0.288773         7.8579 
 133   0.0000       0.295961         8.0535 
 134   0.0000       0.311061         8.4644 
 135   0.0000       0.324449         8.8287 
 136   0.0000       0.347039         9.4434 
 137   0.0000       0.352239         9.5849 
 138   0.0000       0.359651         9.7866 
 139   0.0000       0.364858         9.9283 
 140   0.0000       0.386859        10.5270 
 141   0.0000       0.394973        10.7478 
 142   0.0000       0.403368        10.9762 
 143   0.0000       0.403418        10.9776 
 144   0.0000       0.406543        11.0626 
 145   0.0000       0.410375        11.1669 
 146   0.0000       0.414147        11.2695 
 147   0.0000       0.417468        11.3599 
 148   0.0000       0.421141        11.4598 
 149   0.0000       0.431957        11.7542 
 150   0.0000       0.432229        11.7615 
 151   0.0000       0.438429        11.9303 
 152   0.0000       0.450324        12.2539 
 153   0.0000       0.451187        12.2774 
 154   0.0000       0.456853        12.4316 
 155   0.0000       0.465432        12.6651 
 156   0.0000       0.466496        12.6940 
 157   0.0000       0.466864        12.7040 
 158   0.0000       0.477361        12.9897 
 159   0.0000       0.485445        13.2096 
 160   0.0000       0.487346        13.2614 
 161   0.0000       0.491569        13.3763 
 162   0.0000       0.491922        13.3859 
 163   0.0000       0.493488        13.4285 
 164   0.0000       0.497587        13.5400 
 165   0.0000       0.500633        13.6229 
 166   0.0000       0.503897        13.7117 
 167   0.0000       0.504700        13.7336 
 168   0.0000       0.508988        13.8503 
 169   0.0000       0.519372        14.1328 
 170   0.0000       0.527234        14.3468 
 171   0.0000       0.538049        14.6410 
 172   0.0000       0.538108        14.6427 
 173   0.0000       0.562852        15.3160 
 174   0.0000       0.565048        15.3757 
 175   0.0000       0.566965        15.4279 
 176   0.0000       0.568701        15.4751 
 177   0.0000       0.579255        15.7623 
 178   0.0000       0.580306        15.7909 
 179   0.0000       0.585756        15.9392 
 180   0.0000       0.596560        16.2332 
 181   0.0000       0.602063        16.3830 
 182   0.0000       0.610086        16.6013 
 183   0.0000       0.612132        16.6570 
 184   0.0000       0.613906        16.7052 
 185   0.0000       0.618133        16.8203 
 186   0.0000       0.623610        16.9693 
 187   0.0000       0.627474        17.0744 
 188   0.0000       0.630592        17.1593 
 189   0.0000       0.634660        17.2700 
 190   0.0000       0.638173        17.3656 
 191   0.0000       0.642520        17.4839 
 192   0.0000       0.647030        17.6066 
 193   0.0000       0.651425        17.7262 
 194   0.0000       0.652430        17.7535 
 195   0.0000       0.654948        17.8220 
 196   0.0000       0.655226        17.8296 
 197   0.0000       0.657374        17.8881 
 198   0.0000       0.659224        17.9384 
 199   0.0000       0.663517        18.0552 
 200   0.0000       0.666144        18.1267 
 201   0.0000       0.668398        18.1880 
 202   0.0000       0.669320        18.2131 
 203   0.0000       0.670885        18.2557 
 204   0.0000       0.677830        18.4447 
 205   0.0000       0.679411        18.4877 
 206   0.0000       0.685558        18.6550 
 207   0.0000       0.687062        18.6959 
 208   0.0000       0.691255        18.8100 
 209   0.0000       0.697142        18.9702 
 210   0.0000       0.703483        19.1428 
 211   0.0000       0.705268        19.1913 
 212   0.0000       0.710555        19.3352 
 213   0.0000       0.726522        19.7697 
 214   0.0000       0.729884        19.8612 
 215   0.0000       0.732731        19.9386 
 216   0.0000       0.736496        20.0411 
 217   0.0000       0.747913        20.3517 
 218   0.0000       0.754410        20.5286 
 219   0.0000       0.759021        20.6540 
 220   0.0000       0.771100        20.9827 
 221   0.0000       0.777183        21.1482 
 222   0.0000       0.788350        21.4521 
 223   0.0000       0.809261        22.0211 
 224   0.0000       0.818018        22.2594 
 225   0.0000       0.822508        22.3816 
 226   0.0000       0.830881        22.6094 
 227   0.0000       0.835984        22.7483 
 228   0.0000       0.837367        22.7859 
 229   0.0000       0.848366        23.0852 
 230   0.0000       0.860507        23.4156 
 231   0.0000       0.863869        23.5071 
 232   0.0000       0.869687        23.6654 
 233   0.0000       0.881774        23.9943 
 234   0.0000       0.892119        24.2758 
 235   0.0000       0.896437        24.3933 
 236   0.0000       0.900586        24.5062 
 237   0.0000       0.921595        25.0779 
 238   0.0000       0.923457        25.1285 
 239   0.0000       0.930244        25.3132 
 240   0.0000       0.949521        25.8378 
 241   0.0000       0.956743        26.0343 
 242   0.0000       0.964138        26.2355 
 243   0.0000       0.967918        26.3384 
 244   0.0000       0.977585        26.6014 
 245   0.0000       0.982974        26.7481 
 246   0.0000       0.984997        26.8031 
 247   0.0000       0.996628        27.1196 
 248   0.0000       1.008201        27.4345 
 249   0.0000       1.016174        27.6515 
 250   0.0000       1.023634        27.8545 
 251   0.0000       1.027258        27.9531 
 252   0.0000       1.030413        28.0390 
 253   0.0000       1.037006        28.2184 
 254   0.0000       1.040213        28.3056 
 255   0.0000       1.054579        28.6966 
 256   0.0000       1.072314        29.1791 
 257   0.0000       1.076027        29.2802 
 258   0.0000       1.094428        29.7809 
 259   0.0000       1.099364        29.9152 
 260   0.0000       1.103633        30.0314 
 261   0.0000       1.131340        30.7853 
 262   0.0000       1.145620        31.1739 
 263   0.0000       1.156907        31.4810 
 264   0.0000       1.165501        31.7149 
 265   0.0000       1.176768        32.0215 
 266   0.0000       1.184388        32.2288 
 267   0.0000       1.197567        32.5874 
 268   0.0000       1.199375        32.6367 
 269   0.0000       1.200444        32.6657 
 270   0.0000       1.207360        32.8539 
 271   0.0000       1.212579        32.9959 
 272   0.0000       1.213060        33.0090 
 273   0.0000       1.214008        33.0348 
 274   0.0000       1.218004        33.1436 
 275   0.0000       1.221675        33.2435 
 276   0.0000       1.246167        33.9099 
 277   0.0000       1.267949        34.5027 
 278   0.0000       1.275649        34.7122 
 279   0.0000       1.293475        35.1972 
 280   0.0000       1.296144        35.2699 
 281   0.0000       1.305329        35.5198 
 282   0.0000       1.317686        35.8561 
 283   0.0000       1.322270        35.9808 
 284   0.0000       1.336848        36.3775 
 285   0.0000       1.352157        36.7941 
 286   0.0000       1.365806        37.1655 
 287   0.0000       1.370743        37.2998 
 288   0.0000       1.373068        37.3631 
 289   0.0000       1.384415        37.6719 
 290   0.0000       1.399649        38.0864 
 291   0.0000       1.402556        38.1655 
 292   0.0000       1.418089        38.5882 
 293   0.0000       1.421940        38.6929 
 294   0.0000       1.423832        38.7444 
 295   0.0000       1.424593        38.7652 
 296   0.0000       1.454521        39.5795 
 297   0.0000       1.456934        39.6452 
 298   0.0000       1.458909        39.6989 
 299   0.0000       1.460995        39.7557 
 300   0.0000       1.467969        39.9455 
 301   0.0000       1.470054        40.0022 
 302   0.0000       1.478453        40.2307 
 303   0.0000       1.490838        40.5678 
 304   0.0000       1.491935        40.5976 
 305   0.0000       1.501891        40.8685 
 306   0.0000       1.514088        41.2004 
 307   0.0000       1.517252        41.2865 
 308   0.0000       1.531581        41.6764 
 309   0.0000       1.556175        42.3457 
 310   0.0000       1.559732        42.4425 
 311   0.0000       1.562641        42.5216 
 312   0.0000       1.564878        42.5825 
 313   0.0000       1.579527        42.9811 
 314   0.0000       1.585087        43.1324 
 315   0.0000       1.590585        43.2820 
 316   0.0000       1.596460        43.4419 
 317   0.0000       1.613024        43.8926 
 318   0.0000       1.614981        43.9459 
 319   0.0000       1.616529        43.9880 
 320   0.0000       1.617393        44.0115 
 321   0.0000       1.622670        44.1551 
 322   0.0000       1.625652        44.2363 
 323   0.0000       1.627339        44.2821 
 324   0.0000       1.628617        44.3169 
 325   0.0000       1.629215        44.3332 
 326   0.0000       1.635426        44.5022 
 327   0.0000       1.639519        44.6136 
 328   0.0000       1.641619        44.6707 
 329   0.0000       1.644874        44.7593 
 330   0.0000       1.656530        45.0765 
 331   0.0000       1.662290        45.2332 
 332   0.0000       1.665000        45.3070 
 333   0.0000       1.666949        45.3600 
 334   0.0000       1.677852        45.6567 
 335   0.0000       1.679496        45.7014 
 336   0.0000       1.683364        45.8067 
 337   0.0000       1.686175        45.8832 
 338   0.0000       1.689506        45.9738 
 339   0.0000       1.689692        45.9789 
 340   0.0000       1.697675        46.1961 
 341   0.0000       1.701137        46.2903 
 342   0.0000       1.708958        46.5031 
 343   0.0000       1.716405        46.7057 
 344   0.0000       1.719079        46.7785 
 345   0.0000       1.721128        46.8343 
 346   0.0000       1.726268        46.9741 
 347   0.0000       1.727195        46.9994 
 348   0.0000       1.742093        47.4048 
 349   0.0000       1.752376        47.6846 
 350   0.0000       1.754879        47.7527 
 351   0.0000       1.760072        47.8940 
 352   0.0000       1.765458        48.0406 
 353   0.0000       1.774038        48.2740 
 354   0.0000       1.775164        48.3047 
 355   0.0000       1.780894        48.4606 
 356   0.0000       1.788322        48.6627 
 357   0.0000       1.790277        48.7159 
 358   0.0000       1.793418        48.8014 
 359   0.0000       1.811425        49.2914 
 360   0.0000       1.812234        49.3134 
 361   0.0000       1.818431        49.4820 
 362   0.0000       1.821620        49.5688 
 363   0.0000       1.826354        49.6976 
 364   0.0000       1.830939        49.8224 
 365   0.0000       1.836349        49.9696 
 366   0.0000       1.844376        50.1880 
 367   0.0000       1.845481        50.2181 
 368   0.0000       1.845807        50.2270 
 369   0.0000       1.874710        51.0134 
 370   0.0000       1.892419        51.4953 
 371   0.0000       1.899411        51.6856 
 372   0.0000       1.901015        51.7293 
 373   0.0000       1.917583        52.1801 
 374   0.0000       1.919274        52.2261 
 375   0.0000       1.920439        52.2578 
 376   0.0000       1.929779        52.5119 
 377   0.0000       1.948934        53.0332 
 378   0.0000       1.953260        53.1509 
 379   0.0000       1.955869        53.2219 
 380   0.0000       1.962136        53.3924 
 381   0.0000       1.965858        53.4937 
 382   0.0000       1.976459        53.7822 
 383   0.0000       1.978262        53.8312 
 384   0.0000       1.991608        54.1944 
 385   0.0000       2.003807        54.5264 
 386   0.0000       2.016586        54.8741 
 387   0.0000       2.032811        55.3156 
 388   0.0000       2.053479        55.8780 
 389   0.0000       2.059478        56.0412 
 390   0.0000       2.075678        56.4821 
 391   0.0000       2.084015        56.7089 
 392   0.0000       2.084445        56.7206 
 393   0.0000       2.100477        57.1569 
 394   0.0000       2.105441        57.2920 
 395   0.0000       2.151232        58.5380 
 396   0.0000       2.161962        58.8300 
 397   0.0000       2.168985        59.0211 
 398   0.0000       2.169521        59.0357 
 399   0.0000       2.176669        59.2302 
 400   0.0000       2.187048        59.5126 
 401   0.0000       2.194131        59.7053 
 402   0.0000       2.195657        59.7469 
 403   0.0000       2.207834        60.0782 
 404   0.0000       2.214270        60.2533 
 405   0.0000       2.217826        60.3501 
 406   0.0000       2.226014        60.5729 
 407   0.0000       2.252330        61.2890 
 408   0.0000       2.266467        61.6737 
 409   0.0000       2.270365        61.7798 
 410   0.0000       2.283280        62.1312 
 411   0.0000       2.294325        62.4318 
 412   0.0000       2.294582        62.4388 
 413   0.0000       2.310675        62.8767 
 414   0.0000       2.316672        63.0398 
 415   0.0000       2.324072        63.2412 
 416   0.0000       2.332196        63.4623 
 417   0.0000       2.333010        63.4844 
 418   0.0000       2.348256        63.8993 
 419   0.0000       2.369310        64.4722 
 420   0.0000       2.390069        65.0371 
 421   0.0000       2.400472        65.3202 
 422   0.0000       2.403593        65.4051 
 423   0.0000       2.405066        65.4452 
 424   0.0000       2.408191        65.5302 
 425   0.0000       2.410684        65.5980 
 426   0.0000       2.412317        65.6425 
 427   0.0000       2.417308        65.7783 
 428   0.0000       2.419794        65.8459 
 429   0.0000       2.432328        66.1870 
 430   0.0000       2.478444        67.4419 
 431   0.0000       2.479910        67.4818 
 432   0.0000       2.501613        68.0724 
 433   0.0000       2.510251        68.3074 
 434   0.0000       2.529670        68.8358 
 435   0.0000       2.532219        68.9052 
 436   0.0000       2.550212        69.3948 
 437   0.0000       2.573486        70.0281 
 438   0.0000       2.582155        70.2640 
 439   0.0000       2.598588        70.7112 
 440   0.0000       2.607999        70.9672 
 441   0.0000       2.614664        71.1486 
 442   0.0000       2.616827        71.2075 
 443   0.0000       2.685307        73.0709 
 444   0.0000       2.700145        73.4747 
 445   0.0000       2.704670        73.5978 
 446   0.0000       2.707160        73.6656 
 447   0.0000       2.708454        73.7008 
 448   0.0000       2.713434        73.8363 
 449   0.0000       2.721096        74.0448 
 450   0.0000       2.734853        74.4191 
 451   0.0000       2.763249        75.1918 
 452   0.0000       2.813518        76.5597 
 453   0.0000       2.831469        77.0482 
 454   0.0000       2.838673        77.2442 
 455   0.0000       2.853714        77.6535 
 456   0.0000       2.866359        77.9976 
 457   0.0000       3.054535        83.1181 
 458   0.0000       3.074163        83.6522 
 459   0.0000       3.342447        90.9526 
 460   0.0000       3.566635        97.0531 

                 SPIN DOWN ORBITALS
  NO   OCC          E(Eh)            E(eV) 
   0   1.0000     -10.240865      -278.6681 
   1   1.0000     -10.236176      -278.5405 
   2   1.0000     -10.229937      -278.3707 
   3   1.0000     -10.220924      -278.1255 
   4   1.0000     -10.220908      -278.1250 
   5   1.0000     -10.217330      -278.0277 
   6   1.0000     -10.216518      -278.0056 
   7   1.0000     -10.216378      -278.0018 
   8   1.0000     -10.214535      -277.9516 
   9   1.0000     -10.213475      -277.9228 
  10   1.0000     -10.212928      -277.9079 
  11   1.0000     -10.212801      -277.9044 
  12   1.0000     -10.211099      -277.8581 
  13   1.0000     -10.209184      -277.8060 
  14   1.0000     -10.201225      -277.5895 
  15   1.0000     -10.192901      -277.3629 
  16   1.0000     -10.191182      -277.3162 
  17   1.0000     -10.189629      -277.2739 
  18   1.0000     -10.187884      -277.2264 
  19   1.0000     -10.184340      -277.1300 
  20   1.0000     -10.180763      -277.0326 
  21   1.0000     -10.178323      -276.9663 
  22   1.0000     -10.166906      -276.6556 
  23   1.0000     -10.164514      -276.5905 
  24   1.0000      -0.890006       -24.2183 
  25   1.0000      -0.881979       -23.9999 
  26   1.0000      -0.830841       -22.6083 
  27   1.0000      -0.812981       -22.1223 
  28   1.0000      -0.801839       -21.8191 
  29   1.0000      -0.793374       -21.5888 
  30   1.0000      -0.776817       -21.1383 
  31   1.0000      -0.769248       -20.9323 
  32   1.0000      -0.749837       -20.4041 
  33   1.0000      -0.737930       -20.0801 
  34   1.0000      -0.711204       -19.3528 
  35   1.0000      -0.698398       -19.0044 
  36   1.0000      -0.662294       -18.0219 
  37   1.0000      -0.652042       -17.7430 
  38   1.0000      -0.629607       -17.1325 
  39   1.0000      -0.629327       -17.1248 
  40   1.0000      -0.626973       -17.0608 
  41   1.0000      -0.600476       -16.3398 
  42   1.0000      -0.585848       -15.9417 
  43   1.0000      -0.572318       -15.5736 
  44   1.0000      -0.556804       -15.1514 
  45   1.0000      -0.523405       -14.2426 
  46   1.0000      -0.519950       -14.1486 
  47   1.0000      -0.497121       -13.5274 
  48   1.0000      -0.491761       -13.3815 
  49   1.0000      -0.480591       -13.0776 
  50   1.0000      -0.476213       -12.9584 
  51   1.0000      -0.474806       -12.9201 
  52   1.0000      -0.453345       -12.3362 
  53   1.0000      -0.444760       -12.1025 
  54   1.0000      -0.442336       -12.0366 
  55   1.0000      -0.434609       -11.8263 
  56   1.0000      -0.432782       -11.7766 
  57   1.0000      -0.429816       -11.6959 
  58   1.0000      -0.422654       -11.5010 
  59   1.0000      -0.418163       -11.3788 
  60   1.0000      -0.409155       -11.1337 
  61   1.0000      -0.400758       -10.9052 
  62   1.0000      -0.386770       -10.5245 
  63   1.0000      -0.381689       -10.3863 
  64   1.0000      -0.378358       -10.2956 
  65   1.0000      -0.374235       -10.1834 
  66   1.0000      -0.368902       -10.0383 
  67   1.0000      -0.366316        -9.9680 
  68   1.0000      -0.364739        -9.9250 
  69   1.0000      -0.351649        -9.5689 
  70   1.0000      -0.341171        -9.2837 
  71   1.0000      -0.336789        -9.1645 
  72   1.0000      -0.336142        -9.1469 
  73   1.0000      -0.332515        -9.0482 
  74   1.0000      -0.330593        -8.9959 
  75   1.0000      -0.329834        -8.9752 
  76   1.0000      -0.325983        -8.8704 
  77   1.0000      -0.297226        -8.0879 
  78   1.0000      -0.290643        -7.9088 
  79   1.0000      -0.276054        -7.5118 
  80   1.0000      -0.261540        -7.1169 
  81   1.0000      -0.244653        -6.6574 
  82   1.0000      -0.236280        -6.4295 
  83   1.0000      -0.234321        -6.3762 
  84   0.0000      -0.153132        -4.1669 
  85   0.0000      -0.069206        -1.8832 
  86   0.0000      -0.027137        -0.7384 
  87   0.0000      -0.017986        -0.4894 
  88   0.0000      -0.012618        -0.3434 
  89   0.0000       0.023513         0.6398 
  90   0.0000       0.040078         1.0906 
  91   0.0000       0.054652         1.4871 
  92   0.0000       0.057743         1.5713 
  93   0.0000       0.061947         1.6857 
  94   0.0000       0.068848         1.8734 
  95   0.0000       0.071057         1.9336 
  96   0.0000       0.077420         2.1067 
  97   0.0000       0.086705         2.3594 
  98   0.0000       0.088456         2.4070 
  99   0.0000       0.088466         2.4073 
 100   0.0000       0.090895         2.4734 
 101   0.0000       0.091987         2.5031 
 102   0.0000       0.102021         2.7761 
 103   0.0000       0.116371         3.1666 
 104   0.0000       0.119065         3.2399 
 105   0.0000       0.122905         3.3444 
 106   0.0000       0.127445         3.4680 
 107   0.0000       0.132519         3.6060 
 108   0.0000       0.144519         3.9326 
 109   0.0000       0.145466         3.9583 
 110   0.0000       0.145515         3.9597 
 111   0.0000       0.148077         4.0294 
 112   0.0000       0.152737         4.1562 
 113   0.0000       0.153325         4.1722 
 114   0.0000       0.157277         4.2797 
 115   0.0000       0.160883         4.3779 
 116   0.0000       0.168315         4.5801 
 117   0.0000       0.168840         4.5944 
 118   0.0000       0.182724         4.9722 
 119   0.0000       0.191267         5.2046 
 120   0.0000       0.199230         5.4213 
 121   0.0000       0.200361         5.4521 
 122   0.0000       0.205956         5.6043 
 123   0.0000       0.209849         5.7103 
 124   0.0000       0.213459         5.8085 
 125   0.0000       0.230784         6.2799 
 126   0.0000       0.235180         6.3996 
 127   0.0000       0.254079         6.9139 
 128   0.0000       0.262001         7.1294 
 129   0.0000       0.262836         7.1521 
 130   0.0000       0.269290         7.3278 
 131   0.0000       0.277368         7.5476 
 132   0.0000       0.290630         7.9084 
 133   0.0000       0.296514         8.0685 
 134   0.0000       0.314873         8.5681 
 135   0.0000       0.324996         8.8436 
 136   0.0000       0.348827         9.4921 
 137   0.0000       0.353394         9.6163 
 138   0.0000       0.360746         9.8164 
 139   0.0000       0.366035         9.9603 
 140   0.0000       0.388370        10.5681 
 141   0.0000       0.395608        10.7650 
 142   0.0000       0.403877        10.9900 
 143   0.0000       0.405400        11.0315 
 144   0.0000       0.406838        11.0706 
 145   0.0000       0.410576        11.1723 
 146   0.0000       0.414206        11.2711 
 147   0.0000       0.418584        11.3903 
 148   0.0000       0.421956        11.4820 
 149   0.0000       0.433142        11.7864 
 150   0.0000       0.434467        11.8225 
 151   0.0000       0.438968        11.9449 
 152   0.0000       0.451785        12.2937 
 153   0.0000       0.453265        12.3340 
 154   0.0000       0.457245        12.4423 
 155   0.0000       0.466762        12.7012 
 156   0.0000       0.467115        12.7108 
 157   0.0000       0.472126        12.8472 
 158   0.0000       0.477973        13.0063 
 159   0.0000       0.486259        13.2318 
 160   0.0000       0.488195        13.2845 
 161   0.0000       0.492091        13.3905 
 162   0.0000       0.492501        13.4016 
 163   0.0000       0.497971        13.5505 
 164   0.0000       0.499222        13.5845 
 165   0.0000       0.501270        13.6402 
 166   0.0000       0.504338        13.7237 
 167   0.0000       0.507770        13.8171 
 168   0.0000       0.511035        13.9060 
 169   0.0000       0.521070        14.1790 
 170   0.0000       0.533588        14.5197 
 171   0.0000       0.538938        14.6652 
 172   0.0000       0.541917        14.7463 
 173   0.0000       0.563625        15.3370 
 174   0.0000       0.566017        15.4021 
 175   0.0000       0.569175        15.4880 
 176   0.0000       0.576049        15.6751 
 177   0.0000       0.581003        15.8099 
 178   0.0000       0.582580        15.8528 
 179   0.0000       0.586615        15.9626 
 180   0.0000       0.597673        16.2635 
 181   0.0000       0.604731        16.4556 
 182   0.0000       0.613372        16.6907 
 183   0.0000       0.613823        16.7030 
 184   0.0000       0.614379        16.7181 
 185   0.0000       0.619775        16.8649 
 186   0.0000       0.623780        16.9739 
 187   0.0000       0.628267        17.0960 
 188   0.0000       0.631100        17.1731 
 189   0.0000       0.635213        17.2850 
[...]
  Y          -0.0020703            0.9091026            0.4165671
  Z           0.9999978            0.0020162            0.0005699

Notes:  (1) The A matrix conforms to the "SAI" spin Hamiltonian convention.
        (2) Tensor is right-handed.

 -----------------------------------------------------------
 Nucleus  46H : A:ISTP=    1 I=  0.5 P=533.5514 MHz/au**3
                Q:ISTP=    2 I=  1.0 Q=  0.0029 barn     
 -----------------------------------------------------------
 Solving for nuclear perturbation:
Forming RHS of the CP-SCF equations         ... 
Calc. nucleus orbit integrals (SHARK)       ... done

------------------------------------------------------------------------------
                           ORCA CP-SCF CALCULATION
------------------------------------------------------------------------------

Input orbitals are from        ... cc-pVDZ.gbw
Input Perturbation             ... cc-pVDZ.pin.tmp
Wavefunction output            ... cc-pVDZ.pout.tmp
Perturbation mode              ... Imaginary perturbation
Solver                         ... POPLE
Max. number of iterations      ... 64
Convergence tolerance          ... 1.000e-03
Integral handling              ... Direct
DFT GridXC                     ... 1
COSX GridX                     ... 1
COSX IntAccX                   ... 3.067
COSX Algorithm                 ... Auto
Number of perturbations        ... 3
Number of operators            ... 2
Orbital ranges used for CP-SCF:
 Operator 0:  Orbitals   0... 84  to  85...460
 Operator 1:  Orbitals   0... 83  to  84...460
Variables per perturbation     ... 63628
DFT calculation                         ... on
XC functional terms                     ... off
Hybrid DFT                              ... on
   Exchange mixing (SCF)                ...  0.200
   Exchange mixing (CP-SCF)             ...  0.200
   GGA exch. scaling(SCF)               ...  0.720
   GGA exch. scaling (CP-SCF)           ...  0.720
   GGA corr. scaling (SCF)              ...  0.810
   GGA corr. scaling (CP-SCF)           ...  0.810

CP-SCF GRID
-----------

General Integration Accuracy     IntAcc      ... 3.467
Radial Grid Type                 RadialGrid  ... OptM3 with GC (2021)
Angular Grid (max. ang.)         AngularGrid ... 1 (Lebedev-50)
Angular grid pruning method      GridPruning ... 4 (adaptive)
Weight generation scheme         WeightScheme... Becke
Basis function cutoff            BFCut       ... 1.0000e-10
Integration weight cutoff        WCut        ... 1.0000e-14
Angular grids for H and He will be reduced by one unit
Partially contracted basis set               ... off
Rotationally invariant grid construction     ... off

Total number of grid points                  ...    31843
Total number of batches                      ...      519
Average number of points per batch           ...       61
Average number of grid points per atom       ...      650

CP-SCF GRIDX
------------

General Integration Accuracy     IntAcc      ... 3.067
Radial Grid Type                 RadialGrid  ... OptM3 with GC (2021)
Angular Grid (max. ang.)         AngularGrid ... 1 (Lebedev-50)
Angular grid pruning method      GridPruning ... 4 (adaptive)
Weight generation scheme         WeightScheme... Becke
Basis function cutoff            BFCut       ... 1.0000e-10
Integration weight cutoff        WCut        ... 1.0000e-14
Angular grids for H and He will be reduced by one unit
Partially contracted basis set               ... on
Rotationally invariant grid construction     ... off

Total number of grid points                  ...    14941
Total number of batches                      ...      262
Average number of points per batch           ...       57
Average number of grid points per atom       ...      305

Memory available               ... 875.6 MB
Memory needed per perturbation ...  13.4 MB
Perturbations treated per batch... 3
Number of batches              ... 1
     CP-SCF ITERATION   0:   4.5907e-02 (   1.9 sec   0/  3 done)
     CP-SCF ITERATION   1:   2.1116e-03 (   1.9 sec   0/  3 done)
     CP-SCF ITERATION   2:   4.3579e-04 (   2.0 sec   3/  3 done)
                    *** THE CP-SCF HAS CONVERGED ***

Forming final perturbed densities           ... done
Transforming perturbed density to AO basis  ... done

 Raw HFC matrix (all values in MHz): 
 -----------------------------------
                -3.0066               0.7396               0.0019
                 0.7395              -1.5909               0.0037
                 0.0019               0.0037              -3.2056

 A(FC)          -2.6017              -2.6017              -2.6017
 A(SD)           1.3262              -0.6039              -0.7223
 A(ORB+DIA)      0.0004              -0.0001               0.0014    A(PC) =   0.0006
 A(ORB)          0.0001               0.0000               0.0013    A(PC) =   0.0005
 A(DIA)          0.0003              -0.0001               0.0001    A(PC) =   0.0001
             ----------           ----------           ----------
 A(Tot)         -1.2751              -3.2057              -3.3225    A(iso)=   -2.6011
 Orientation: 
  X           0.3927959            0.0013456            0.9196247
  Y           0.9196232           -0.0028949           -0.3927910
  Z           0.0021337            0.9999949           -0.0023746

Notes:  (1) The A matrix conforms to the "SAI" spin Hamiltonian convention.
        (2) Tensor is right-handed.

 -----------------------------------------------------------
 Nucleus  47H : A:ISTP=    1 I=  0.5 P=533.5514 MHz/au**3
                Q:ISTP=    2 I=  1.0 Q=  0.0029 barn     
 -----------------------------------------------------------
 Solving for nuclear perturbation:
Forming RHS of the CP-SCF equations         ... 
Calc. nucleus orbit integrals (SHARK)       ... done

------------------------------------------------------------------------------
                           ORCA CP-SCF CALCULATION
------------------------------------------------------------------------------

Input orbitals are from        ... cc-pVDZ.gbw
Input Perturbation             ... cc-pVDZ.pin.tmp
Wavefunction output            ... cc-pVDZ.pout.tmp
Perturbation mode              ... Imaginary perturbation
Solver                         ... POPLE
Max. number of iterations      ... 64
Convergence tolerance          ... 1.000e-03
Integral handling              ... Direct
DFT GridXC                     ... 1
COSX GridX                     ... 1
COSX IntAccX                   ... 3.067
COSX Algorithm                 ... Auto
Number of perturbations        ... 3
Number of operators            ... 2
Orbital ranges used for CP-SCF:
 Operator 0:  Orbitals   0... 84  to  85...460
 Operator 1:  Orbitals   0... 83  to  84...460
Variables per perturbation     ... 63628
DFT calculation                         ... on
XC functional terms                     ... off
Hybrid DFT                              ... on
   Exchange mixing (SCF)                ...  0.200
   Exchange mixing (CP-SCF)             ...  0.200
   GGA exch. scaling(SCF)               ...  0.720
   GGA exch. scaling (CP-SCF)           ...  0.720
   GGA corr. scaling (SCF)              ...  0.810
   GGA corr. scaling (CP-SCF)           ...  0.810

CP-SCF GRID
-----------

General Integration Accuracy     IntAcc      ... 3.467
Radial Grid Type                 RadialGrid  ... OptM3 with GC (2021)
Angular Grid (max. ang.)         AngularGrid ... 1 (Lebedev-50)
Angular grid pruning method      GridPruning ... 4 (adaptive)
Weight generation scheme         WeightScheme... Becke
Basis function cutoff            BFCut       ... 1.0000e-10
Integration weight cutoff        WCut        ... 1.0000e-14
Angular grids for H and He will be reduced by one unit
Partially contracted basis set               ... off
Rotationally invariant grid construction     ... off

Total number of grid points                  ...    31843
Total number of batches                      ...      519
Average number of points per batch           ...       61
Average number of grid points per atom       ...      650

CP-SCF GRIDX
------------

General Integration Accuracy     IntAcc      ... 3.067
Radial Grid Type                 RadialGrid  ... OptM3 with GC (2021)
Angular Grid (max. ang.)         AngularGrid ... 1 (Lebedev-50)
Angular grid pruning method      GridPruning ... 4 (adaptive)
Weight generation scheme         WeightScheme... Becke
Basis function cutoff            BFCut       ... 1.0000e-10
Integration weight cutoff        WCut        ... 1.0000e-14
Angular grids for H and He will be reduced by one unit
Partially contracted basis set               ... on
Rotationally invariant grid construction     ... off

Total number of grid points                  ...    14941
Total number of batches                      ...      262
Average number of points per batch           ...       57
Average number of grid points per atom       ...      305

Memory available               ... 875.0 MB
Memory needed per perturbation ...  13.4 MB
Perturbations treated per batch... 3
Number of batches              ... 1
     CP-SCF ITERATION   0:   4.5980e-02 (   1.8 sec   0/  3 done)
     CP-SCF ITERATION   1:   2.1077e-03 (   1.9 sec   0/  3 done)
     CP-SCF ITERATION   2:   4.3778e-04 (   2.0 sec   3/  3 done)
                    *** THE CP-SCF HAS CONVERGED ***

Forming final perturbed densities           ... done
Transforming perturbed density to AO basis  ... done

 Raw HFC matrix (all values in MHz): 
 -----------------------------------
                -3.1301              -0.6017              -0.0011
                -0.6017              -1.4664               0.0037
                -0.0011               0.0037              -3.1986

 A(FC)          -2.5990              -2.5990              -2.5990
 A(SD)           1.3269              -0.5996              -0.7274
 A(ORB+DIA)      0.0004              -0.0001               0.0014    A(PC) =   0.0006
 A(ORB)          0.0002               0.0000               0.0013    A(PC) =   0.0005
 A(DIA)          0.0003              -0.0001               0.0001    A(PC) =   0.0001
             ----------           ----------           ----------
 A(Tot)         -1.2716              -3.1987              -3.3249    A(iso)=   -2.5984
 Orientation: 
  X          -0.3080065            0.0009791            0.9513838
  Y           0.9513822           -0.0017675            0.3080078
  Z           0.0019831            0.9999980           -0.0003871

Notes:  (1) The A matrix conforms to the "SAI" spin Hamiltonian convention.
        (2) Tensor is right-handed.

 -----------------------------------------------------------
 Nucleus  48H : A:ISTP=    1 I=  0.5 P=533.5514 MHz/au**3
                Q:ISTP=    2 I=  1.0 Q=  0.0029 barn     
 -----------------------------------------------------------
 Solving for nuclear perturbation:
Forming RHS of the CP-SCF equations         ... 
Calc. nucleus orbit integrals (SHARK)       ... done

------------------------------------------------------------------------------
                           ORCA CP-SCF CALCULATION
------------------------------------------------------------------------------

Input orbitals are from        ... cc-pVDZ.gbw
Input Perturbation             ... cc-pVDZ.pin.tmp
Wavefunction output            ... cc-pVDZ.pout.tmp
Perturbation mode              ... Imaginary perturbation
Solver                         ... POPLE
Max. number of iterations      ... 64
Convergence tolerance          ... 1.000e-03
Integral handling              ... Direct
DFT GridXC                     ... 1
COSX GridX                     ... 1
COSX IntAccX                   ... 3.067
COSX Algorithm                 ... Auto
Number of perturbations        ... 3
Number of operators            ... 2
Orbital ranges used for CP-SCF:
 Operator 0:  Orbitals   0... 84  to  85...460
 Operator 1:  Orbitals   0... 83  to  84...460
Variables per perturbation     ... 63628
DFT calculation                         ... on
XC functional terms                     ... off
Hybrid DFT                              ... on
   Exchange mixing (SCF)                ...  0.200
   Exchange mixing (CP-SCF)             ...  0.200
   GGA exch. scaling(SCF)               ...  0.720
   GGA exch. scaling (CP-SCF)           ...  0.720
   GGA corr. scaling (SCF)              ...  0.810
   GGA corr. scaling (CP-SCF)           ...  0.810

CP-SCF GRID
-----------

General Integration Accuracy     IntAcc      ... 3.467
Radial Grid Type                 RadialGrid  ... OptM3 with GC (2021)
Angular Grid (max. ang.)         AngularGrid ... 1 (Lebedev-50)
Angular grid pruning method      GridPruning ... 4 (adaptive)
Weight generation scheme         WeightScheme... Becke
Basis function cutoff            BFCut       ... 1.0000e-10
Integration weight cutoff        WCut        ... 1.0000e-14
Angular grids for H and He will be reduced by one unit
Partially contracted basis set               ... off
Rotationally invariant grid construction     ... off

Total number of grid points                  ...    31843
Total number of batches                      ...      519
Average number of points per batch           ...       61
Average number of grid points per atom       ...      650

CP-SCF GRIDX
------------

General Integration Accuracy     IntAcc      ... 3.067
Radial Grid Type                 RadialGrid  ... OptM3 with GC (2021)
Angular Grid (max. ang.)         AngularGrid ... 1 (Lebedev-50)
Angular grid pruning method      GridPruning ... 4 (adaptive)
Weight generation scheme         WeightScheme... Becke
Basis function cutoff            BFCut       ... 1.0000e-10
Integration weight cutoff        WCut        ... 1.0000e-14
Angular grids for H and He will be reduced by one unit
Partially contracted basis set               ... on
Rotationally invariant grid construction     ... off

Total number of grid points                  ...    14941
Total number of batches                      ...      262
Average number of points per batch           ...       57
Average number of grid points per atom       ...      305

Memory available               ... 874.5 MB
Memory needed per perturbation ...  13.4 MB
Perturbations treated per batch... 3
Number of batches              ... 1
     CP-SCF ITERATION   0:   4.1733e-02 (   1.8 sec   0/  3 done)
     CP-SCF ITERATION   1:   1.7412e-03 (   1.8 sec   1/  3 done)
     CP-SCF ITERATION   2:   9.4276e-05 (   1.5 sec   3/  3 done)
                    *** THE CP-SCF HAS CONVERGED ***

Forming final perturbed densities           ... done
Transforming perturbed density to AO basis  ... done

 Raw HFC matrix (all values in MHz): 
 -----------------------------------
                 1.6932               0.2864               0.0009
                 0.2863               1.0139               0.0006
                 0.0009               0.0006               0.7094

 A(FC)           1.1388               1.1388               1.1388
 A(SD)          -0.4294              -0.2298               0.6593
 A(ORB+DIA)      0.0000               0.0003              -0.0003    A(PC) =   0.0000
 A(ORB)         -0.0000               0.0003              -0.0003    A(PC) =  -0.0000
 A(DIA)          0.0001               0.0000               0.0001    A(PC) =   0.0001
             ----------           ----------           ----------
 A(Tot)          0.7094               0.9093               1.7978    A(iso)=    1.1388
 Orientation: 
  X          -0.0005068           -0.3431824           -0.9392687
  Y          -0.0014899            0.9392680           -0.3431813
  Z           0.9999988            0.0012255           -0.0009873

Notes:  (1) The A matrix conforms to the "SAI" spin Hamiltonian convention.
        (2) Tensor is right-handed.


--------------------------------------------------------------------------------
----------------------------------------------------------------------------
                           ORCA EULER ANGLE PROGRAM
----------------------------------------------------------------------------

Only g-tensor available        -->  using g-tensor as reference tensor

Reference tensor               ...  g

g-tensor ordering              ...  |g_min> --> |gx>
                                    |g_mid> --> |gy>
                                    |g_max> --> |gz>

A- and EFG-tensor ordering     ...  the axes |Ax>, |Qx>, |Ay>, etc. are assigned
                                    such that the Euler rotation is minimal. You
                                    can find the respective eigenvalues as Ax,
                                    EFGx, Ay, etc. in the tables below.
                                    The relation of |Ax>, |Ay>,  etc. to Amin, Amid, etc.
                                    (as printed in the ORCA EPR/NMR CALCULATION Output)
                                    is obtained in the detailed printout.

Euler rotation around          ...  z - y - z
   First rotation              -->  by alpha around z
   Second rotation             -->  by beta around y'
   Third rotation              -->  by gamma around z''
   Positive / Negative angle   -->  clockwise / counterclockwise rotation

Plot EFG-tensors                    (-)
Plot HFC-tensors                    (-)
Detailed Printout                   (-)

-------------------------------------------------------------------------
          Euler rotation of hyperfine tensor to g-tensor
-------------------------------------------------------------------------

-------------------------------------------------------------------
 Atom  |   Alpha    Beta    Gamma   |   Ax       Ay       Az 
       |          [degrees]         |           [MHz]         
-------------------------------------------------------------------
  9H       90.5     36.9    -90.5       2.45     3.31     6.42
 10H       90.9     19.7    -90.9      -9.87    -3.45   -10.59
 12H       60.0     14.6    -43.2      10.29    15.07    11.85
 13H      121.8     15.1   -138.6      10.30    15.08    11.85
 15H       78.0     29.1    -63.7      -0.94     0.89    -0.74
 16H      103.4     29.4   -117.6      -0.94     0.89    -0.74
 18H      144.7      7.3   -154.0      -0.39     0.87    -0.29
 19H       38.9      6.6    -29.5      -0.39     0.87    -0.29
 21H       93.4     16.8   -101.2      -0.18     0.38    -0.11
 22H       89.2     16.7    -81.3      -0.18     0.38    -0.11
 24H      -96.8     27.6    112.1      -4.71    -3.11    -3.98
 25H      -84.7     27.3     69.3      -4.71    -3.11    -3.98
 27H      -82.7     26.0     70.0      -0.23     1.44    -0.04
 28H      -99.0     26.2    111.6      -0.23     1.44    -0.04
 30H      -95.5     28.7    105.4      -0.31     0.28    -0.15
 31H      -86.0     28.5     76.0      -0.31     0.28    -0.15
 33H      -91.4     15.3     98.9      -0.21     0.32    -0.15
 34H      -91.5     15.2     83.9      -0.21     0.32    -0.15
 36H       93.3      7.3    -93.2      -0.17     0.30    -0.14
 37H      -91.2     19.2     91.1      -0.14     0.21    -0.09
 44H     -108.7      1.1    108.7      -3.08    -4.79    -0.96
 45H      -90.9     23.4     90.8       0.71     0.91     1.79
 46H      -91.2     21.9     91.2      -3.21    -1.28    -3.32
 47H       91.3     19.2    -91.3      -3.20    -1.27    -3.32
 48H       90.9     21.3    -90.9       0.71     0.91     1.80
-------------------------------------------------------------------


Maximum memory used throughout the entire EPRNMR-calculation: 219.5 MB

Timings for individual modules:

Sum of individual times         ...     4933.086 sec (=  82.218 min)
GTO integral calculation        ...        4.815 sec (=   0.080 min)   0.1 %
Spin-Orbit-Coupling Matrices    ...        9.393 sec (=   0.157 min)   0.2 %
SCF iterations                  ...       31.487 sec (=   0.525 min)   0.6 %
EPR/NMR calculation             ...     4887.392 sec (=  81.457 min)  99.1 %
                             ****ORCA TERMINATED NORMALLY****
TOTAL RUN TIME: 0 days 1 hours 22 minutes 17 seconds 293 msec
