
                                 *****************
                                 * O   R   C   A *
                                 *****************

                                            #,                                       
                                            ###                                      
                                            ####                                     
                                            #####                                    
                                            ######                                   
                                           ########,                                 
                                     ,,################,,,,,                         
                               ,,#################################,,                 
                          ,,##########################################,,             
                       ,#########################################, ''#####,          
                    ,#############################################,,   '####,        
                  ,##################################################,,,,####,       
                ,###########''''           ''''###############################       
              ,#####''   ,,,,##########,,,,          '''####'''          '####       
            ,##' ,,,,###########################,,,                        '##       
           ' ,,###''''                  '''############,,,                           
         ,,##''                                '''############,,,,        ,,,,,,###''
      ,#''                                            '''#######################'''  
     '                                                          ''''####''''         
             ,#######,   #######,   ,#######,      ##                                
            ,#'     '#,  ##    ##  ,#'     '#,    #''#        ######   ,####,        
            ##       ##  ##   ,#'  ##            #'  '#       #        #'  '#        
            ##       ##  #######   ##           ,######,      #####,   #    #        
            '#,     ,#'  ##    ##  '#,     ,#' ,#      #,         ##   #,  ,#        
             '#######'   ##     ##  '#######'  #'      '#     #####' # '####'        



                  #######################################################
                  #                        -***-                        #
                  #          Department of theory and spectroscopy      #
                  #    Directorship and core code : Frank Neese         #
                  #        Max Planck Institute fuer Kohlenforschung    #
                  #                Kaiser Wilhelm Platz 1               #
                  #                 D-45470 Muelheim/Ruhr               #
                  #                      Germany                        #
                  #                                                     #
                  #                  All rights reserved                #
                  #                        -***-                        #
                  #######################################################


                         Program Version 5.0.4 -  RELEASE  -


 With contributions from (in alphabetic order):
   Daniel Aravena         : Magnetic Suceptibility
   Michael Atanasov       : Ab Initio Ligand Field Theory (pilot matlab implementation)
   Alexander A. Auer      : GIAO ZORA, VPT2 properties, NMR spectrum
   Ute Becker             : Parallelization
   Giovanni Bistoni       : ED, misc. LED, open-shell LED, HFLD
   Martin Brehm           : Molecular dynamics
   Dmytro Bykov           : SCF Hessian
   Vijay G. Chilkuri      : MRCI spin determinant printing, contributions to CSF-ICE
   Dipayan Datta          : RHF DLPNO-CCSD density
   Achintya Kumar Dutta   : EOM-CC, STEOM-CC
   Dmitry Ganyushin       : Spin-Orbit,Spin-Spin,Magnetic field MRCI
   Miquel Garcia          : C-PCM and meta-GGA Hessian, CC/C-PCM, Gaussian charge scheme
   Yang Guo               : DLPNO-NEVPT2, F12-NEVPT2, CIM, IAO-localization
   Andreas Hansen         : Spin unrestricted coupled pair/coupled cluster methods
   Benjamin Helmich-Paris : MC-RPA, TRAH-SCF, COSX integrals
   Lee Huntington         : MR-EOM, pCC
   Robert Izsak           : Overlap fitted RIJCOSX, COSX-SCS-MP3, EOM
   Marcus Kettner         : VPT2
   Christian Kollmar      : KDIIS, OOCD, Brueckner-CCSD(T), CCSD density, CASPT2, CASPT2-K
   Simone Kossmann        : Meta GGA functionals, TD-DFT gradient, OOMP2, MP2 Hessian
   Martin Krupicka        : Initial AUTO-CI
   Lucas Lang             : DCDCAS
   Marvin Lechner         : AUTO-CI (C++ implementation), FIC-MRCC
   Dagmar Lenk            : GEPOL surface, SMD
   Dimitrios Liakos       : Extrapolation schemes; Compound Job, initial MDCI parallelization
   Dimitrios Manganas     : Further ROCIS development; embedding schemes
   Dimitrios Pantazis     : SARC Basis sets
   Anastasios Papadopoulos: AUTO-CI, single reference methods and gradients
   Taras Petrenko         : DFT Hessian,TD-DFT gradient, ASA, ECA, R-Raman, ABS, FL, XAS/XES, NRVS
   Peter Pinski           : DLPNO-MP2, DLPNO-MP2 Gradient
   Christoph Reimann      : Effective Core Potentials
   Marius Retegan         : Local ZFS, SOC
   Christoph Riplinger    : Optimizer, TS searches, QM/MM, DLPNO-CCSD(T), (RO)-DLPNO pert. Triples
   Tobias Risthaus        : Range-separated hybrids, TD-DFT gradient, RPA, STAB
   Michael Roemelt        : Original ROCIS implementation
   Masaaki Saitow         : Open-shell DLPNO-CCSD energy and density
   Barbara Sandhoefer     : DKH picture change effects
   Avijit Sen             : IP-ROCIS
   Kantharuban Sivalingam : CASSCF convergence, NEVPT2, FIC-MRCI
   Bernardo de Souza      : ESD, SOC TD-DFT
   Georgi Stoychev        : AutoAux, RI-MP2 NMR, DLPNO-MP2 response
   Willem Van den Heuvel  : Paramagnetic NMR
   Boris Wezisla          : Elementary symmetry handling
   Frank Wennmohs         : Technical directorship


 We gratefully acknowledge several colleagues who have allowed us to
 interface, adapt or use parts of their codes:
   Stefan Grimme, W. Hujo, H. Kruse, P. Pracht,  : VdW corrections, initial TS optimization,
                  C. Bannwarth, S. Ehlert          DFT functionals, gCP, sTDA/sTD-DF
   Ed Valeev, F. Pavosevic, A. Kumar             : LibInt (2-el integral package), F12 methods
   Garnet Chan, S. Sharma, J. Yang, R. Olivares  : DMRG
   Ulf Ekstrom                                   : XCFun DFT Library
   Mihaly Kallay                                 : mrcc  (arbitrary order and MRCC methods)
   Jiri Pittner, Ondrej Demel                    : Mk-CCSD
   Frank Weinhold                                : gennbo (NPA and NBO analysis)
   Christopher J. Cramer and Donald G. Truhlar   : smd solvation model
   Lars Goerigk                                  : TD-DFT with DH, B97 family of functionals
   V. Asgeirsson, H. Jonsson                     : NEB implementation
   FAccTs GmbH                                   : IRC, NEB, NEB-TS, DLPNO-Multilevel, CI-OPT
                                                   MM, QMMM, 2- and 3-layer-ONIOM, Crystal-QMMM,
                                                   LR-CPCM, SF, NACMEs, symmetry and pop. for TD-DFT,
                                                   nearIR, NL-DFT gradient (VV10), updates on ESD,
                                                   ML-optimized integration grids
   S Lehtola, MJT Oliveira, MAL Marques          : LibXC Library
   Liviu Ungur et al                             : ANISO software


 Your calculation uses the libint2 library for the computation of 2-el integrals
 For citations please refer to: http://libint.valeyev.net

 Your ORCA version has been built with support for libXC version: 5.1.0
 For citations please refer to: https://tddft.org/programs/libxc/

 This ORCA versions uses:
   CBLAS   interface :  Fast vector & matrix operations
   LAPACKE interface :  Fast linear algebra routines
   SCALAPACK package :  Parallel linear algebra routines
   Shared memory     :  Shared parallel matrices
   BLAS/LAPACK       :  OpenBLAS 0.3.15  USE64BITINT DYNAMIC_ARCH NO_AFFINITY SkylakeX SINGLE_THREADED
        Core in use  :  SkylakeX
   Copyright (c) 2011-2014, The OpenBLAS Project




***************************************
The coordinates will be read from file: opt.xyz
***************************************


================================================================================

----- Orbital basis set information -----
Your calculation utilizes the basis: cc-pVDZ 
       H, B-Ne : Obtained from the ccRepo (grant-hill.group.shef.ac.uk/ccrepo) Feb. 2017
                 T. H. Dunning, Jr., J. Chem. Phys. 90, 1007 (1989)
            He : Obtained from the ccRepo (grant-hill.group.shef.ac.uk/ccrepo) Feb. 2017
                 D. E. Woon, T. H. Dunning, Jr., J. Chem. Phys. 100, 2975 (1994)
  Li-Be, Na-Mg : Obtained from the ccRepo (grant-hill.group.shef.ac.uk/ccrepo) Feb. 2017
                 B. P. Prascher, D. E. Woon, K. A. Peterson, T. H. Dunning, Jr., A. K. Wilson, Theor. Chem. Acc. 128, 69 (2011)
         Al-Ar : Obtained from the ccRepo (grant-hill.group.shef.ac.uk/ccrepo) Feb. 2017
                 D. E. Woon, T. H. Dunning, Jr., J. Chem. Phys. 98, 1358 (1993)
            Ca : Obtained from the Peterson Research Group Website (tyr0.chem.wsu.edu/~kipeters) Feb. 2017
                 J. Koput, K. A. Peterson, J. Phys. Chem. 106, 9595 (2002)
         Sc-Zn : Obtained from the ccRepo (grant-hill.group.shef.ac.uk/ccrepo) Feb. 2017
                 N. B. Balabanov, K. A. Peterson, J. Chem. Phys. 123, 064107 (2005)
                 N. B. Balabanov, K. A. Peterson, J. Chem. Phys. 125, 074110 (2006)
         Ga-Kr : Obtained from the ccRepo (grant-hill.group.shef.ac.uk/ccrepo) Feb. 2017
                 A. K. Wilson, D. E. Woon, K. A. Peterson, T. H. Dunning, Jr., J. Chem. Phys. 110, 7667 (1999)

----- AuxJ basis set information -----
Your calculation utilizes the AutoAux generation procedure.
  G. L. Stoychev, A. A. Auer, F. Neese, J. Chem. Theory Comput. 13, 554 (2017)

----- AuxC basis set information -----
Your calculation utilizes the AutoAux generation procedure.
  G. L. Stoychev, A. A. Auer, F. Neese, J. Chem. Theory Comput. 13, 554 (2017)

----- AuxJK basis set information -----
Your calculation utilizes the AutoAux generation procedure.
  G. L. Stoychev, A. A. Auer, F. Neese, J. Chem. Theory Comput. 13, 554 (2017)

================================================================================
                                        WARNINGS
                       Please study these warnings very carefully!
================================================================================

WARNING: Old DensityContainer found on disk!
         Will remove this file - 
         If you want to keep old densities, please start your calculation with a different basename. 


WARNING: your system is open-shell and RHF/RKS was chosen
  ===> : WILL SWITCH to UHF/UKS


INFO   : the flag for use of the SHARK integral package has been found!

================================================================================
                                       INPUT FILE
================================================================================
NAME = cc-pVDZ.inp
|  1> ! B3LYP cc-pVDZ AUTOAUX
|  2> %pal nprocs 16 end
|  3> *XYZFile 0 2 opt.xyz
|  4> %EPRNMR
|  5>         GTENSOR   TRUE
|  6>         NUCLEI    = ALL H {SHIFT, AISO, ADIP, AORB}
|  7>         ORI       CenterOfElCharge
|  8> END
|  9> 
| 10>                          ****END OF INPUT****
================================================================================

                       ****************************
                       * Single Point Calculation *
                       ****************************

---------------------------------
CARTESIAN COORDINATES (ANGSTROEM)
---------------------------------
  C     -4.099903    0.083492   -0.018353
  C     -2.815946    0.043661   -0.012330
  C      2.806008   -0.004269   -0.008539
  C     -1.423131    0.006681   -0.011521
  C     -0.708303   -1.246812   -0.013959
  C      0.675892   -1.194656   -0.012684
  C      1.390969    0.032616   -0.009322
  C      0.692187    1.284040   -0.006826
  C     -0.689714    1.234894   -0.008082
  H      1.259776   -2.114722   -0.014385
  H     -1.277365    2.152363   -0.006417
  C     -1.482678   -2.545270   -0.017742
  H     -2.162956   -2.531884   -0.888087
  H     -2.164001   -2.536305    0.851848
  C     -0.664773   -3.838900   -0.020463
  H     -0.001060   -3.863836   -0.904705
  H     -0.002550   -3.868472    0.864757
  C     -1.549765   -5.091581   -0.024486
  H     -2.216738   -5.067647    0.856694
  H     -2.214979   -5.063238   -0.906864
  C     -0.747242   -6.394947   -0.026958
  H     -0.098785   -6.468624    0.863263
  H     -0.096713   -6.463963   -0.916039
  C      1.475610    2.580851   -0.003105
  H      2.150780    2.571663    0.872485
  H      2.151902    2.575969   -0.877872
  C      0.660276    3.876516   -0.000466
  H     -0.001813    3.904739   -0.885019
  H     -0.003430    3.900164    0.883007
  C      1.545553    5.128838    0.003581
  H      2.210398    5.101571    0.886923
  H      2.212314    5.105900   -0.878438
  C      0.742544    6.432044    0.005924
  H      0.091762    6.499753    0.894507
  H      0.094086    6.504395   -0.883993
  C      4.030665   -0.051608   -0.009917
  H     -1.409442   -7.275742   -0.030044
  H      1.404248    7.313240    0.009096
  C      5.453353   -0.107226   -0.009647
  C      6.121835   -1.352501   -0.012193
  C      7.514506   -1.401458   -0.011853
  C      8.262259   -0.217737   -0.009063
  C      7.609924    1.021237   -0.006590
  C      6.217754    1.081653   -0.006879
  H      9.353772   -0.260949   -0.008833
  H      8.191473    1.945911   -0.004438
  H      5.533939   -2.272105   -0.014369
  H      5.703998    2.044629   -0.004992
  H      8.021809   -2.368853   -0.013791

----------------------------
CARTESIAN COORDINATES (A.U.)
----------------------------
  NO LB      ZA    FRAG     MASS         X           Y           Z
   0 C     6.0000    0    12.011   -7.747695    0.157777   -0.034681
   1 C     6.0000    0    12.011   -5.321367    0.082508   -0.023300
   2 C     6.0000    0    12.011    5.302587   -0.008067   -0.016136
   3 C     6.0000    0    12.011   -2.689327    0.012626   -0.021772
   4 C     6.0000    0    12.011   -1.338498   -2.356134   -0.026378
   5 C     6.0000    0    12.011    1.277250   -2.257573   -0.023968
   6 C     6.0000    0    12.011    2.628550    0.061636   -0.017615
   7 C     6.0000    0    12.011    1.308044    2.426484   -0.012899
   8 C     6.0000    0    12.011   -1.303370    2.333612   -0.015274
   9 H     1.0000    0     1.008    2.380632   -3.996246   -0.027183
  10 H     1.0000    0     1.008   -2.413870    4.067376   -0.012127
  11 C     6.0000    0    12.011   -2.801855   -4.809864   -0.033528
  12 H     1.0000    0     1.008   -4.087394   -4.784568   -1.678241
  13 H     1.0000    0     1.008   -4.089368   -4.792922    1.609759
  14 C     6.0000    0    12.011   -1.256239   -7.254469   -0.038669
  15 H     1.0000    0     1.008   -0.002004   -7.301591   -1.709645
  16 H     1.0000    0     1.008   -0.004819   -7.310352    1.634154
  17 C     6.0000    0    12.011   -2.928631   -9.621693   -0.046271
  18 H     1.0000    0     1.008   -4.189027   -9.576465    1.618917
  19 H     1.0000    0     1.008   -4.185703   -9.568134   -1.713724
  20 C     6.0000    0    12.011   -1.412082  -12.084699   -0.050944
  21 H     1.0000    0     1.008   -0.186676  -12.223929    1.631331
  22 H     1.0000    0     1.008   -0.182760  -12.215120   -1.731062
  23 C     6.0000    0    12.011    2.788498    4.877102   -0.005869
  24 H     1.0000    0     1.008    4.064385    4.859738    1.648758
  25 H     1.0000    0     1.008    4.066505    4.867877   -1.658937
  26 C     6.0000    0    12.011    1.247740    7.325553   -0.000880
  27 H     1.0000    0     1.008   -0.003427    7.378887   -1.672443
  28 H     1.0000    0     1.008   -0.006481    7.370242    1.668641
  29 C     6.0000    0    12.011    2.920672    9.692100    0.006766
  30 H     1.0000    0     1.008    4.177046    9.640572    1.676042
  31 H     1.0000    0     1.008    4.180668    9.648753   -1.660007
  32 C     6.0000    0    12.011    1.403204   12.154802    0.011194
  33 H     1.0000    0     1.008    0.173404   12.282753    1.690374
  34 H     1.0000    0     1.008    0.177797   12.291525   -1.670505
  35 C     6.0000    0    12.011    7.616852   -0.097524   -0.018740
  36 H     1.0000    0     1.008   -2.663459  -13.749160   -0.056774
  37 H     1.0000    0     1.008    2.653644   13.820020    0.017189
  38 C     6.0000    0    12.011   10.305343   -0.202628   -0.018229
  39 C     6.0000    0    12.011   11.568592   -2.555857   -0.023041
  40 C     6.0000    0    12.011   14.200358   -2.648371   -0.022399
  41 C     6.0000    0    12.011   15.613407   -0.411462   -0.017127
  42 C     6.0000    0    12.011   14.380671    1.929859   -0.012454
  43 C     6.0000    0    12.011   11.749853    2.044027   -0.012999
  44 H     1.0000    0     1.008   17.676068   -0.493123   -0.016692
  45 H     1.0000    0     1.008   15.479640    3.677238   -0.008386
  46 H     1.0000    0     1.008   10.457630   -4.293656   -0.027154
  47 H     1.0000    0     1.008   10.778994    3.863789   -0.009434
  48 H     1.0000    0     1.008   15.159023   -4.476483   -0.026062

--------------------------------
INTERNAL COORDINATES (ANGSTROEM)
--------------------------------
 C      0   0   0     0.000000000000     0.00000000     0.00000000
 C      1   0   0     1.284589265702     0.00000000     0.00000000
 C      2   1   0     5.622159564040   178.69126092     0.00000000
 C      2   1   3     1.393306467235   179.65227083   327.51862601
 C      4   2   1     1.442993883273   121.21551837   222.73457308
 C      5   4   2     1.385177188993   117.53671655   180.01241966
 C      3   2   1     1.415520374158     1.00472520    10.51896560
 C      7   3   6     1.433304942608   120.67155711   180.00251040
 C      8   7   3     1.382775381372   117.14154389   179.98635314
 H      6   5   4     1.089699859879   120.24164121   179.99764177
 H      9   8   7     1.089534381280   120.60315497   180.00627168
 C      5   4   2     1.511841308952   119.49432899     0.00000000
 H     12   5   4     1.104743120331   107.87680572    55.82062536
 H     12   5   4     1.104747614791   107.87550603   304.14905360
 C     12   5   4     1.530507626416   116.88572550   179.98859445
 H     15  12   5     1.105902563797   109.95017923   301.68270487
 H     15  12   5     1.105905796946   109.94886218    58.34142276
 C     15  12   5     1.533765592879   112.45643147   180.01139442
 H     18  15  12     1.105397466238   109.17036193   302.38938945
 H     18  15  12     1.105397471384   109.17092419    57.63473439
 C     18  15  12     1.530625053453   113.13789375   180.01165525
 H     21  18  15     1.103820012046   111.31832012    59.91451649
 H     21  18  15     1.103818579039   111.31786680   300.10869648
 C      8   7   3     1.515085539117   119.68484965     0.00000000
 H     24   8   7     1.105711363744   108.09370501   303.63215986
 H     24   8   7     1.105717523955   108.09186412    56.38210693
 C     24   8   7     1.530856693276   116.68202454   180.00524344
 H     27  24   8     1.105257054054   109.83292962   301.74343574
 H     27  24   8     1.105254637747   109.83506491    58.22504828
 C     27  24   8     1.533637708065   112.56201510   179.98517391
 H     30  27  24     1.105918558839   109.20769736   302.29351001
 H     30  27  24     1.105917187097   109.20681994    57.67887704
 C     30  27  24     1.530743191815   113.10279452   179.98667424
 H     33  30  27     1.103486639694   111.27512830    59.84427318
 H     33  30  27     1.103487301721   111.27567707   300.12528013
 C      3   2   1     1.225571968783   178.27174768   193.54086091
 H     21  18  15     1.101961246509   111.44164475   180.01211336
 H     33  30  27     1.101983520380   111.45612407   179.98418205
 C     36   3   7     1.423774642696   179.92062648   280.85853904
 C     39  36   3     1.413359540444   120.46627745    71.67101810
 C     40  39  36     1.393531182661   120.24078976   180.00300340
 C     41  40  39     1.400120858211   120.26715974     0.00000000
 C     42  41  40     1.400215882953   119.95224590     0.00000000
 C     43  42  41     1.393479491271   120.25218298     0.00000000
 H     42  41  40     1.092368032818   120.01330674   180.00156118
 H     43  42  41     1.092348237933   120.06596006   180.00156057
 H     40  39  36     1.091465535315   119.18205456     0.00000000
 H     44  43  42     1.091454396523   120.56513382   180.00202302
 H     41  40  39     1.092343317309   119.68577979   179.99739793

---------------------------
INTERNAL COORDINATES (A.U.)
---------------------------
 C      0   0   0     0.000000000000     0.00000000     0.00000000
 C      1   0   0     2.427521906753     0.00000000     0.00000000
 C      2   1   0    10.624341857241   178.69126092     0.00000000
 C      2   1   3     2.632967643696   179.65227083   327.51862601
 C      4   2   1     2.726863252309   121.21551837   222.73457308
 C      5   4   2     2.617605534151   117.53671655   180.01241966
 C      3   2   1     2.674945844144     1.00472520    10.51896560
 C      7   3   6     2.708553807925   120.67155711   180.00251040
 C      8   7   3     2.613066775522   117.14154389   179.98635314
 H      6   5   4     2.059234303345   120.24164121   179.99764177
 H      9   8   7     2.058921594110   120.60315497   180.00627168
 C      5   4   2     2.856966031868   119.49432899     0.00000000
 H     12   5   4     2.087661945760   107.87680572    55.82062536
 H     12   5   4     2.087670439058   107.87550603   304.14905360
 C     12   5   4     2.892240259804   116.88572550   179.98859445
 H     15  12   5     2.089852976379   109.95017923   301.68270487
 H     15  12   5     2.089859086144   109.94886218    58.34142276
 C     15  12   5     2.898396924173   112.45643147   180.01139442
 H     18  15  12     2.088898480320   109.17036193   302.38938945
 H     18  15  12     2.088898490044   109.17092419    57.63473439
 C     18  15  12     2.892462164744   113.13789375   180.01165525
 H     21  18  15     2.085917523909   111.31832012    59.91451649
 H     21  18  15     2.085914815918   111.31786680   300.10869648
 C      8   7   3     2.863096738396   119.68484965     0.00000000
 H     24   8   7     2.089491660641   108.09370501   303.63215986
 H     24   8   7     2.089503301752   108.09186412    56.38210693
 C     24   8   7     2.892899900573   116.68202454   180.00524344
 H     27  24   8     2.088633139747   109.83292962   301.74343574
 H     27  24   8     2.088628573588   109.83506491    58.22504828
 C     27  24   8     2.898155256898   112.56201510   179.98517391
 H     30  27  24     2.089883202627   109.20769736   302.29351001
 H     30  27  24     2.089880610411   109.20681994    57.67887704
 C     30  27  24     2.892685413895   113.10279452   179.98667424
 H     33  30  27     2.085287541462   111.27512830    59.84427318
 H     33  30  27     2.085288792513   111.27567707   300.12528013
 C      3   2   1     2.315995378411   178.27174768   193.54086091
 H     21  18  15     2.082404966096   111.44164475   180.01211336
 H     33  30  27     2.082447057613   111.45612407   179.98418205
 C     36   3   7     2.690544151116   179.92062648   280.85853904
 C     39  36   3     2.670862460204   120.46627745    71.67101810
 C     40  39  36     2.633392294308   120.24078976   180.00300340
 C     41  40  39     2.645844976410   120.26715974     0.00000000
 C     42  41  40     2.646024547148   119.95224590     0.00000000
 C     43  42  41     2.633294611738   120.25218298     0.00000000
 H     42  41  40     2.064276419477   120.01330674   180.00156118
 H     43  42  41     2.064239012566   120.06596006   180.00156057
 H     40  39  36     2.062570946359   119.18205456     0.00000000
 H     44  43  42     2.062549897092   120.56513382   180.00202302
 H     41  40  39     2.064229713932   119.68577979   179.99739793

---------------------
BASIS SET INFORMATION
---------------------
There are 2 groups of distinct atoms

 Group   1 Type C   : 17s4p1d contracted to 3s2p1d pattern {881/31/1}
 Group   2 Type H   : 4s1p contracted to 2s1p pattern {31/1}

Atom   0C    basis set group =>   1
Atom   1C    basis set group =>   1
Atom   2C    basis set group =>   1
Atom   3C    basis set group =>   1
Atom   4C    basis set group =>   1
Atom   5C    basis set group =>   1
Atom   6C    basis set group =>   1
Atom   7C    basis set group =>   1
Atom   8C    basis set group =>   1
Atom   9H    basis set group =>   2
Atom  10H    basis set group =>   2
Atom  11C    basis set group =>   1
Atom  12H    basis set group =>   2
Atom  13H    basis set group =>   2
Atom  14C    basis set group =>   1
Atom  15H    basis set group =>   2
Atom  16H    basis set group =>   2
Atom  17C    basis set group =>   1
Atom  18H    basis set group =>   2
Atom  19H    basis set group =>   2
Atom  20C    basis set group =>   1
Atom  21H    basis set group =>   2
Atom  22H    basis set group =>   2
Atom  23C    basis set group =>   1
Atom  24H    basis set group =>   2
Atom  25H    basis set group =>   2
Atom  26C    basis set group =>   1
Atom  27H    basis set group =>   2
Atom  28H    basis set group =>   2
Atom  29C    basis set group =>   1
Atom  30H    basis set group =>   2
Atom  31H    basis set group =>   2
Atom  32C    basis set group =>   1
Atom  33H    basis set group =>   2
Atom  34H    basis set group =>   2
Atom  35C    basis set group =>   1
Atom  36H    basis set group =>   2
Atom  37H    basis set group =>   2
Atom  38C    basis set group =>   1
Atom  39C    basis set group =>   1
Atom  40C    basis set group =>   1
Atom  41C    basis set group =>   1
Atom  42C    basis set group =>   1
Atom  43C    basis set group =>   1
Atom  44H    basis set group =>   2
Atom  45H    basis set group =>   2
Atom  46H    basis set group =>   2
Atom  47H    basis set group =>   2
Atom  48H    basis set group =>   2
---------------------------------
AUXILIARY/J BASIS SET INFORMATION
---------------------------------
There are 2 groups of distinct atoms

 Group   1 Type C   : 14s11p10d2f contracted to 14s11p10d2f pattern {11111111111111/11111111111/1111111111/11}
 Group   2 Type H   : 9s2p1d contracted to 9s2p1d pattern {111111111/11/1}

Atom   0C    basis set group =>   1
Atom   1C    basis set group =>   1
Atom   2C    basis set group =>   1
Atom   3C    basis set group =>   1
Atom   4C    basis set group =>   1
Atom   5C    basis set group =>   1
Atom   6C    basis set group =>   1
Atom   7C    basis set group =>   1
Atom   8C    basis set group =>   1
Atom   9H    basis set group =>   2
Atom  10H    basis set group =>   2
Atom  11C    basis set group =>   1
Atom  12H    basis set group =>   2
Atom  13H    basis set group =>   2
Atom  14C    basis set group =>   1
Atom  15H    basis set group =>   2
Atom  16H    basis set group =>   2
Atom  17C    basis set group =>   1
Atom  18H    basis set group =>   2
Atom  19H    basis set group =>   2
Atom  20C    basis set group =>   1
Atom  21H    basis set group =>   2
Atom  22H    basis set group =>   2
Atom  23C    basis set group =>   1
Atom  24H    basis set group =>   2
Atom  25H    basis set group =>   2
Atom  26C    basis set group =>   1
Atom  27H    basis set group =>   2
Atom  28H    basis set group =>   2
Atom  29C    basis set group =>   1
Atom  30H    basis set group =>   2
Atom  31H    basis set group =>   2
Atom  32C    basis set group =>   1
Atom  33H    basis set group =>   2
Atom  34H    basis set group =>   2
Atom  35C    basis set group =>   1
Atom  36H    basis set group =>   2
Atom  37H    basis set group =>   2
Atom  38C    basis set group =>   1
Atom  39C    basis set group =>   1
Atom  40C    basis set group =>   1
Atom  41C    basis set group =>   1
Atom  42C    basis set group =>   1
Atom  43C    basis set group =>   1
Atom  44H    basis set group =>   2
Atom  45H    basis set group =>   2
Atom  46H    basis set group =>   2
Atom  47H    basis set group =>   2
Atom  48H    basis set group =>   2
---------------------------------
AUXILIARY/C BASIS SET INFORMATION
---------------------------------
There are 2 groups of distinct atoms

 Group   1 Type C   : 14s11p10d2f contracted to 14s11p10d2f pattern {11111111111111/11111111111/1111111111/11}
 Group   2 Type H   : 9s2p1d contracted to 9s2p1d pattern {111111111/11/1}

Atom   0C    basis set group =>   1
Atom   1C    basis set group =>   1
Atom   2C    basis set group =>   1
Atom   3C    basis set group =>   1
Atom   4C    basis set group =>   1
Atom   5C    basis set group =>   1
Atom   6C    basis set group =>   1
Atom   7C    basis set group =>   1
Atom   8C    basis set group =>   1
Atom   9H    basis set group =>   2
Atom  10H    basis set group =>   2
Atom  11C    basis set group =>   1
Atom  12H    basis set group =>   2
Atom  13H    basis set group =>   2
Atom  14C    basis set group =>   1
Atom  15H    basis set group =>   2
Atom  16H    basis set group =>   2
Atom  17C    basis set group =>   1
Atom  18H    basis set group =>   2
Atom  19H    basis set group =>   2
Atom  20C    basis set group =>   1
Atom  21H    basis set group =>   2
Atom  22H    basis set group =>   2
Atom  23C    basis set group =>   1
Atom  24H    basis set group =>   2
Atom  25H    basis set group =>   2
Atom  26C    basis set group =>   1
Atom  27H    basis set group =>   2
Atom  28H    basis set group =>   2
Atom  29C    basis set group =>   1
Atom  30H    basis set group =>   2
Atom  31H    basis set group =>   2
Atom  32C    basis set group =>   1
Atom  33H    basis set group =>   2
Atom  34H    basis set group =>   2
Atom  35C    basis set group =>   1
Atom  36H    basis set group =>   2
Atom  37H    basis set group =>   2
Atom  38C    basis set group =>   1
Atom  39C    basis set group =>   1
Atom  40C    basis set group =>   1
Atom  41C    basis set group =>   1
Atom  42C    basis set group =>   1
Atom  43C    basis set group =>   1
Atom  44H    basis set group =>   2
Atom  45H    basis set group =>   2
Atom  46H    basis set group =>   2
Atom  47H    basis set group =>   2
Atom  48H    basis set group =>   2
----------------------------------
AUXILIARY/JK BASIS SET INFORMATION
----------------------------------
There are 2 groups of distinct atoms

 Group   1 Type C   : 14s11p10d2f contracted to 14s11p10d2f pattern {11111111111111/11111111111/1111111111/11}
 Group   2 Type H   : 9s2p1d contracted to 9s2p1d pattern {111111111/11/1}

Atom   0C    basis set group =>   1
Atom   1C    basis set group =>   1
Atom   2C    basis set group =>   1
Atom   3C    basis set group =>   1
Atom   4C    basis set group =>   1
Atom   5C    basis set group =>   1
Atom   6C    basis set group =>   1
Atom   7C    basis set group =>   1
Atom   8C    basis set group =>   1
Atom   9H    basis set group =>   2
Atom  10H    basis set group =>   2
Atom  11C    basis set group =>   1
Atom  12H    basis set group =>   2
Atom  13H    basis set group =>   2
Atom  14C    basis set group =>   1
Atom  15H    basis set group =>   2
Atom  16H    basis set group =>   2
Atom  17C    basis set group =>   1
Atom  18H    basis set group =>   2
Atom  19H    basis set group =>   2
Atom  20C    basis set group =>   1
Atom  21H    basis set group =>   2
Atom  22H    basis set group =>   2
Atom  23C    basis set group =>   1
Atom  24H    basis set group =>   2
Atom  25H    basis set group =>   2
Atom  26C    basis set group =>   1
Atom  27H    basis set group =>   2
Atom  28H    basis set group =>   2
Atom  29C    basis set group =>   1
Atom  30H    basis set group =>   2
Atom  31H    basis set group =>   2
Atom  32C    basis set group =>   1
Atom  33H    basis set group =>   2
Atom  34H    basis set group =>   2
Atom  35C    basis set group =>   1
Atom  36H    basis set group =>   2
Atom  37H    basis set group =>   2
Atom  38C    basis set group =>   1
Atom  39C    basis set group =>   1
Atom  40C    basis set group =>   1
Atom  41C    basis set group =>   1
Atom  42C    basis set group =>   1
Atom  43C    basis set group =>   1
Atom  44H    basis set group =>   2
Atom  45H    basis set group =>   2
Atom  46H    basis set group =>   2
Atom  47H    basis set group =>   2
Atom  48H    basis set group =>   2

Checking for AutoStart:
The File: cc-pVDZ.gbw exists
Trying to determine its content:
     ... Fine, the file contains calculation information
     ... Fine, the calculation information was read
     ... Fine, the file contains a basis set
     ... Fine, the basis set was read
     ... Fine, the file contains a geometry
     ... Fine, the geometry was read
     ... Fine, the file contains a set of orbitals
     ... Fine, the orbitals can be read
     => possible old guess file was deleted
     => GBW file was renamed to GES file
     => GES file is set as startup file
     => Guess is set to MORead
     ... now leaving AutoStart



           ************************************************************
           *        Program running with 16 parallel MPI-processes    *
           *              working on a common directory               *
           ************************************************************
------------------------------------------------------------------------------
                           ORCA GTO INTEGRAL CALCULATION
                           -- RI-GTO INTEGRALS CHOSEN --
------------------------------------------------------------------------------
------------------------------------------------------------------------------
                   ___                                                        
                  /   \      - P O W E R E D   B Y -                         
                 /     \                                                     
                 |  |  |   _    _      __       _____    __    __             
                 |  |  |  | |  | |    /  \     |  _  \  |  |  /  |          
                  \  \/   | |  | |   /    \    | | | |  |  | /  /          
                 / \  \   | |__| |  /  /\  \   | |_| |  |  |/  /          
                |  |  |   |  __  | /  /__\  \  |    /   |      \           
                |  |  |   | |  | | |   __   |  |    \   |  |\   \          
                \     /   | |  | | |  |  |  |  | |\  \  |  | \   \       
                 \___/    |_|  |_| |__|  |__|  |_| \__\ |__|  \__/        
                                                                              
                      - O R C A' S   B I G   F R I E N D -                    
                                      &                                       
                       - I N T E G R A L  F E E D E R -                       
                                                                              
 v1 FN, 2020, v2 2021                                                         
------------------------------------------------------------------------------


Reading SHARK input file cc-pVDZ.SHARKINP.tmp ... ok
----------------------
SHARK INTEGRAL PACKAGE
----------------------

Number of atoms                             ...     49
Number of basis functions                   ...    605
Number of shells                            ...    363
Maximum angular momentum                    ...      2
Integral batch strategy                     ... SHARK/LIBINT Hybrid
RI-J (if used) integral strategy            ... SPLIT-RIJ (Revised 2003 algorithm where possible)
Printlevel                                  ...      1
Contraction scheme used                     ... PARTIAL GENERAL contraction
Coulomb Range Separation                    ... NOT USED
Exchange Range Separation                   ... NOT USED
Finite Nucleus Model                        ... NOT USED
Auxiliary Coulomb fitting basis             ... AVAILABLE
   # of basis functions in Aux-J            ...   3164
   # of shells in Aux-J                     ...   1188
   Maximum angular momentum in Aux-J        ...      3
Auxiliary J/K fitting basis                 ... AVAILABLE
   # of basis functions in Aux-JK           ...   3164
   # of shells in Aux-JK                    ...   1188
   Maximum angular momentum in Aux-JK       ...      3
Auxiliary Correlation fitting basis         ... AVAILABLE
   # of basis functions in Aux-C            ...   3164
   # of shells in Aux-C                     ...   1188
   Maximum angular momentum in Aux-C        ...      3
Auxiliary 'external' fitting basis          ... NOT available
Integral threshold                          ...     1.000000e-10
Primitive cut-off                           ...     1.000000e-11
Primitive pair pre-selection threshold      ...     1.000000e-11

Calculating pre-screening integrals         ... done (  0.0 sec) Dimension = 363
Calculating pre-screening integrals (ORCA)  ... done (  0.1 sec) Dimension = 219
Organizing shell pair data                  ... done (  0.2 sec)
Shell pair information
Total number of shell pairs                 ...     66066
Shell pairs after pre-screening             ...     25651
Total number of primitive shell pairs       ...    106638
Primitive shell pairs kept                  ...     34613
          la=0 lb=0:  11103 shell pairs
          la=1 lb=0:   9072 shell pairs
          la=1 lb=1:   1617 shell pairs
          la=2 lb=0:   2711 shell pairs
          la=2 lb=1:    986 shell pairs
          la=2 lb=2:    162 shell pairs

Calculating one electron integrals          ... done (  0.0 sec)
Calculating RI/J V-Matrix + Cholesky decomp.... done (  0.8 sec)
Calculating RI/JK V-Matrix + Cholesky decomp... done (  0.7 sec)
Calculating RI/C V-Matrix + Cholesky decomp.... done (  0.7 sec)
Calculating Nuclear repulsion               ... done (  0.0 sec) ENN=   1728.320371376087 Eh

SHARK setup successfully completed in   3.0 seconds

Maximum memory used throughout the entire GTOINT-calculation: 41.7 MB


           ************************************************************
           *        Program running with 16 parallel MPI-processes    *
           *              working on a common directory               *
           ************************************************************
-------------------------------------------------------------------------------
                                 ORCA SCF
-------------------------------------------------------------------------------

------------
SCF SETTINGS
------------
Hamiltonian:
 Density Functional     Method          .... DFT(GTOs)
 Exchange Functional    Exchange        .... B88
   X-Alpha parameter    XAlpha          ....  0.666667
   Becke's b parameter  XBeta           ....  0.004200
 Correlation Functional Correlation     .... LYP
 LDA part of GGA corr.  LDAOpt          .... VWN-5
 Gradients option       PostSCFGGA      .... off
 Hybrid DFT is turned on
   Fraction HF Exchange ScalHFX         ....  0.200000
   Scaling of DF-GGA-X  ScalDFX         ....  0.720000
   Scaling of DF-GGA-C  ScalDFC         ....  0.810000
   Scaling of DF-LDA-C  ScalLDAC        ....  1.000000
   Perturbative correction              ....  0.000000
   Density functional embedding theory  .... OFF
   NL short-range parameter             ....  4.800000
 RI-approximation to the Coulomb term is turned on
   Number of AuxJ basis functions       .... 3164
   RIJ-COSX (HFX calculated with COS-X)).... on


General Settings:
 Integral files         IntName         .... cc-pVDZ
 Hartree-Fock type      HFTyp           .... UHF
 Total Charge           Charge          ....    0
 Multiplicity           Mult            ....    2
 Number of Electrons    NEL             ....  169
 Basis Dimension        Dim             ....  461
 Nuclear Repulsion      ENuc            ....   1728.3203713761 Eh

Convergence Acceleration:
 DIIS                   CNVDIIS         .... on
   Start iteration      DIISMaxIt       ....    12
   Startup error        DIISStart       ....  0.200000
   # of expansion vecs  DIISMaxEq       ....     5
   Bias factor          DIISBfac        ....   1.050
   Max. coefficient     DIISMaxC        ....  10.000
 Trust-Rad. Augm. Hess. CNVTRAH         .... auto
   Auto Start mean grad. ratio tolernc. ....  1.125000
   Auto Start start iteration           ....     1
   Auto Start num. interpolation iter.  ....    10
   Max. Number of Micro iterations      ....    16
   Max. Number of Macro iterations      .... Maxiter - #DIIS iter
   Number of Davidson start vectors     ....     2
   Converg. threshold I  (grad. norm)   ....   5.000e-05
   Converg. threshold II (energy diff.) ....   1.000e-06
   Grad. Scal. Fac. for Micro threshold ....   0.100
   Minimum threshold for Micro iter.    ....   0.010
   NR start threshold (gradient norm)   ....   0.001
   Initial trust radius                 ....   0.400
   Minimum AH scaling param. (alpha)    ....   1.000
   Maximum AH scaling param. (alpha)    .... 1000.000
   Orbital update algorithm             .... Taylor
   White noise on init. David. guess    .... on
   Maximum white noise                  ....   0.010
   Quad. conv. algorithm                .... NR
 SOSCF                  CNVSOSCF        .... off
 Level Shifting         CNVShift        .... on
   Level shift para.    LevelShift      ....    0.2500
   Turn off err/grad.   ShiftErr        ....    0.0010
 Zerner damping         CNVZerner       .... off
 Static damping         CNVDamp         .... on
   Fraction old density DampFac         ....    0.7000
   Max. Damping (<1)    DampMax         ....    0.9800
   Min. Damping (>=0)   DampMin         ....    0.0000
   Turn off err/grad.   DampErr         ....    0.1000
 Fernandez-Rico         CNVRico         .... off

SCF Procedure:
 Maximum # iterations   MaxIter         ....   125
 SCF integral mode      SCFMode         .... Direct
   Integral package                     .... SHARK and LIBINT hybrid scheme
 Reset frequency        DirectResetFreq ....    20
 Integral Threshold     Thresh          ....  1.000e-10 Eh
 Primitive CutOff       TCut            ....  1.000e-11 Eh

Convergence Tolerance:
 Convergence Check Mode ConvCheckMode   .... Total+1el-Energy
 Convergence forced     ConvForced      .... 0
 Energy Change          TolE            ....  1.000e-06 Eh
 1-El. energy change                    ....  1.000e-03 Eh
 DIIS Error             TolErr          ....  1.000e-06


Diagonalization of the overlap matrix:
Smallest eigenvalue                        ... 5.177e-05
Time for diagonalization                   ...    0.038 sec
Threshold for overlap eigenvalues          ... 1.000e-08
Number of eigenvalues below threshold      ... 0
Time for construction of square roots      ...    0.045 sec
Total time needed                          ...    0.084 sec

---------------------
INITIAL GUESS: MOREAD
---------------------
Guess MOs are being read from file: cc-pVDZ.ges
Input Geometry matches current geometry (good)
Input basis set matches current basis set (good)
MOs were renormalized
MOs were reorthogonalized (Cholesky)
                      ------------------
                      INITIAL GUESS DONE (   0.2 sec)
                      ------------------
-------------------
DFT GRID GENERATION
-------------------

General Integration Accuracy     IntAcc      ... 4.388
Radial Grid Type                 RadialGrid  ... OptM3 with GC (2021)
Angular Grid (max. ang.)         AngularGrid ... 4 (Lebedev-302)
Angular grid pruning method      GridPruning ... 4 (adaptive)
Weight generation scheme         WeightScheme... Becke
Basis function cutoff            BFCut       ... 1.0000e-10
Integration weight cutoff        WCut        ... 1.0000e-14
Angular grids for H and He will be reduced by one unit
Partially contracted basis set               ... off
Rotationally invariant grid construction     ... off

Total number of grid points                  ...   223003
Total number of batches                      ...     3511
Average number of points per batch           ...       63
Average number of grid points per atom       ...     4551
Time for grid setup =    1.517 sec

--------------------
COSX GRID GENERATION
--------------------

GRIDX 1
-------
General Integration Accuracy     IntAcc      ... 3.816
Radial Grid Type                 RadialGrid  ... OptM3 with GC (2021)
Angular Grid (max. ang.)         AngularGrid ... 1 (Lebedev-50)
Angular grid pruning method      GridPruning ... 4 (adaptive)
Weight generation scheme         WeightScheme... Becke
Basis function cutoff            BFCut       ... 1.0000e-10
Integration weight cutoff        WCut        ... 1.0000e-14
Angular grids for H and He will be reduced by one unit
Partially contracted basis set               ... on
Rotationally invariant grid construction     ... off

Total number of grid points                  ...    28396
Total number of batches                      ...      471
Average number of points per batch           ...       60
Average number of grid points per atom       ...      580
UseSFitting                                  ... on

GRIDX 2
-------
General Integration Accuracy     IntAcc      ... 4.020
Radial Grid Type                 RadialGrid  ... OptM3 with GC (2021)
Angular Grid (max. ang.)         AngularGrid ... 2 (Lebedev-110)
Angular grid pruning method      GridPruning ... 4 (adaptive)
Weight generation scheme         WeightScheme... Becke
Basis function cutoff            BFCut       ... 1.0000e-10
Integration weight cutoff        WCut        ... 1.0000e-14
Angular grids for H and He will be reduced by one unit
Partially contracted basis set               ... on
Rotationally invariant grid construction     ... off

Total number of grid points                  ...    60558
Total number of batches                      ...      971
Average number of points per batch           ...       62
Average number of grid points per atom       ...     1236
UseSFitting                                  ... on

GRIDX 3
-------
General Integration Accuracy     IntAcc      ... 4.338
Radial Grid Type                 RadialGrid  ... OptM3 with GC (2021)
Angular Grid (max. ang.)         AngularGrid ... 3 (Lebedev-194)
Angular grid pruning method      GridPruning ... 4 (adaptive)
Weight generation scheme         WeightScheme... Becke
Basis function cutoff            BFCut       ... 1.0000e-10
Integration weight cutoff        WCut        ... 1.0000e-14
Angular grids for H and He will be reduced by one unit
Partially contracted basis set               ... on
Rotationally invariant grid construction     ... off

Total number of grid points                  ...   132523
Total number of batches                      ...     2094
Average number of points per batch           ...       63
Average number of grid points per atom       ...     2705
UseSFitting                                  ... on

Time for X-Grid setup             =    2.732 sec

 re-compute Schwartz prescreening matrix in partically contracted basis (1) ...done (   0.118 sec)
--------------
SCF ITERATIONS
--------------
ITER       Energy         Delta-E        Max-DP      RMS-DP      [F,P]     Damp
               ***  Starting incremental Fock matrix formation  ***
  0   -928.8441690745   0.000000000000 0.00001042  0.00000009  0.0000222 0.7000
                 **** Energy Check signals convergence ****

               *****************************************************
               *                     SUCCESS                       *
               *           SCF CONVERGED AFTER   1 CYCLES          *
               *****************************************************

Old exchange energy                            =    -26.626377533 Eh
New exchange energy                            =    -26.626483467 Eh
Exchange energy change after final integration =     -0.000105934 Eh
Total energy after final integration           =   -928.844275208 Eh
Final COS-X integration done in                =     7.977 sec

----------------
TOTAL SCF ENERGY
----------------

Total Energy       :         -928.84427521 Eh          -25275.13769 eV

Components:
Nuclear Repulsion  :         1728.32037138 Eh           47029.98826 eV
Electronic Energy  :        -2657.16464658 Eh          -72305.12596 eV
One Electron Energy:        -4683.88057049 Eh         -127454.87000 eV
Two Electron Energy:         2026.71592391 Eh           55149.74405 eV
Max COSX asymmetry :            0.00000064 Eh               0.00002 eV

Virial components:
Potential Energy   :        -1851.30087946 Eh          -50376.45802 eV
Kinetic Energy     :          922.45660426 Eh           25101.32033 eV
Virial Ratio       :            2.00692463


DFT components:
N(Alpha)           :       85.000198251301 electrons
N(Beta)            :       84.000199789969 electrons
N(Total)           :      169.000398041270 electrons
E(X)               :     -105.615787166371 Eh       
E(C)               :       -6.571932828099 Eh       
E(XC)              :     -112.187719994470 Eh       
DFET-embed. en.    :        0.000000000000 Eh       

---------------
SCF CONVERGENCE
---------------

  Last Energy change         ...   -1.9902e-07  Tolerance :   1.0000e-06
  Last MAX-Density change    ...    2.9308e-06  Tolerance :   1.0000e-05
  Last RMS-Density change    ...    3.2081e-08  Tolerance :   1.0000e-06
  Last DIIS Error            ...    1.0539e-05  Tolerance :   1.0000e-06

             **** THE GBW FILE WAS UPDATED (cc-pVDZ.gbw) ****
             **** DENSITY cc-pVDZ.scfp WAS UPDATED ****
             **** ENERGY FILE WAS UPDATED (cc-pVDZ.en.tmp) ****
----------------------
UHF SPIN CONTAMINATION
----------------------

Warning: in a DFT calculation there is little theoretical justification to 
         calculate <S**2> as in Hartree-Fock theory. We will do it anyways
         but you should keep in mind that the values have only limited relevance

Expectation value of <S**2>     :     0.773573
Ideal value S*(S+1) for S=0.5   :     0.750000
Deviation                       :     0.023573

             **** THE GBW FILE WAS UPDATED (cc-pVDZ.gbw) ****
             **** DENSITY cc-pVDZ.scfp WAS UPDATED ****
----------------
ORBITAL ENERGIES
----------------
                 SPIN UP ORBITALS
  NO   OCC          E(Eh)            E(eV) 
   0   1.0000     -10.243936      -278.7517 
   1   1.0000     -10.235796      -278.5302 
   2   1.0000     -10.229532      -278.3597 
   3   1.0000     -10.222983      -278.1815 
   4   1.0000     -10.219877      -278.0970 
   5   1.0000     -10.219436      -278.0850 
   6   1.0000     -10.217115      -278.0218 
   7   1.0000     -10.216972      -278.0179 
   8   1.0000     -10.215135      -277.9679 
   9   1.0000     -10.212612      -277.8993 
  10   1.0000     -10.212520      -277.8968 
  11   1.0000     -10.212499      -277.8962 
  12   1.0000     -10.210890      -277.8524 
  13   1.0000     -10.209964      -277.8272 
  14   1.0000     -10.201256      -277.5903 
  15   1.0000     -10.192747      -277.3587 
  16   1.0000     -10.191174      -277.3160 
  17   1.0000     -10.189632      -277.2740 
  18   1.0000     -10.187884      -277.2264 
  19   1.0000     -10.184341      -277.1300 
  20   1.0000     -10.180760      -277.0326 
  21   1.0000     -10.178321      -276.9662 
  22   1.0000     -10.170912      -276.7646 
  23   1.0000     -10.168826      -276.7078 
  24   1.0000      -0.892953       -24.2985 
  25   1.0000      -0.882812       -24.0225 
  26   1.0000      -0.833109       -22.6701 
  27   1.0000      -0.814699       -22.1691 
  28   1.0000      -0.802337       -21.8327 
  29   1.0000      -0.796081       -21.6625 
  30   1.0000      -0.777315       -21.1518 
  31   1.0000      -0.769776       -20.9467 
  32   1.0000      -0.753152       -20.4943 
  33   1.0000      -0.738894       -20.1063 
  34   1.0000      -0.717976       -19.5371 
  35   1.0000      -0.706751       -19.2317 
  36   1.0000      -0.663040       -18.0422 
  37   1.0000      -0.657170       -17.8825 
  38   1.0000      -0.632568       -17.2130 
  39   1.0000      -0.629919       -17.1410 
  40   1.0000      -0.627392       -17.0722 
  41   1.0000      -0.601793       -16.3756 
  42   1.0000      -0.586002       -15.9459 
  43   1.0000      -0.572884       -15.5890 
  44   1.0000      -0.557510       -15.1706 
  45   1.0000      -0.524896       -14.2831 
  46   1.0000      -0.522235       -14.2107 
  47   1.0000      -0.498041       -13.5524 
  48   1.0000      -0.492797       -13.4097 
  49   1.0000      -0.480678       -13.0799 
  50   1.0000      -0.476556       -12.9677 
  51   1.0000      -0.475448       -12.9376 
  52   1.0000      -0.453698       -12.3458 
  53   1.0000      -0.445474       -12.1220 
  54   1.0000      -0.442483       -12.0406 
  55   1.0000      -0.435297       -11.8450 
  56   1.0000      -0.434858       -11.8331 
  57   1.0000      -0.429954       -11.6996 
  58   1.0000      -0.423930       -11.5357 
  59   1.0000      -0.418343       -11.3837 
  60   1.0000      -0.409789       -11.1509 
  61   1.0000      -0.403750       -10.9866 
  62   1.0000      -0.391175       -10.6444 
  63   1.0000      -0.382279       -10.4023 
  64   1.0000      -0.378811       -10.3080 
  65   1.0000      -0.374318       -10.1857 
  66   1.0000      -0.369223       -10.0471 
  67   1.0000      -0.367088        -9.9890 
  68   1.0000      -0.366845        -9.9824 
  69   1.0000      -0.353921        -9.6307 
  70   1.0000      -0.344090        -9.3632 
  71   1.0000      -0.341277        -9.2866 
  72   1.0000      -0.336166        -9.1475 
  73   1.0000      -0.332607        -9.0507 
  74   1.0000      -0.330815        -9.0019 
  75   1.0000      -0.330217        -8.9857 
  76   1.0000      -0.326476        -8.8839 
  77   1.0000      -0.310981        -8.4622 
  78   1.0000      -0.291550        -7.9335 
  79   1.0000      -0.277533        -7.5521 
  80   1.0000      -0.265888        -7.2352 
  81   1.0000      -0.262476        -7.1423 
  82   1.0000      -0.243637        -6.6297 
  83   1.0000      -0.242733        -6.6051 
  84   1.0000      -0.218479        -5.9451 
  85   0.0000      -0.080217        -2.1828 
  86   0.0000      -0.028679        -0.7804 
  87   0.0000      -0.028608        -0.7785 
  88   0.0000      -0.019184        -0.5220 
  89   0.0000       0.023079         0.6280 
  90   0.0000       0.039882         1.0853 
  91   0.0000       0.050851         1.3837 
  92   0.0000       0.054595         1.4856 
  93   0.0000       0.057297         1.5591 
  94   0.0000       0.067541         1.8379 
  95   0.0000       0.069776         1.8987 
  96   0.0000       0.076134         2.0717 
  97   0.0000       0.086291         2.3481 
  98   0.0000       0.087524         2.3816 
  99   0.0000       0.088226         2.4007 
 100   0.0000       0.090882         2.4730 
 101   0.0000       0.091390         2.4868 
 102   0.0000       0.101810         2.7704 
 103   0.0000       0.104974         2.8565 
 104   0.0000       0.118841         3.2338 
 105   0.0000       0.122644         3.3373 
 106   0.0000       0.127263         3.4630 
 107   0.0000       0.132388         3.6025 
 108   0.0000       0.141985         3.8636 
 109   0.0000       0.144231         3.9247 
 110   0.0000       0.145310         3.9541 
 111   0.0000       0.145400         3.9565 
 112   0.0000       0.152065         4.1379 
 113   0.0000       0.153042         4.1645 
 114   0.0000       0.156710         4.2643 
 115   0.0000       0.159409         4.3377 
 116   0.0000       0.166530         4.5315 
 117   0.0000       0.168788         4.5930 
 118   0.0000       0.178740         4.8638 
 119   0.0000       0.189749         5.1633 
 120   0.0000       0.191306         5.2057 
 121   0.0000       0.198566         5.4033 
 122   0.0000       0.205124         5.5817 
 123   0.0000       0.209745         5.7074 
 124   0.0000       0.212901         5.7933 
 125   0.0000       0.230628         6.2757 
 126   0.0000       0.235081         6.3969 
 127   0.0000       0.253169         6.8891 
 128   0.0000       0.260055         7.0765 
 129   0.0000       0.262686         7.1480 
 130   0.0000       0.268568         7.3081 
 131   0.0000       0.276355         7.5200 
 132   0.0000       0.288757         7.8575 
 133   0.0000       0.295957         8.0534 
 134   0.0000       0.311049         8.4641 
 135   0.0000       0.324438         8.8284 
 136   0.0000       0.347031         9.4432 
 137   0.0000       0.352260         9.5855 
 138   0.0000       0.359636         9.7862 
 139   0.0000       0.364861         9.9284 
 140   0.0000       0.386850        10.5267 
 141   0.0000       0.394954        10.7472 
 142   0.0000       0.403372        10.9763 
 143   0.0000       0.403423        10.9777 
 144   0.0000       0.406542        11.0626 
 145   0.0000       0.410369        11.1667 
 146   0.0000       0.414138        11.2693 
 147   0.0000       0.417451        11.3594 
 148   0.0000       0.421147        11.4600 
 149   0.0000       0.431947        11.7539 
 150   0.0000       0.432223        11.7614 
 151   0.0000       0.438405        11.9296 
 152   0.0000       0.450327        12.2540 
 153   0.0000       0.451186        12.2774 
 154   0.0000       0.456853        12.4316 
 155   0.0000       0.465426        12.6649 
 156   0.0000       0.466479        12.6935 
 157   0.0000       0.466864        12.7040 
 158   0.0000       0.477373        12.9900 
 159   0.0000       0.485444        13.2096 
 160   0.0000       0.487345        13.2613 
 161   0.0000       0.491576        13.3765 
 162   0.0000       0.491928        13.3860 
 163   0.0000       0.493490        13.4286 
 164   0.0000       0.497587        13.5400 
 165   0.0000       0.500625        13.6227 
 166   0.0000       0.503919        13.7123 
 167   0.0000       0.504691        13.7333 
 168   0.0000       0.508988        13.8503 
 169   0.0000       0.519370        14.1328 
 170   0.0000       0.527244        14.3470 
 171   0.0000       0.538043        14.6409 
 172   0.0000       0.538117        14.6429 
 173   0.0000       0.562843        15.3157 
 174   0.0000       0.565054        15.3759 
 175   0.0000       0.566965        15.4279 
 176   0.0000       0.568697        15.4750 
 177   0.0000       0.579258        15.7624 
 178   0.0000       0.580310        15.7910 
 179   0.0000       0.585745        15.9389 
 180   0.0000       0.596560        16.2332 
 181   0.0000       0.602065        16.3830 
 182   0.0000       0.610103        16.6017 
 183   0.0000       0.612132        16.6570 
 184   0.0000       0.613914        16.7055 
 185   0.0000       0.618127        16.8201 
 186   0.0000       0.623620        16.9696 
 187   0.0000       0.627493        17.0750 
 188   0.0000       0.630608        17.1597 
 189   0.0000       0.634668        17.2702 
 190   0.0000       0.638187        17.3659 
 191   0.0000       0.642523        17.4839 
 192   0.0000       0.647034        17.6067 
 193   0.0000       0.651434        17.7264 
 194   0.0000       0.652430        17.7535 
 195   0.0000       0.654953        17.8222 
 196   0.0000       0.655234        17.8298 
 197   0.0000       0.657381        17.8882 
 198   0.0000       0.659259        17.9393 
 199   0.0000       0.663511        18.0550 
 200   0.0000       0.666155        18.1270 
 201   0.0000       0.668407        18.1883 
 202   0.0000       0.669330        18.2134 
 203   0.0000       0.670887        18.2558 
 204   0.0000       0.677824        18.4445 
 205   0.0000       0.679428        18.4882 
 206   0.0000       0.685568        18.6553 
 207   0.0000       0.687049        18.6956 
 208   0.0000       0.691273        18.8105 
 209   0.0000       0.697141        18.9702 
 210   0.0000       0.703475        19.1425 
 211   0.0000       0.705267        19.1913 
 212   0.0000       0.710602        19.3365 
 213   0.0000       0.726521        19.7696 
 214   0.0000       0.729902        19.8616 
 215   0.0000       0.732745        19.9390 
 216   0.0000       0.736493        20.0410 
 217   0.0000       0.747920        20.3519 
 218   0.0000       0.754404        20.5284 
 219   0.0000       0.759039        20.6545 
 220   0.0000       0.771116        20.9831 
 221   0.0000       0.777156        21.1475 
 222   0.0000       0.788358        21.4523 
 223   0.0000       0.809255        22.0209 
 224   0.0000       0.818011        22.2592 
 225   0.0000       0.822523        22.3820 
 226   0.0000       0.830884        22.6095 
 227   0.0000       0.835966        22.7478 
 228   0.0000       0.837373        22.7861 
 229   0.0000       0.848371        23.0854 
 230   0.0000       0.860542        23.4165 
 231   0.0000       0.863859        23.5068 
 232   0.0000       0.869679        23.6652 
 233   0.0000       0.881761        23.9939 
 234   0.0000       0.892105        24.2754 
 235   0.0000       0.896459        24.3939 
 236   0.0000       0.900579        24.5060 
 237   0.0000       0.921599        25.0780 
 238   0.0000       0.923440        25.1281 
 239   0.0000       0.930237        25.3130 
 240   0.0000       0.949500        25.8372 
 241   0.0000       0.956729        26.0339 
 242   0.0000       0.964121        26.2351 
 243   0.0000       0.967901        26.3379 
 244   0.0000       0.977579        26.6013 
 245   0.0000       0.982970        26.7480 
 246   0.0000       0.985012        26.8035 
 247   0.0000       0.996629        27.1196 
 248   0.0000       1.008194        27.4343 
 249   0.0000       1.016182        27.6517 
 250   0.0000       1.023607        27.8538 
 251   0.0000       1.027267        27.9534 
 252   0.0000       1.030403        28.0387 
 253   0.0000       1.037011        28.2185 
 254   0.0000       1.040209        28.3055 
 255   0.0000       1.054581        28.6966 
 256   0.0000       1.072306        29.1789 
 257   0.0000       1.076018        29.2799 
 258   0.0000       1.094421        29.7807 
 259   0.0000       1.099338        29.9145 
 260   0.0000       1.103635        30.0314 
 261   0.0000       1.131326        30.7849 
 262   0.0000       1.145600        31.1734 
 263   0.0000       1.156902        31.4809 
 264   0.0000       1.165488        31.7145 
 265   0.0000       1.176764        32.0214 
 266   0.0000       1.184393        32.2290 
 267   0.0000       1.197574        32.5877 
 268   0.0000       1.199370        32.6365 
 269   0.0000       1.200436        32.6655 
 270   0.0000       1.207364        32.8541 
 271   0.0000       1.212580        32.9960 
 272   0.0000       1.213066        33.0092 
 273   0.0000       1.214005        33.0347 
 274   0.0000       1.218009        33.1437 
 275   0.0000       1.221674        33.2434 
 276   0.0000       1.246144        33.9093 
 277   0.0000       1.267928        34.5021 
 278   0.0000       1.275640        34.7119 
 279   0.0000       1.293458        35.1968 
 280   0.0000       1.296146        35.2699 
 281   0.0000       1.305356        35.5205 
 282   0.0000       1.317675        35.8558 
 283   0.0000       1.322264        35.9806 
 284   0.0000       1.336841        36.3773 
 285   0.0000       1.352161        36.7942 
 286   0.0000       1.365794        37.1651 
 287   0.0000       1.370752        37.3000 
 288   0.0000       1.373078        37.3633 
 289   0.0000       1.384378        37.6708 
 290   0.0000       1.399655        38.0865 
 291   0.0000       1.402569        38.1658 
 292   0.0000       1.418081        38.5879 
 293   0.0000       1.421966        38.6937 
 294   0.0000       1.423859        38.7452 
 295   0.0000       1.424586        38.7650 
 296   0.0000       1.454526        39.5797 
 297   0.0000       1.456931        39.6451 
 298   0.0000       1.458902        39.6988 
 299   0.0000       1.461004        39.7559 
 300   0.0000       1.467959        39.9452 
 301   0.0000       1.470057        40.0023 
 302   0.0000       1.478427        40.2301 
 303   0.0000       1.490801        40.5668 
 304   0.0000       1.491937        40.5977 
 305   0.0000       1.501926        40.8695 
 306   0.0000       1.514131        41.2016 
 307   0.0000       1.517235        41.2861 
 308   0.0000       1.531571        41.6762 
 309   0.0000       1.556209        42.3466 
 310   0.0000       1.559712        42.4419 
 311   0.0000       1.562628        42.5213 
 312   0.0000       1.564887        42.5828 
 313   0.0000       1.579525        42.9810 
 314   0.0000       1.585077        43.1321 
 315   0.0000       1.590615        43.2828 
 316   0.0000       1.596454        43.4417 
 317   0.0000       1.613062        43.8937 
 318   0.0000       1.614968        43.9455 
 319   0.0000       1.616513        43.9875 
 320   0.0000       1.617430        44.0125 
 321   0.0000       1.622701        44.1559 
 322   0.0000       1.625680        44.2370 
 323   0.0000       1.627313        44.2814 
 324   0.0000       1.628641        44.3176 
 325   0.0000       1.629196        44.3327 
 326   0.0000       1.635419        44.5020 
 327   0.0000       1.639483        44.6126 
 328   0.0000       1.641638        44.6712 
 329   0.0000       1.644888        44.7597 
 330   0.0000       1.656551        45.0770 
 331   0.0000       1.662296        45.2334 
 332   0.0000       1.665003        45.3070 
 333   0.0000       1.666951        45.3600 
 334   0.0000       1.677852        45.6567 
 335   0.0000       1.679556        45.7030 
 336   0.0000       1.683354        45.8064 
 337   0.0000       1.686184        45.8834 
 338   0.0000       1.689507        45.9738 
 339   0.0000       1.689758        45.9807 
 340   0.0000       1.697697        46.1967 
 341   0.0000       1.701128        46.2901 
 342   0.0000       1.709006        46.5044 
 343   0.0000       1.716427        46.7064 
 344   0.0000       1.719131        46.7799 
 345   0.0000       1.721121        46.8341 
 346   0.0000       1.726278        46.9744 
 347   0.0000       1.727192        46.9993 
 348   0.0000       1.742062        47.4039 
 349   0.0000       1.752377        47.6846 
 350   0.0000       1.754883        47.7528 
 351   0.0000       1.760120        47.8953 
 352   0.0000       1.765476        48.0410 
 353   0.0000       1.774042        48.2741 
 354   0.0000       1.775151        48.3043 
 355   0.0000       1.780934        48.4617 
 356   0.0000       1.788329        48.6629 
 357   0.0000       1.790296        48.7164 
 358   0.0000       1.793453        48.8023 
 359   0.0000       1.811417        49.2912 
 360   0.0000       1.812244        49.3137 
 361   0.0000       1.818446        49.4824 
 362   0.0000       1.821632        49.5691 
 363   0.0000       1.826370        49.6981 
 364   0.0000       1.830958        49.8229 
 365   0.0000       1.836360        49.9699 
 366   0.0000       1.844378        50.1881 
 367   0.0000       1.845517        50.2191 
 368   0.0000       1.845825        50.2274 
 369   0.0000       1.874709        51.0134 
 370   0.0000       1.892421        51.4954 
 371   0.0000       1.899418        51.6858 
 372   0.0000       1.901030        51.7297 
 373   0.0000       1.917563        52.1795 
 374   0.0000       1.919272        52.2260 
 375   0.0000       1.920374        52.2560 
 376   0.0000       1.929772        52.5118 
 377   0.0000       1.948953        53.0337 
 378   0.0000       1.953274        53.1513 
 379   0.0000       1.955867        53.2219 
 380   0.0000       1.962137        53.3925 
 381   0.0000       1.965861        53.4938 
 382   0.0000       1.976484        53.7829 
 383   0.0000       1.978305        53.8324 
 384   0.0000       1.991618        54.1947 
 385   0.0000       2.003808        54.5264 
 386   0.0000       2.016550        54.8731 
 387   0.0000       2.032747        55.3138 
 388   0.0000       2.053510        55.8788 
 389   0.0000       2.059474        56.0411 
 390   0.0000       2.075683        56.4822 
 391   0.0000       2.084038        56.7096 
 392   0.0000       2.084471        56.7213 
 393   0.0000       2.100503        57.1576 
 394   0.0000       2.105476        57.2929 
 395   0.0000       2.151258        58.5387 
 396   0.0000       2.161967        58.8301 
 397   0.0000       2.169033        59.0224 
 398   0.0000       2.169525        59.0358 
 399   0.0000       2.176677        59.2304 
 400   0.0000       2.187061        59.5130 
 401   0.0000       2.194166        59.7063 
 402   0.0000       2.195691        59.7478 
 403   0.0000       2.207903        60.0801 
 404   0.0000       2.214263        60.2532 
 405   0.0000       2.217865        60.3512 
 406   0.0000       2.226059        60.5742 
 407   0.0000       2.252364        61.2899 
 408   0.0000       2.266511        61.6749 
 409   0.0000       2.270403        61.7808 
 410   0.0000       2.283327        62.1325 
 411   0.0000       2.294323        62.4317 
 412   0.0000       2.294645        62.4405 
 413   0.0000       2.310737        62.8784 
 414   0.0000       2.316747        63.0419 
 415   0.0000       2.324107        63.2422 
 416   0.0000       2.332238        63.4634 
 417   0.0000       2.333079        63.4863 
 418   0.0000       2.348298        63.9004 
 419   0.0000       2.369327        64.4727 
 420   0.0000       2.390084        65.0375 
 421   0.0000       2.400501        65.3210 
 422   0.0000       2.403592        65.4051 
 423   0.0000       2.405103        65.4462 
 424   0.0000       2.408256        65.5320 
 425   0.0000       2.410707        65.5987 
 426   0.0000       2.412341        65.6431 
 427   0.0000       2.417372        65.7800 
 428   0.0000       2.419887        65.8485 
 429   0.0000       2.432374        66.1883 
 430   0.0000       2.478482        67.4429 
 431   0.0000       2.479967        67.4833 
 432   0.0000       2.501631        68.0728 
 433   0.0000       2.510298        68.3087 
 434   0.0000       2.529729        68.8374 
 435   0.0000       2.532294        68.9072 
 436   0.0000       2.550272        69.3964 
 437   0.0000       2.573496        70.0284 
 438   0.0000       2.582215        70.2656 
 439   0.0000       2.598616        70.7119 
 440   0.0000       2.608041        70.9684 
 441   0.0000       2.614672        71.1488 
 442   0.0000       2.616882        71.2090 
 443   0.0000       2.685315        73.0711 
 444   0.0000       2.700127        73.4742 
 445   0.0000       2.704753        73.6001 
 446   0.0000       2.707239        73.6677 
 447   0.0000       2.708493        73.7018 
 448   0.0000       2.713519        73.8386 
 449   0.0000       2.721175        74.0469 
 450   0.0000       2.734827        74.4184 
 451   0.0000       2.763217        75.1910 
 452   0.0000       2.813556        76.5607 
 453   0.0000       2.831465        77.0481 
 454   0.0000       2.838672        77.2442 
 455   0.0000       2.853753        77.6546 
 456   0.0000       2.866350        77.9974 
 457   0.0000       3.054580        83.1193 
 458   0.0000       3.074120        83.6511 
 459   0.0000       3.342470        90.9532 
 460   0.0000       3.566627        97.0528 

                 SPIN DOWN ORBITALS
  NO   OCC          E(Eh)            E(eV) 
   0   1.0000     -10.240858      -278.6679 
   1   1.0000     -10.236260      -278.5428 
   2   1.0000     -10.229969      -278.3716 
   3   1.0000     -10.220907      -278.1250 
   4   1.0000     -10.220887      -278.1245 
   5   1.0000     -10.217421      -278.0302 
   6   1.0000     -10.216523      -278.0057 
   7   1.0000     -10.216379      -278.0018 
   8   1.0000     -10.214505      -277.9508 
   9   1.0000     -10.213433      -277.9217 
  10   1.0000     -10.212899      -277.9071 
  11   1.0000     -10.212777      -277.9038 
  12   1.0000     -10.211114      -277.8586 
  13   1.0000     -10.209187      -277.8061 
  14   1.0000     -10.201203      -277.5888 
  15   1.0000     -10.192886      -277.3625 
  16   1.0000     -10.191178      -277.3160 
  17   1.0000     -10.189633      -277.2740 
  18   1.0000     -10.187886      -277.2265 
  19   1.0000     -10.184342      -277.1300 
  20   1.0000     -10.180760      -277.0326 
  21   1.0000     -10.178322      -276.9662 
  22   1.0000     -10.166975      -276.6575 
  23   1.0000     -10.164445      -276.5886 
  24   1.0000      -0.890009       -24.2184 
  25   1.0000      -0.881985       -24.0000 
  26   1.0000      -0.830845       -22.6085 
  27   1.0000      -0.812988       -22.1225 
  28   1.0000      -0.801840       -21.8192 
  29   1.0000      -0.793390       -21.5892 
  30   1.0000      -0.776816       -21.1382 
  31   1.0000      -0.769243       -20.9322 
  32   1.0000      -0.749849       -20.4044 
  33   1.0000      -0.737937       -20.0803 
  34   1.0000      -0.711205       -19.3529 
  35   1.0000      -0.698403       -19.0045 
  36   1.0000      -0.662305       -18.0222 
  37   1.0000      -0.652052       -17.7432 
  38   1.0000      -0.629617       -17.1327 
  39   1.0000      -0.629341       -17.1253 
  40   1.0000      -0.626978       -17.0609 
  41   1.0000      -0.600489       -16.3401 
  42   1.0000      -0.585872       -15.9424 
  43   1.0000      -0.572334       -15.5740 
  44   1.0000      -0.556817       -15.1517 
  45   1.0000      -0.523409       -14.2427 
  46   1.0000      -0.519963       -14.1489 
  47   1.0000      -0.497138       -13.5278 
  48   1.0000      -0.491768       -13.3817 
  49   1.0000      -0.480593       -13.0776 
  50   1.0000      -0.476215       -12.9585 
  51   1.0000      -0.474815       -12.9204 
  52   1.0000      -0.453352       -12.3363 
  53   1.0000      -0.444769       -12.1028 
  54   1.0000      -0.442335       -12.0365 
  55   1.0000      -0.434605       -11.8262 
  56   1.0000      -0.432786       -11.7767 
  57   1.0000      -0.429812       -11.6958 
  58   1.0000      -0.422665       -11.5013 
  59   1.0000      -0.418160       -11.3787 
  60   1.0000      -0.409158       -11.1338 
  61   1.0000      -0.400770       -10.9055 
  62   1.0000      -0.386774       -10.5247 
  63   1.0000      -0.381692       -10.3864 
  64   1.0000      -0.378363       -10.2958 
  65   1.0000      -0.374238       -10.1835 
  66   1.0000      -0.368906       -10.0384 
  67   1.0000      -0.366323        -9.9682 
  68   1.0000      -0.364751        -9.9254 
  69   1.0000      -0.351661        -9.5692 
  70   1.0000      -0.341171        -9.2837 
  71   1.0000      -0.336802        -9.1649 
  72   1.0000      -0.336147        -9.1470 
  73   1.0000      -0.332518        -9.0483 
  74   1.0000      -0.330604        -8.9962 
  75   1.0000      -0.329842        -8.9755 
  76   1.0000      -0.325995        -8.8708 
  77   1.0000      -0.297240        -8.0883 
  78   1.0000      -0.290662        -7.9093 
  79   1.0000      -0.276050        -7.5117 
  80   1.0000      -0.261541        -7.1169 
  81   1.0000      -0.244661        -6.6576 
  82   1.0000      -0.236282        -6.4296 
  83   1.0000      -0.234294        -6.3755 
  84   0.0000      -0.153136        -4.1671 
  85   0.0000      -0.069211        -1.8833 
  86   0.0000      -0.027139        -0.7385 
  87   0.0000      -0.017991        -0.4896 
  88   0.0000      -0.012617        -0.3433 
  89   0.0000       0.023499         0.6394 
  90   0.0000       0.040068         1.0903 
  91   0.0000       0.054659         1.4873 
  92   0.0000       0.057748         1.5714 
  93   0.0000       0.061949         1.6857 
  94   0.0000       0.068844         1.8733 
  95   0.0000       0.071066         1.9338 
  96   0.0000       0.077437         2.1072 
  97   0.0000       0.086707         2.3594 
  98   0.0000       0.088465         2.4073 
  99   0.0000       0.088475         2.4075 
 100   0.0000       0.090892         2.4733 
 101   0.0000       0.092002         2.5035 
 102   0.0000       0.102039         2.7766 
 103   0.0000       0.116373         3.1667 
 104   0.0000       0.119073         3.2401 
 105   0.0000       0.122909         3.3445 
 106   0.0000       0.127457         3.4683 
 107   0.0000       0.132506         3.6057 
 108   0.0000       0.144517         3.9325 
 109   0.0000       0.145471         3.9585 
 110   0.0000       0.145510         3.9595 
 111   0.0000       0.148083         4.0295 
 112   0.0000       0.152737         4.1562 
 113   0.0000       0.153330         4.1723 
 114   0.0000       0.157274         4.2796 
 115   0.0000       0.160882         4.3778 
 116   0.0000       0.168321         4.5802 
 117   0.0000       0.168844         4.5945 
 118   0.0000       0.182725         4.9722 
 119   0.0000       0.191256         5.2043 
 120   0.0000       0.199218         5.4210 
 121   0.0000       0.200357         5.4520 
 122   0.0000       0.205943         5.6040 
 123   0.0000       0.209850         5.7103 
 124   0.0000       0.213455         5.8084 
 125   0.0000       0.230776         6.2797 
 126   0.0000       0.235173         6.3994 
 127   0.0000       0.254073         6.9137 
 128   0.0000       0.261999         7.1293 
 129   0.0000       0.262834         7.1521 
 130   0.0000       0.269275         7.3273 
 131   0.0000       0.277366         7.5475 
 132   0.0000       0.290616         7.9081 
 133   0.0000       0.296508         8.0684 
 134   0.0000       0.314859         8.5678 
 135   0.0000       0.324987         8.8433 
 136   0.0000       0.348817         9.4918 
 137   0.0000       0.353416         9.6170 
 138   0.0000       0.360732         9.8160 
 139   0.0000       0.366038         9.9604 
 140   0.0000       0.388361        10.5678 
 141   0.0000       0.395590        10.7645 
 142   0.0000       0.403878        10.9901 
 143   0.0000       0.405408        11.0317 
 144   0.0000       0.406836        11.0706 
 145   0.0000       0.410570        11.1722 
 146   0.0000       0.414198        11.2709 
 147   0.0000       0.418567        11.3898 
 148   0.0000       0.421961        11.4822 
 149   0.0000       0.433137        11.7862 
 150   0.0000       0.434459        11.8222 
 151   0.0000       0.438941        11.9442 
 152   0.0000       0.451788        12.2938 
 153   0.0000       0.453265        12.3340 
 154   0.0000       0.457245        12.4423 
 155   0.0000       0.466754        12.7010 
 156   0.0000       0.467101        12.7105 
 157   0.0000       0.472123        12.8471 
 158   0.0000       0.477984        13.0066 
 159   0.0000       0.486257        13.2317 
 160   0.0000       0.488192        13.2844 
 161   0.0000       0.492094        13.3906 
 162   0.0000       0.492511        13.4019 
 163   0.0000       0.497970        13.5505 
 164   0.0000       0.499228        13.5847 
 165   0.0000       0.501263        13.6401 
 166   0.0000       0.504360        13.7243 
 167   0.0000       0.507757        13.8168 
 168   0.0000       0.511035        13.9060 
 169   0.0000       0.521068        14.1790 
 170   0.0000       0.533597        14.5199 
 171   0.0000       0.538948        14.6655 
 172   0.0000       0.541909        14.7461 
 173   0.0000       0.563618        15.3368 
 174   0.0000       0.566023        15.4023 
 175   0.0000       0.569168        15.4879 
 176   0.0000       0.576053        15.6752 
 177   0.0000       0.581004        15.8099 
 178   0.0000       0.582585        15.8530 
 179   0.0000       0.586605        15.9623 
 180   0.0000       0.597670        16.2634 
 181   0.0000       0.604733        16.4556 
 182   0.0000       0.613392        16.6912 
 183   0.0000       0.613822        16.7029 
 184   0.0000       0.614387        16.7183 
 185   0.0000       0.619772        16.8648 
 186   0.0000       0.623789        16.9742 
 187   0.0000       0.628286        17.0965 
 188   0.0000       0.631116        17.1735 
 189   0.0000       0.635223        17.2853 
 190   0.0000       0.638360        17.3707 
[...]
  Y          -0.0024326            0.9093731            0.4159744
  Z           0.9999969            0.0023948            0.0006126

Notes:  (1) The A matrix conforms to the "SAI" spin Hamiltonian convention.
        (2) Tensor is right-handed.

 -----------------------------------------------------------
 Nucleus  46H : A:ISTP=    1 I=  0.5 P=533.5514 MHz/au**3
                Q:ISTP=    2 I=  1.0 Q=  0.0029 barn     
 -----------------------------------------------------------
 Solving for nuclear perturbation:
Forming RHS of the CP-SCF equations         ... 
Calc. nucleus orbit integrals (SHARK)       ... done

------------------------------------------------------------------------------
                           ORCA CP-SCF CALCULATION
------------------------------------------------------------------------------

Input orbitals are from        ... cc-pVDZ.gbw
Input Perturbation             ... cc-pVDZ.pin.tmp
Wavefunction output            ... cc-pVDZ.pout.tmp
Perturbation mode              ... Imaginary perturbation
Solver                         ... POPLE
Max. number of iterations      ... 64
Convergence tolerance          ... 1.000e-03
Integral handling              ... Direct
DFT GridXC                     ... 1
COSX GridX                     ... 1
COSX IntAccX                   ... 3.067
COSX Algorithm                 ... Auto
Number of perturbations        ... 3
Number of operators            ... 2
Orbital ranges used for CP-SCF:
 Operator 0:  Orbitals   0... 84  to  85...460
 Operator 1:  Orbitals   0... 83  to  84...460
Variables per perturbation     ... 63628
DFT calculation                         ... on
XC functional terms                     ... off
Hybrid DFT                              ... on
   Exchange mixing (SCF)                ...  0.200
   Exchange mixing (CP-SCF)             ...  0.200
   GGA exch. scaling(SCF)               ...  0.720
   GGA exch. scaling (CP-SCF)           ...  0.720
   GGA corr. scaling (SCF)              ...  0.810
   GGA corr. scaling (CP-SCF)           ...  0.810

CP-SCF GRID
-----------

General Integration Accuracy     IntAcc      ... 3.467
Radial Grid Type                 RadialGrid  ... OptM3 with GC (2021)
Angular Grid (max. ang.)         AngularGrid ... 1 (Lebedev-50)
Angular grid pruning method      GridPruning ... 4 (adaptive)
Weight generation scheme         WeightScheme... Becke
Basis function cutoff            BFCut       ... 1.0000e-10
Integration weight cutoff        WCut        ... 1.0000e-14
Angular grids for H and He will be reduced by one unit
Partially contracted basis set               ... off
Rotationally invariant grid construction     ... off

Total number of grid points                  ...    31842
Total number of batches                      ...      519
Average number of points per batch           ...       61
Average number of grid points per atom       ...      650

CP-SCF GRIDX
------------

General Integration Accuracy     IntAcc      ... 3.067
Radial Grid Type                 RadialGrid  ... OptM3 with GC (2021)
Angular Grid (max. ang.)         AngularGrid ... 1 (Lebedev-50)
Angular grid pruning method      GridPruning ... 4 (adaptive)
Weight generation scheme         WeightScheme... Becke
Basis function cutoff            BFCut       ... 1.0000e-10
Integration weight cutoff        WCut        ... 1.0000e-14
Angular grids for H and He will be reduced by one unit
Partially contracted basis set               ... on
Rotationally invariant grid construction     ... off

Total number of grid points                  ...    14941
Total number of batches                      ...      262
Average number of points per batch           ...       57
Average number of grid points per atom       ...      305

Memory available               ... 875.6 MB
Memory needed per perturbation ...  13.4 MB
Perturbations treated per batch... 3
Number of batches              ... 1
     CP-SCF ITERATION   0:   4.5903e-02 (   1.9 sec   0/  3 done)
     CP-SCF ITERATION   1:   2.1113e-03 (   1.9 sec   0/  3 done)
     CP-SCF ITERATION   2:   4.3550e-04 (   1.9 sec   3/  3 done)
                    *** THE CP-SCF HAS CONVERGED ***

Forming final perturbed densities           ... done
Transforming perturbed density to AO basis  ... done

 Raw HFC matrix (all values in MHz): 
 -----------------------------------
                -3.0115               0.7391               0.0019
                 0.7391              -1.5915               0.0038
                 0.0019               0.0038              -3.2083

 A(FC)          -2.6043              -2.6043              -2.6043
 A(SD)           1.3273              -0.6039              -0.7234
 A(ORB+DIA)      0.0004              -0.0001               0.0014    A(PC) =   0.0006
 A(ORB)          0.0001               0.0000               0.0013    A(PC) =   0.0005
 A(DIA)          0.0003              -0.0001               0.0001    A(PC) =   0.0001
             ----------           ----------           ----------
 A(Tot)         -1.2766              -3.2083              -3.3264    A(iso)=   -2.6038
 Orientation: 
  X           0.3919476            0.0010096            0.9199870
  Y           0.9199850           -0.0027888           -0.3919437
  Z           0.0021700            0.9999956           -0.0020219

Notes:  (1) The A matrix conforms to the "SAI" spin Hamiltonian convention.
        (2) Tensor is right-handed.

 -----------------------------------------------------------
 Nucleus  47H : A:ISTP=    1 I=  0.5 P=533.5514 MHz/au**3
                Q:ISTP=    2 I=  1.0 Q=  0.0029 barn     
 -----------------------------------------------------------
 Solving for nuclear perturbation:
Forming RHS of the CP-SCF equations         ... 
Calc. nucleus orbit integrals (SHARK)       ... done

------------------------------------------------------------------------------
                           ORCA CP-SCF CALCULATION
------------------------------------------------------------------------------

Input orbitals are from        ... cc-pVDZ.gbw
Input Perturbation             ... cc-pVDZ.pin.tmp
Wavefunction output            ... cc-pVDZ.pout.tmp
Perturbation mode              ... Imaginary perturbation
Solver                         ... POPLE
Max. number of iterations      ... 64
Convergence tolerance          ... 1.000e-03
Integral handling              ... Direct
DFT GridXC                     ... 1
COSX GridX                     ... 1
COSX IntAccX                   ... 3.067
COSX Algorithm                 ... Auto
Number of perturbations        ... 3
Number of operators            ... 2
Orbital ranges used for CP-SCF:
 Operator 0:  Orbitals   0... 84  to  85...460
 Operator 1:  Orbitals   0... 83  to  84...460
Variables per perturbation     ... 63628
DFT calculation                         ... on
XC functional terms                     ... off
Hybrid DFT                              ... on
   Exchange mixing (SCF)                ...  0.200
   Exchange mixing (CP-SCF)             ...  0.200
   GGA exch. scaling(SCF)               ...  0.720
   GGA exch. scaling (CP-SCF)           ...  0.720
   GGA corr. scaling (SCF)              ...  0.810
   GGA corr. scaling (CP-SCF)           ...  0.810

CP-SCF GRID
-----------

General Integration Accuracy     IntAcc      ... 3.467
Radial Grid Type                 RadialGrid  ... OptM3 with GC (2021)
Angular Grid (max. ang.)         AngularGrid ... 1 (Lebedev-50)
Angular grid pruning method      GridPruning ... 4 (adaptive)
Weight generation scheme         WeightScheme... Becke
Basis function cutoff            BFCut       ... 1.0000e-10
Integration weight cutoff        WCut        ... 1.0000e-14
Angular grids for H and He will be reduced by one unit
Partially contracted basis set               ... off
Rotationally invariant grid construction     ... off

Total number of grid points                  ...    31842
Total number of batches                      ...      519
Average number of points per batch           ...       61
Average number of grid points per atom       ...      650

CP-SCF GRIDX
------------

General Integration Accuracy     IntAcc      ... 3.067
Radial Grid Type                 RadialGrid  ... OptM3 with GC (2021)
Angular Grid (max. ang.)         AngularGrid ... 1 (Lebedev-50)
Angular grid pruning method      GridPruning ... 4 (adaptive)
Weight generation scheme         WeightScheme... Becke
Basis function cutoff            BFCut       ... 1.0000e-10
Integration weight cutoff        WCut        ... 1.0000e-14
Angular grids for H and He will be reduced by one unit
Partially contracted basis set               ... on
Rotationally invariant grid construction     ... off

Total number of grid points                  ...    14941
Total number of batches                      ...      262
Average number of points per batch           ...       57
Average number of grid points per atom       ...      305

Memory available               ... 875.0 MB
Memory needed per perturbation ...  13.4 MB
Perturbations treated per batch... 3
Number of batches              ... 1
     CP-SCF ITERATION   0:   4.5985e-02 (   1.9 sec   0/  3 done)
     CP-SCF ITERATION   1:   2.1082e-03 (   2.0 sec   0/  3 done)
     CP-SCF ITERATION   2:   4.3796e-04 (   1.9 sec   3/  3 done)
                    *** THE CP-SCF HAS CONVERGED ***

Forming final perturbed densities           ... done
Transforming perturbed density to AO basis  ... done

 Raw HFC matrix (all values in MHz): 
 -----------------------------------
                -3.1322              -0.6040              -0.0011
                -0.6040              -1.4700               0.0037
                -0.0011               0.0037              -3.2018

 A(FC)          -2.6020              -2.6020              -2.6020
 A(SD)           1.3278              -0.5998              -0.7280
 A(ORB+DIA)      0.0004              -0.0001               0.0014    A(PC) =   0.0006
 A(ORB)          0.0002               0.0000               0.0013    A(PC) =   0.0005
 A(DIA)          0.0003              -0.0001               0.0001    A(PC) =   0.0001
             ----------           ----------           ----------
 A(Tot)         -1.2737              -3.2018              -3.3285    A(iso)=   -2.6014
 Orientation: 
  X          -0.3090664            0.0014778            0.9510393
  Y           0.9510383           -0.0016400            0.3090686
  Z           0.0020165            0.9999976           -0.0008986

Notes:  (1) The A matrix conforms to the "SAI" spin Hamiltonian convention.
        (2) Tensor is right-handed.

 -----------------------------------------------------------
 Nucleus  48H : A:ISTP=    1 I=  0.5 P=533.5514 MHz/au**3
                Q:ISTP=    2 I=  1.0 Q=  0.0029 barn     
 -----------------------------------------------------------
 Solving for nuclear perturbation:
Forming RHS of the CP-SCF equations         ... 
Calc. nucleus orbit integrals (SHARK)       ... done

------------------------------------------------------------------------------
                           ORCA CP-SCF CALCULATION
------------------------------------------------------------------------------

Input orbitals are from        ... cc-pVDZ.gbw
Input Perturbation             ... cc-pVDZ.pin.tmp
Wavefunction output            ... cc-pVDZ.pout.tmp
Perturbation mode              ... Imaginary perturbation
Solver                         ... POPLE
Max. number of iterations      ... 64
Convergence tolerance          ... 1.000e-03
Integral handling              ... Direct
DFT GridXC                     ... 1
COSX GridX                     ... 1
COSX IntAccX                   ... 3.067
COSX Algorithm                 ... Auto
Number of perturbations        ... 3
Number of operators            ... 2
Orbital ranges used for CP-SCF:
 Operator 0:  Orbitals   0... 84  to  85...460
 Operator 1:  Orbitals   0... 83  to  84...460
Variables per perturbation     ... 63628
DFT calculation                         ... on
XC functional terms                     ... off
Hybrid DFT                              ... on
   Exchange mixing (SCF)                ...  0.200
   Exchange mixing (CP-SCF)             ...  0.200
   GGA exch. scaling(SCF)               ...  0.720
   GGA exch. scaling (CP-SCF)           ...  0.720
   GGA corr. scaling (SCF)              ...  0.810
   GGA corr. scaling (CP-SCF)           ...  0.810

CP-SCF GRID
-----------

General Integration Accuracy     IntAcc      ... 3.467
Radial Grid Type                 RadialGrid  ... OptM3 with GC (2021)
Angular Grid (max. ang.)         AngularGrid ... 1 (Lebedev-50)
Angular grid pruning method      GridPruning ... 4 (adaptive)
Weight generation scheme         WeightScheme... Becke
Basis function cutoff            BFCut       ... 1.0000e-10
Integration weight cutoff        WCut        ... 1.0000e-14
Angular grids for H and He will be reduced by one unit
Partially contracted basis set               ... off
Rotationally invariant grid construction     ... off

Total number of grid points                  ...    31842
Total number of batches                      ...      519
Average number of points per batch           ...       61
Average number of grid points per atom       ...      650

CP-SCF GRIDX
------------

General Integration Accuracy     IntAcc      ... 3.067
Radial Grid Type                 RadialGrid  ... OptM3 with GC (2021)
Angular Grid (max. ang.)         AngularGrid ... 1 (Lebedev-50)
Angular grid pruning method      GridPruning ... 4 (adaptive)
Weight generation scheme         WeightScheme... Becke
Basis function cutoff            BFCut       ... 1.0000e-10
Integration weight cutoff        WCut        ... 1.0000e-14
Angular grids for H and He will be reduced by one unit
Partially contracted basis set               ... on
Rotationally invariant grid construction     ... off

Total number of grid points                  ...    14941
Total number of batches                      ...      262
Average number of points per batch           ...       57
Average number of grid points per atom       ...      305

Memory available               ... 874.5 MB
Memory needed per perturbation ...  13.4 MB
Perturbations treated per batch... 3
Number of batches              ... 1
     CP-SCF ITERATION   0:   4.1734e-02 (   2.0 sec   0/  3 done)
     CP-SCF ITERATION   1:   1.7412e-03 (   1.9 sec   1/  3 done)
     CP-SCF ITERATION   2:   9.4254e-05 (   1.5 sec   3/  3 done)
                    *** THE CP-SCF HAS CONVERGED ***

Forming final perturbed densities           ... done
Transforming perturbed density to AO basis  ... done

 Raw HFC matrix (all values in MHz): 
 -----------------------------------
                 1.6954               0.2876               0.0009
                 0.2875               1.0164               0.0007
                 0.0009               0.0007               0.7118

 A(FC)           1.1412               1.1412               1.1412
 A(SD)          -0.4295              -0.2305               0.6600
 A(ORB+DIA)      0.0000               0.0003              -0.0003    A(PC) =   0.0000
 A(ORB)         -0.0000               0.0003              -0.0003    A(PC) =  -0.0000
 A(DIA)          0.0001               0.0000               0.0001    A(PC) =   0.0001
             ----------           ----------           ----------
 A(Tot)          0.7118               0.9110               1.8009    A(iso)=    1.1412
 Orientation: 
  X          -0.0004223           -0.3442376           -0.9388825
  Y          -0.0018456            0.9388812           -0.3442363
  Z           0.9999982            0.0015874           -0.0010319

Notes:  (1) The A matrix conforms to the "SAI" spin Hamiltonian convention.
        (2) Tensor is right-handed.


--------------------------------------------------------------------------------
----------------------------------------------------------------------------
                           ORCA EULER ANGLE PROGRAM
----------------------------------------------------------------------------

Only g-tensor available        -->  using g-tensor as reference tensor

Reference tensor               ...  g

g-tensor ordering              ...  |g_min> --> |gx>
                                    |g_mid> --> |gy>
                                    |g_max> --> |gz>

A- and EFG-tensor ordering     ...  the axes |Ax>, |Qx>, |Ay>, etc. are assigned
                                    such that the Euler rotation is minimal. You
                                    can find the respective eigenvalues as Ax,
                                    EFGx, Ay, etc. in the tables below.
                                    The relation of |Ax>, |Ay>,  etc. to Amin, Amid, etc.
                                    (as printed in the ORCA EPR/NMR CALCULATION Output)
                                    is obtained in the detailed printout.

Euler rotation around          ...  z - y - z
   First rotation              -->  by alpha around z
   Second rotation             -->  by beta around y'
   Third rotation              -->  by gamma around z''
   Positive / Negative angle   -->  clockwise / counterclockwise rotation

Plot EFG-tensors                    (-)
Plot HFC-tensors                    (-)
Detailed Printout                   (-)

-------------------------------------------------------------------------
          Euler rotation of hyperfine tensor to g-tensor
-------------------------------------------------------------------------

-------------------------------------------------------------------
 Atom  |   Alpha    Beta    Gamma   |   Ax       Ay       Az 
       |          [degrees]         |           [MHz]         
-------------------------------------------------------------------
  9H       90.5     36.9    -90.5       2.45     3.31     6.42
 10H       90.9     19.7    -90.9      -9.86    -3.45   -10.59
 12H       60.0     14.6    -43.2      10.30    15.08    11.85
 13H      121.8     15.1   -138.5      10.30    15.08    11.86
 15H       78.0     29.1    -63.7      -0.94     0.89    -0.74
 16H      103.4     29.5   -117.6      -0.94     0.89    -0.74
 18H      144.5      7.3   -153.8      -0.39     0.87    -0.29
 19H       39.1      6.6    -29.7      -0.39     0.87    -0.29
 21H       93.4     16.8   -101.2      -0.18     0.38    -0.11
 22H       89.3     16.7    -81.4      -0.18     0.38    -0.11
 24H      -96.9     27.6    112.2      -4.71    -3.11    -3.98
 25H      -84.7     27.3     69.3      -4.71    -3.11    -3.98
 27H      -82.7     25.9     70.0      -0.23     1.44    -0.04
 28H      -99.0     26.2    111.6      -0.23     1.44    -0.04
 30H      -95.5     28.6    105.4      -0.31     0.28    -0.15
 31H      -86.0     28.5     76.0      -0.31     0.28    -0.15
 33H      -91.4     15.2     99.0      -0.21     0.32    -0.15
 34H      -91.5     15.2     83.9      -0.21     0.32    -0.15
 36H       93.2      7.3    -93.2      -0.17     0.30    -0.14
 37H      -91.2     19.2     91.1      -0.14     0.21    -0.09
 44H     -110.3      1.0    110.3      -3.08    -4.80    -0.96
 45H      -90.9     23.3     90.8       0.71     0.92     1.79
 46H      -91.2     21.8     91.1      -3.21    -1.28    -3.33
 47H       91.4     19.3    -91.3      -3.20    -1.27    -3.33
 48H       91.0     21.4    -90.9       0.71     0.91     1.80
-------------------------------------------------------------------


Maximum memory used throughout the entire EPRNMR-calculation: 219.5 MB

Timings for individual modules:

Sum of individual times         ...     4898.403 sec (=  81.640 min)
GTO integral calculation        ...        5.373 sec (=   0.090 min)   0.1 %
Spin-Orbit-Coupling Matrices    ...        9.743 sec (=   0.162 min)   0.2 %
SCF iterations                  ...       31.312 sec (=   0.522 min)   0.6 %
EPR/NMR calculation             ...     4851.974 sec (=  80.866 min)  99.1 %
                             ****ORCA TERMINATED NORMALLY****
TOTAL RUN TIME: 0 days 1 hours 21 minutes 43 seconds 202 msec
