
                                 *****************
                                 * O   R   C   A *
                                 *****************

                                            #,                                       
                                            ###                                      
                                            ####                                     
                                            #####                                    
                                            ######                                   
                                           ########,                                 
                                     ,,################,,,,,                         
                               ,,#################################,,                 
                          ,,##########################################,,             
                       ,#########################################, ''#####,          
                    ,#############################################,,   '####,        
                  ,##################################################,,,,####,       
                ,###########''''           ''''###############################       
              ,#####''   ,,,,##########,,,,          '''####'''          '####       
            ,##' ,,,,###########################,,,                        '##       
           ' ,,###''''                  '''############,,,                           
         ,,##''                                '''############,,,,        ,,,,,,###''
      ,#''                                            '''#######################'''  
     '                                                          ''''####''''         
             ,#######,   #######,   ,#######,      ##                                
            ,#'     '#,  ##    ##  ,#'     '#,    #''#        ######   ,####,        
            ##       ##  ##   ,#'  ##            #'  '#       #        #'  '#        
            ##       ##  #######   ##           ,######,      #####,   #    #        
            '#,     ,#'  ##    ##  '#,     ,#' ,#      #,         ##   #,  ,#        
             '#######'   ##     ##  '#######'  #'      '#     #####' # '####'        



                  #######################################################
                  #                        -***-                        #
                  #          Department of theory and spectroscopy      #
                  #    Directorship and core code : Frank Neese         #
                  #        Max Planck Institute fuer Kohlenforschung    #
                  #                Kaiser Wilhelm Platz 1               #
                  #                 D-45470 Muelheim/Ruhr               #
                  #                      Germany                        #
                  #                                                     #
                  #                  All rights reserved                #
                  #                        -***-                        #
                  #######################################################


                         Program Version 5.0.4 -  RELEASE  -


 With contributions from (in alphabetic order):
   Daniel Aravena         : Magnetic Suceptibility
   Michael Atanasov       : Ab Initio Ligand Field Theory (pilot matlab implementation)
   Alexander A. Auer      : GIAO ZORA, VPT2 properties, NMR spectrum
   Ute Becker             : Parallelization
   Giovanni Bistoni       : ED, misc. LED, open-shell LED, HFLD
   Martin Brehm           : Molecular dynamics
   Dmytro Bykov           : SCF Hessian
   Vijay G. Chilkuri      : MRCI spin determinant printing, contributions to CSF-ICE
   Dipayan Datta          : RHF DLPNO-CCSD density
   Achintya Kumar Dutta   : EOM-CC, STEOM-CC
   Dmitry Ganyushin       : Spin-Orbit,Spin-Spin,Magnetic field MRCI
   Miquel Garcia          : C-PCM and meta-GGA Hessian, CC/C-PCM, Gaussian charge scheme
   Yang Guo               : DLPNO-NEVPT2, F12-NEVPT2, CIM, IAO-localization
   Andreas Hansen         : Spin unrestricted coupled pair/coupled cluster methods
   Benjamin Helmich-Paris : MC-RPA, TRAH-SCF, COSX integrals
   Lee Huntington         : MR-EOM, pCC
   Robert Izsak           : Overlap fitted RIJCOSX, COSX-SCS-MP3, EOM
   Marcus Kettner         : VPT2
   Christian Kollmar      : KDIIS, OOCD, Brueckner-CCSD(T), CCSD density, CASPT2, CASPT2-K
   Simone Kossmann        : Meta GGA functionals, TD-DFT gradient, OOMP2, MP2 Hessian
   Martin Krupicka        : Initial AUTO-CI
   Lucas Lang             : DCDCAS
   Marvin Lechner         : AUTO-CI (C++ implementation), FIC-MRCC
   Dagmar Lenk            : GEPOL surface, SMD
   Dimitrios Liakos       : Extrapolation schemes; Compound Job, initial MDCI parallelization
   Dimitrios Manganas     : Further ROCIS development; embedding schemes
   Dimitrios Pantazis     : SARC Basis sets
   Anastasios Papadopoulos: AUTO-CI, single reference methods and gradients
   Taras Petrenko         : DFT Hessian,TD-DFT gradient, ASA, ECA, R-Raman, ABS, FL, XAS/XES, NRVS
   Peter Pinski           : DLPNO-MP2, DLPNO-MP2 Gradient
   Christoph Reimann      : Effective Core Potentials
   Marius Retegan         : Local ZFS, SOC
   Christoph Riplinger    : Optimizer, TS searches, QM/MM, DLPNO-CCSD(T), (RO)-DLPNO pert. Triples
   Tobias Risthaus        : Range-separated hybrids, TD-DFT gradient, RPA, STAB
   Michael Roemelt        : Original ROCIS implementation
   Masaaki Saitow         : Open-shell DLPNO-CCSD energy and density
   Barbara Sandhoefer     : DKH picture change effects
   Avijit Sen             : IP-ROCIS
   Kantharuban Sivalingam : CASSCF convergence, NEVPT2, FIC-MRCI
   Bernardo de Souza      : ESD, SOC TD-DFT
   Georgi Stoychev        : AutoAux, RI-MP2 NMR, DLPNO-MP2 response
   Willem Van den Heuvel  : Paramagnetic NMR
   Boris Wezisla          : Elementary symmetry handling
   Frank Wennmohs         : Technical directorship


 We gratefully acknowledge several colleagues who have allowed us to
 interface, adapt or use parts of their codes:
   Stefan Grimme, W. Hujo, H. Kruse, P. Pracht,  : VdW corrections, initial TS optimization,
                  C. Bannwarth, S. Ehlert          DFT functionals, gCP, sTDA/sTD-DF
   Ed Valeev, F. Pavosevic, A. Kumar             : LibInt (2-el integral package), F12 methods
   Garnet Chan, S. Sharma, J. Yang, R. Olivares  : DMRG
   Ulf Ekstrom                                   : XCFun DFT Library
   Mihaly Kallay                                 : mrcc  (arbitrary order and MRCC methods)
   Jiri Pittner, Ondrej Demel                    : Mk-CCSD
   Frank Weinhold                                : gennbo (NPA and NBO analysis)
   Christopher J. Cramer and Donald G. Truhlar   : smd solvation model
   Lars Goerigk                                  : TD-DFT with DH, B97 family of functionals
   V. Asgeirsson, H. Jonsson                     : NEB implementation
   FAccTs GmbH                                   : IRC, NEB, NEB-TS, DLPNO-Multilevel, CI-OPT
                                                   MM, QMMM, 2- and 3-layer-ONIOM, Crystal-QMMM,
                                                   LR-CPCM, SF, NACMEs, symmetry and pop. for TD-DFT,
                                                   nearIR, NL-DFT gradient (VV10), updates on ESD,
                                                   ML-optimized integration grids
   S Lehtola, MJT Oliveira, MAL Marques          : LibXC Library
   Liviu Ungur et al                             : ANISO software


 Your calculation uses the libint2 library for the computation of 2-el integrals
 For citations please refer to: http://libint.valeyev.net

 Your ORCA version has been built with support for libXC version: 5.1.0
 For citations please refer to: https://tddft.org/programs/libxc/

 This ORCA versions uses:
   CBLAS   interface :  Fast vector & matrix operations
   LAPACKE interface :  Fast linear algebra routines
   SCALAPACK package :  Parallel linear algebra routines
   Shared memory     :  Shared parallel matrices
   BLAS/LAPACK       :  OpenBLAS 0.3.15  USE64BITINT DYNAMIC_ARCH NO_AFFINITY SkylakeX SINGLE_THREADED
        Core in use  :  SkylakeX
   Copyright (c) 2011-2014, The OpenBLAS Project




***************************************
The coordinates will be read from file: opt.xyz
***************************************


================================================================================

----- Orbital basis set information -----
Your calculation utilizes the basis: cc-pVDZ 
       H, B-Ne : Obtained from the ccRepo (grant-hill.group.shef.ac.uk/ccrepo) Feb. 2017
                 T. H. Dunning, Jr., J. Chem. Phys. 90, 1007 (1989)
            He : Obtained from the ccRepo (grant-hill.group.shef.ac.uk/ccrepo) Feb. 2017
                 D. E. Woon, T. H. Dunning, Jr., J. Chem. Phys. 100, 2975 (1994)
  Li-Be, Na-Mg : Obtained from the ccRepo (grant-hill.group.shef.ac.uk/ccrepo) Feb. 2017
                 B. P. Prascher, D. E. Woon, K. A. Peterson, T. H. Dunning, Jr., A. K. Wilson, Theor. Chem. Acc. 128, 69 (2011)
         Al-Ar : Obtained from the ccRepo (grant-hill.group.shef.ac.uk/ccrepo) Feb. 2017
                 D. E. Woon, T. H. Dunning, Jr., J. Chem. Phys. 98, 1358 (1993)
            Ca : Obtained from the Peterson Research Group Website (tyr0.chem.wsu.edu/~kipeters) Feb. 2017
                 J. Koput, K. A. Peterson, J. Phys. Chem. 106, 9595 (2002)
         Sc-Zn : Obtained from the ccRepo (grant-hill.group.shef.ac.uk/ccrepo) Feb. 2017
                 N. B. Balabanov, K. A. Peterson, J. Chem. Phys. 123, 064107 (2005)
                 N. B. Balabanov, K. A. Peterson, J. Chem. Phys. 125, 074110 (2006)
         Ga-Kr : Obtained from the ccRepo (grant-hill.group.shef.ac.uk/ccrepo) Feb. 2017
                 A. K. Wilson, D. E. Woon, K. A. Peterson, T. H. Dunning, Jr., J. Chem. Phys. 110, 7667 (1999)

----- AuxJ basis set information -----
Your calculation utilizes the AutoAux generation procedure.
  G. L. Stoychev, A. A. Auer, F. Neese, J. Chem. Theory Comput. 13, 554 (2017)

----- AuxC basis set information -----
Your calculation utilizes the AutoAux generation procedure.
  G. L. Stoychev, A. A. Auer, F. Neese, J. Chem. Theory Comput. 13, 554 (2017)

----- AuxJK basis set information -----
Your calculation utilizes the AutoAux generation procedure.
  G. L. Stoychev, A. A. Auer, F. Neese, J. Chem. Theory Comput. 13, 554 (2017)

================================================================================
                                        WARNINGS
                       Please study these warnings very carefully!
================================================================================

WARNING: Old DensityContainer found on disk!
         Will remove this file - 
         If you want to keep old densities, please start your calculation with a different basename. 


WARNING: your system is open-shell and RHF/RKS was chosen
  ===> : WILL SWITCH to UHF/UKS


INFO   : the flag for use of the SHARK integral package has been found!

================================================================================
                                       INPUT FILE
================================================================================
NAME = cc-pVDZ_i.inp
|  1> ! B3LYP cc-pVDZ AUTOAUX
|  2> %pal nprocs 16 end
|  3> *XYZFile 0 2 opt.xyz
|  4> %EPRNMR
|  5>         GTENSOR   TRUE
|  6>         NUCLEI    = ALL H {SHIFT, AISO, ADIP, AORB}
|  7>         ORI       GIAO
|  8> END
|  9> 
| 10>                          ****END OF INPUT****
================================================================================

                       ****************************
                       * Single Point Calculation *
                       ****************************

---------------------------------
CARTESIAN COORDINATES (ANGSTROEM)
---------------------------------
  C     -4.099903    0.083492   -0.018353
  C     -2.815946    0.043661   -0.012330
  C      2.806008   -0.004269   -0.008539
  C     -1.423131    0.006681   -0.011521
  C     -0.708303   -1.246812   -0.013959
  C      0.675892   -1.194656   -0.012684
  C      1.390969    0.032616   -0.009322
  C      0.692187    1.284040   -0.006826
  C     -0.689714    1.234894   -0.008082
  H      1.259776   -2.114722   -0.014385
  H     -1.277365    2.152363   -0.006417
  C     -1.482678   -2.545270   -0.017742
  H     -2.162956   -2.531884   -0.888087
  H     -2.164001   -2.536305    0.851848
  C     -0.664773   -3.838900   -0.020463
  H     -0.001060   -3.863836   -0.904705
  H     -0.002550   -3.868472    0.864757
  C     -1.549765   -5.091581   -0.024486
  H     -2.216738   -5.067647    0.856694
  H     -2.214979   -5.063238   -0.906864
  C     -0.747242   -6.394947   -0.026958
  H     -0.098785   -6.468624    0.863263
  H     -0.096713   -6.463963   -0.916039
  C      1.475610    2.580851   -0.003105
  H      2.150780    2.571663    0.872485
  H      2.151902    2.575969   -0.877872
  C      0.660276    3.876516   -0.000466
  H     -0.001813    3.904739   -0.885019
  H     -0.003430    3.900164    0.883007
  C      1.545553    5.128838    0.003581
  H      2.210398    5.101571    0.886923
  H      2.212314    5.105900   -0.878438
  C      0.742544    6.432044    0.005924
  H      0.091762    6.499753    0.894507
  H      0.094086    6.504395   -0.883993
  C      4.030665   -0.051608   -0.009917
  H     -1.409442   -7.275742   -0.030044
  H      1.404248    7.313240    0.009096
  C      5.453353   -0.107226   -0.009647
  C      6.121835   -1.352501   -0.012193
  C      7.514506   -1.401458   -0.011853
  C      8.262259   -0.217737   -0.009063
  C      7.609924    1.021237   -0.006590
  C      6.217754    1.081653   -0.006879
  H      9.353772   -0.260949   -0.008833
  H      8.191473    1.945911   -0.004438
  H      5.533939   -2.272105   -0.014369
  H      5.703998    2.044629   -0.004992
  H      8.021809   -2.368853   -0.013791

----------------------------
CARTESIAN COORDINATES (A.U.)
----------------------------
  NO LB      ZA    FRAG     MASS         X           Y           Z
   0 C     6.0000    0    12.011   -7.747695    0.157777   -0.034681
   1 C     6.0000    0    12.011   -5.321367    0.082508   -0.023300
   2 C     6.0000    0    12.011    5.302587   -0.008067   -0.016136
   3 C     6.0000    0    12.011   -2.689327    0.012626   -0.021772
   4 C     6.0000    0    12.011   -1.338498   -2.356134   -0.026378
   5 C     6.0000    0    12.011    1.277250   -2.257573   -0.023968
   6 C     6.0000    0    12.011    2.628550    0.061636   -0.017615
   7 C     6.0000    0    12.011    1.308044    2.426484   -0.012899
   8 C     6.0000    0    12.011   -1.303370    2.333612   -0.015274
   9 H     1.0000    0     1.008    2.380632   -3.996246   -0.027183
  10 H     1.0000    0     1.008   -2.413870    4.067376   -0.012127
  11 C     6.0000    0    12.011   -2.801855   -4.809864   -0.033528
  12 H     1.0000    0     1.008   -4.087394   -4.784568   -1.678241
  13 H     1.0000    0     1.008   -4.089368   -4.792922    1.609759
  14 C     6.0000    0    12.011   -1.256239   -7.254469   -0.038669
  15 H     1.0000    0     1.008   -0.002004   -7.301591   -1.709645
  16 H     1.0000    0     1.008   -0.004819   -7.310352    1.634154
  17 C     6.0000    0    12.011   -2.928631   -9.621693   -0.046271
  18 H     1.0000    0     1.008   -4.189027   -9.576465    1.618917
  19 H     1.0000    0     1.008   -4.185703   -9.568134   -1.713724
  20 C     6.0000    0    12.011   -1.412082  -12.084699   -0.050944
  21 H     1.0000    0     1.008   -0.186676  -12.223929    1.631331
  22 H     1.0000    0     1.008   -0.182760  -12.215120   -1.731062
  23 C     6.0000    0    12.011    2.788498    4.877102   -0.005869
  24 H     1.0000    0     1.008    4.064385    4.859738    1.648758
  25 H     1.0000    0     1.008    4.066505    4.867877   -1.658937
  26 C     6.0000    0    12.011    1.247740    7.325553   -0.000880
  27 H     1.0000    0     1.008   -0.003427    7.378887   -1.672443
  28 H     1.0000    0     1.008   -0.006481    7.370242    1.668641
  29 C     6.0000    0    12.011    2.920672    9.692100    0.006766
  30 H     1.0000    0     1.008    4.177046    9.640572    1.676042
  31 H     1.0000    0     1.008    4.180668    9.648753   -1.660007
  32 C     6.0000    0    12.011    1.403204   12.154802    0.011194
  33 H     1.0000    0     1.008    0.173404   12.282753    1.690374
  34 H     1.0000    0     1.008    0.177797   12.291525   -1.670505
  35 C     6.0000    0    12.011    7.616852   -0.097524   -0.018740
  36 H     1.0000    0     1.008   -2.663459  -13.749160   -0.056774
  37 H     1.0000    0     1.008    2.653644   13.820020    0.017189
  38 C     6.0000    0    12.011   10.305343   -0.202628   -0.018229
  39 C     6.0000    0    12.011   11.568592   -2.555857   -0.023041
  40 C     6.0000    0    12.011   14.200358   -2.648371   -0.022399
  41 C     6.0000    0    12.011   15.613407   -0.411462   -0.017127
  42 C     6.0000    0    12.011   14.380671    1.929859   -0.012454
  43 C     6.0000    0    12.011   11.749853    2.044027   -0.012999
  44 H     1.0000    0     1.008   17.676068   -0.493123   -0.016692
  45 H     1.0000    0     1.008   15.479640    3.677238   -0.008386
  46 H     1.0000    0     1.008   10.457630   -4.293656   -0.027154
  47 H     1.0000    0     1.008   10.778994    3.863789   -0.009434
  48 H     1.0000    0     1.008   15.159023   -4.476483   -0.026062

--------------------------------
INTERNAL COORDINATES (ANGSTROEM)
--------------------------------
 C      0   0   0     0.000000000000     0.00000000     0.00000000
 C      1   0   0     1.284589265702     0.00000000     0.00000000
 C      2   1   0     5.622159564040   178.69126092     0.00000000
 C      2   1   3     1.393306467235   179.65227083   327.51862601
 C      4   2   1     1.442993883273   121.21551837   222.73457308
 C      5   4   2     1.385177188993   117.53671655   180.01241966
 C      3   2   1     1.415520374158     1.00472520    10.51896560
 C      7   3   6     1.433304942608   120.67155711   180.00251040
 C      8   7   3     1.382775381372   117.14154389   179.98635314
 H      6   5   4     1.089699859879   120.24164121   179.99764177
 H      9   8   7     1.089534381280   120.60315497   180.00627168
 C      5   4   2     1.511841308952   119.49432899     0.00000000
 H     12   5   4     1.104743120331   107.87680572    55.82062536
 H     12   5   4     1.104747614791   107.87550603   304.14905360
 C     12   5   4     1.530507626416   116.88572550   179.98859445
 H     15  12   5     1.105902563797   109.95017923   301.68270487
 H     15  12   5     1.105905796946   109.94886218    58.34142276
 C     15  12   5     1.533765592879   112.45643147   180.01139442
 H     18  15  12     1.105397466238   109.17036193   302.38938945
 H     18  15  12     1.105397471384   109.17092419    57.63473439
 C     18  15  12     1.530625053453   113.13789375   180.01165525
 H     21  18  15     1.103820012046   111.31832012    59.91451649
 H     21  18  15     1.103818579039   111.31786680   300.10869648
 C      8   7   3     1.515085539117   119.68484965     0.00000000
 H     24   8   7     1.105711363744   108.09370501   303.63215986
 H     24   8   7     1.105717523955   108.09186412    56.38210693
 C     24   8   7     1.530856693276   116.68202454   180.00524344
 H     27  24   8     1.105257054054   109.83292962   301.74343574
 H     27  24   8     1.105254637747   109.83506491    58.22504828
 C     27  24   8     1.533637708065   112.56201510   179.98517391
 H     30  27  24     1.105918558839   109.20769736   302.29351001
 H     30  27  24     1.105917187097   109.20681994    57.67887704
 C     30  27  24     1.530743191815   113.10279452   179.98667424
 H     33  30  27     1.103486639694   111.27512830    59.84427318
 H     33  30  27     1.103487301721   111.27567707   300.12528013
 C      3   2   1     1.225571968783   178.27174768   193.54086091
 H     21  18  15     1.101961246509   111.44164475   180.01211336
 H     33  30  27     1.101983520380   111.45612407   179.98418205
 C     36   3   7     1.423774642696   179.92062648   280.85853904
 C     39  36   3     1.413359540444   120.46627745    71.67101810
 C     40  39  36     1.393531182661   120.24078976   180.00300340
 C     41  40  39     1.400120858211   120.26715974     0.00000000
 C     42  41  40     1.400215882953   119.95224590     0.00000000
 C     43  42  41     1.393479491271   120.25218298     0.00000000
 H     42  41  40     1.092368032818   120.01330674   180.00156118
 H     43  42  41     1.092348237933   120.06596006   180.00156057
 H     40  39  36     1.091465535315   119.18205456     0.00000000
 H     44  43  42     1.091454396523   120.56513382   180.00202302
 H     41  40  39     1.092343317309   119.68577979   179.99739793

---------------------------
INTERNAL COORDINATES (A.U.)
---------------------------
 C      0   0   0     0.000000000000     0.00000000     0.00000000
 C      1   0   0     2.427521906753     0.00000000     0.00000000
 C      2   1   0    10.624341857241   178.69126092     0.00000000
 C      2   1   3     2.632967643696   179.65227083   327.51862601
 C      4   2   1     2.726863252309   121.21551837   222.73457308
 C      5   4   2     2.617605534151   117.53671655   180.01241966
 C      3   2   1     2.674945844144     1.00472520    10.51896560
 C      7   3   6     2.708553807925   120.67155711   180.00251040
 C      8   7   3     2.613066775522   117.14154389   179.98635314
 H      6   5   4     2.059234303345   120.24164121   179.99764177
 H      9   8   7     2.058921594110   120.60315497   180.00627168
 C      5   4   2     2.856966031868   119.49432899     0.00000000
 H     12   5   4     2.087661945760   107.87680572    55.82062536
 H     12   5   4     2.087670439058   107.87550603   304.14905360
 C     12   5   4     2.892240259804   116.88572550   179.98859445
 H     15  12   5     2.089852976379   109.95017923   301.68270487
 H     15  12   5     2.089859086144   109.94886218    58.34142276
 C     15  12   5     2.898396924173   112.45643147   180.01139442
 H     18  15  12     2.088898480320   109.17036193   302.38938945
 H     18  15  12     2.088898490044   109.17092419    57.63473439
 C     18  15  12     2.892462164744   113.13789375   180.01165525
 H     21  18  15     2.085917523909   111.31832012    59.91451649
 H     21  18  15     2.085914815918   111.31786680   300.10869648
 C      8   7   3     2.863096738396   119.68484965     0.00000000
 H     24   8   7     2.089491660641   108.09370501   303.63215986
 H     24   8   7     2.089503301752   108.09186412    56.38210693
 C     24   8   7     2.892899900573   116.68202454   180.00524344
 H     27  24   8     2.088633139747   109.83292962   301.74343574
 H     27  24   8     2.088628573588   109.83506491    58.22504828
 C     27  24   8     2.898155256898   112.56201510   179.98517391
 H     30  27  24     2.089883202627   109.20769736   302.29351001
 H     30  27  24     2.089880610411   109.20681994    57.67887704
 C     30  27  24     2.892685413895   113.10279452   179.98667424
 H     33  30  27     2.085287541462   111.27512830    59.84427318
 H     33  30  27     2.085288792513   111.27567707   300.12528013
 C      3   2   1     2.315995378411   178.27174768   193.54086091
 H     21  18  15     2.082404966096   111.44164475   180.01211336
 H     33  30  27     2.082447057613   111.45612407   179.98418205
 C     36   3   7     2.690544151116   179.92062648   280.85853904
 C     39  36   3     2.670862460204   120.46627745    71.67101810
 C     40  39  36     2.633392294308   120.24078976   180.00300340
 C     41  40  39     2.645844976410   120.26715974     0.00000000
 C     42  41  40     2.646024547148   119.95224590     0.00000000
 C     43  42  41     2.633294611738   120.25218298     0.00000000
 H     42  41  40     2.064276419477   120.01330674   180.00156118
 H     43  42  41     2.064239012566   120.06596006   180.00156057
 H     40  39  36     2.062570946359   119.18205456     0.00000000
 H     44  43  42     2.062549897092   120.56513382   180.00202302
 H     41  40  39     2.064229713932   119.68577979   179.99739793

---------------------
BASIS SET INFORMATION
---------------------
There are 2 groups of distinct atoms

 Group   1 Type C   : 17s4p1d contracted to 3s2p1d pattern {881/31/1}
 Group   2 Type H   : 4s1p contracted to 2s1p pattern {31/1}

Atom   0C    basis set group =>   1
Atom   1C    basis set group =>   1
Atom   2C    basis set group =>   1
Atom   3C    basis set group =>   1
Atom   4C    basis set group =>   1
Atom   5C    basis set group =>   1
Atom   6C    basis set group =>   1
Atom   7C    basis set group =>   1
Atom   8C    basis set group =>   1
Atom   9H    basis set group =>   2
Atom  10H    basis set group =>   2
Atom  11C    basis set group =>   1
Atom  12H    basis set group =>   2
Atom  13H    basis set group =>   2
Atom  14C    basis set group =>   1
Atom  15H    basis set group =>   2
Atom  16H    basis set group =>   2
Atom  17C    basis set group =>   1
Atom  18H    basis set group =>   2
Atom  19H    basis set group =>   2
Atom  20C    basis set group =>   1
Atom  21H    basis set group =>   2
Atom  22H    basis set group =>   2
Atom  23C    basis set group =>   1
Atom  24H    basis set group =>   2
Atom  25H    basis set group =>   2
Atom  26C    basis set group =>   1
Atom  27H    basis set group =>   2
Atom  28H    basis set group =>   2
Atom  29C    basis set group =>   1
Atom  30H    basis set group =>   2
Atom  31H    basis set group =>   2
Atom  32C    basis set group =>   1
Atom  33H    basis set group =>   2
Atom  34H    basis set group =>   2
Atom  35C    basis set group =>   1
Atom  36H    basis set group =>   2
Atom  37H    basis set group =>   2
Atom  38C    basis set group =>   1
Atom  39C    basis set group =>   1
Atom  40C    basis set group =>   1
Atom  41C    basis set group =>   1
Atom  42C    basis set group =>   1
Atom  43C    basis set group =>   1
Atom  44H    basis set group =>   2
Atom  45H    basis set group =>   2
Atom  46H    basis set group =>   2
Atom  47H    basis set group =>   2
Atom  48H    basis set group =>   2
---------------------------------
AUXILIARY/J BASIS SET INFORMATION
---------------------------------
There are 2 groups of distinct atoms

 Group   1 Type C   : 14s11p10d2f contracted to 14s11p10d2f pattern {11111111111111/11111111111/1111111111/11}
 Group   2 Type H   : 9s2p1d contracted to 9s2p1d pattern {111111111/11/1}

Atom   0C    basis set group =>   1
Atom   1C    basis set group =>   1
Atom   2C    basis set group =>   1
Atom   3C    basis set group =>   1
Atom   4C    basis set group =>   1
Atom   5C    basis set group =>   1
Atom   6C    basis set group =>   1
Atom   7C    basis set group =>   1
Atom   8C    basis set group =>   1
Atom   9H    basis set group =>   2
Atom  10H    basis set group =>   2
Atom  11C    basis set group =>   1
Atom  12H    basis set group =>   2
Atom  13H    basis set group =>   2
Atom  14C    basis set group =>   1
Atom  15H    basis set group =>   2
Atom  16H    basis set group =>   2
Atom  17C    basis set group =>   1
Atom  18H    basis set group =>   2
Atom  19H    basis set group =>   2
Atom  20C    basis set group =>   1
Atom  21H    basis set group =>   2
Atom  22H    basis set group =>   2
Atom  23C    basis set group =>   1
Atom  24H    basis set group =>   2
Atom  25H    basis set group =>   2
Atom  26C    basis set group =>   1
Atom  27H    basis set group =>   2
Atom  28H    basis set group =>   2
Atom  29C    basis set group =>   1
Atom  30H    basis set group =>   2
Atom  31H    basis set group =>   2
Atom  32C    basis set group =>   1
Atom  33H    basis set group =>   2
Atom  34H    basis set group =>   2
Atom  35C    basis set group =>   1
Atom  36H    basis set group =>   2
Atom  37H    basis set group =>   2
Atom  38C    basis set group =>   1
Atom  39C    basis set group =>   1
Atom  40C    basis set group =>   1
Atom  41C    basis set group =>   1
Atom  42C    basis set group =>   1
Atom  43C    basis set group =>   1
Atom  44H    basis set group =>   2
Atom  45H    basis set group =>   2
Atom  46H    basis set group =>   2
Atom  47H    basis set group =>   2
Atom  48H    basis set group =>   2
---------------------------------
AUXILIARY/C BASIS SET INFORMATION
---------------------------------
There are 2 groups of distinct atoms

 Group   1 Type C   : 14s11p10d2f contracted to 14s11p10d2f pattern {11111111111111/11111111111/1111111111/11}
 Group   2 Type H   : 9s2p1d contracted to 9s2p1d pattern {111111111/11/1}

Atom   0C    basis set group =>   1
Atom   1C    basis set group =>   1
Atom   2C    basis set group =>   1
Atom   3C    basis set group =>   1
Atom   4C    basis set group =>   1
Atom   5C    basis set group =>   1
Atom   6C    basis set group =>   1
Atom   7C    basis set group =>   1
Atom   8C    basis set group =>   1
Atom   9H    basis set group =>   2
Atom  10H    basis set group =>   2
Atom  11C    basis set group =>   1
Atom  12H    basis set group =>   2
Atom  13H    basis set group =>   2
Atom  14C    basis set group =>   1
Atom  15H    basis set group =>   2
Atom  16H    basis set group =>   2
Atom  17C    basis set group =>   1
Atom  18H    basis set group =>   2
Atom  19H    basis set group =>   2
Atom  20C    basis set group =>   1
Atom  21H    basis set group =>   2
Atom  22H    basis set group =>   2
Atom  23C    basis set group =>   1
Atom  24H    basis set group =>   2
Atom  25H    basis set group =>   2
Atom  26C    basis set group =>   1
Atom  27H    basis set group =>   2
Atom  28H    basis set group =>   2
Atom  29C    basis set group =>   1
Atom  30H    basis set group =>   2
Atom  31H    basis set group =>   2
Atom  32C    basis set group =>   1
Atom  33H    basis set group =>   2
Atom  34H    basis set group =>   2
Atom  35C    basis set group =>   1
Atom  36H    basis set group =>   2
Atom  37H    basis set group =>   2
Atom  38C    basis set group =>   1
Atom  39C    basis set group =>   1
Atom  40C    basis set group =>   1
Atom  41C    basis set group =>   1
Atom  42C    basis set group =>   1
Atom  43C    basis set group =>   1
Atom  44H    basis set group =>   2
Atom  45H    basis set group =>   2
Atom  46H    basis set group =>   2
Atom  47H    basis set group =>   2
Atom  48H    basis set group =>   2
----------------------------------
AUXILIARY/JK BASIS SET INFORMATION
----------------------------------
There are 2 groups of distinct atoms

 Group   1 Type C   : 14s11p10d2f contracted to 14s11p10d2f pattern {11111111111111/11111111111/1111111111/11}
 Group   2 Type H   : 9s2p1d contracted to 9s2p1d pattern {111111111/11/1}

Atom   0C    basis set group =>   1
Atom   1C    basis set group =>   1
Atom   2C    basis set group =>   1
Atom   3C    basis set group =>   1
Atom   4C    basis set group =>   1
Atom   5C    basis set group =>   1
Atom   6C    basis set group =>   1
Atom   7C    basis set group =>   1
Atom   8C    basis set group =>   1
Atom   9H    basis set group =>   2
Atom  10H    basis set group =>   2
Atom  11C    basis set group =>   1
Atom  12H    basis set group =>   2
Atom  13H    basis set group =>   2
Atom  14C    basis set group =>   1
Atom  15H    basis set group =>   2
Atom  16H    basis set group =>   2
Atom  17C    basis set group =>   1
Atom  18H    basis set group =>   2
Atom  19H    basis set group =>   2
Atom  20C    basis set group =>   1
Atom  21H    basis set group =>   2
Atom  22H    basis set group =>   2
Atom  23C    basis set group =>   1
Atom  24H    basis set group =>   2
Atom  25H    basis set group =>   2
Atom  26C    basis set group =>   1
Atom  27H    basis set group =>   2
Atom  28H    basis set group =>   2
Atom  29C    basis set group =>   1
Atom  30H    basis set group =>   2
Atom  31H    basis set group =>   2
Atom  32C    basis set group =>   1
Atom  33H    basis set group =>   2
Atom  34H    basis set group =>   2
Atom  35C    basis set group =>   1
Atom  36H    basis set group =>   2
Atom  37H    basis set group =>   2
Atom  38C    basis set group =>   1
Atom  39C    basis set group =>   1
Atom  40C    basis set group =>   1
Atom  41C    basis set group =>   1
Atom  42C    basis set group =>   1
Atom  43C    basis set group =>   1
Atom  44H    basis set group =>   2
Atom  45H    basis set group =>   2
Atom  46H    basis set group =>   2
Atom  47H    basis set group =>   2
Atom  48H    basis set group =>   2

Checking for AutoStart:
The File: cc-pVDZ_i.gbw exists
Trying to determine its content:
     ... Fine, the file contains calculation information
     ... Fine, the calculation information was read
     ... Fine, the file contains a basis set
     ... Fine, the basis set was read
     ... Fine, the file contains a geometry
     ... Fine, the geometry was read
     ... Fine, the file contains a set of orbitals
     ... Fine, the orbitals can be read
     => possible old guess file was deleted
     => GBW file was renamed to GES file
     => GES file is set as startup file
     => Guess is set to MORead
     ... now leaving AutoStart



           ************************************************************
           *        Program running with 16 parallel MPI-processes    *
           *              working on a common directory               *
           ************************************************************
------------------------------------------------------------------------------
                           ORCA GTO INTEGRAL CALCULATION
                           -- RI-GTO INTEGRALS CHOSEN --
------------------------------------------------------------------------------
------------------------------------------------------------------------------
                   ___                                                        
                  /   \      - P O W E R E D   B Y -                         
                 /     \                                                     
                 |  |  |   _    _      __       _____    __    __             
                 |  |  |  | |  | |    /  \     |  _  \  |  |  /  |          
                  \  \/   | |  | |   /    \    | | | |  |  | /  /          
                 / \  \   | |__| |  /  /\  \   | |_| |  |  |/  /          
                |  |  |   |  __  | /  /__\  \  |    /   |      \           
                |  |  |   | |  | | |   __   |  |    \   |  |\   \          
                \     /   | |  | | |  |  |  |  | |\  \  |  | \   \       
                 \___/    |_|  |_| |__|  |__|  |_| \__\ |__|  \__/        
                                                                              
                      - O R C A' S   B I G   F R I E N D -                    
                                      &                                       
                       - I N T E G R A L  F E E D E R -                       
                                                                              
 v1 FN, 2020, v2 2021                                                         
------------------------------------------------------------------------------


Reading SHARK input file cc-pVDZ_i.SHARKINP.tmp ... ok
----------------------
SHARK INTEGRAL PACKAGE
----------------------

Number of atoms                             ...     49
Number of basis functions                   ...    605
Number of shells                            ...    363
Maximum angular momentum                    ...      2
Integral batch strategy                     ... SHARK/LIBINT Hybrid
RI-J (if used) integral strategy            ... SPLIT-RIJ (Revised 2003 algorithm where possible)
Printlevel                                  ...      1
Contraction scheme used                     ... PARTIAL GENERAL contraction
Coulomb Range Separation                    ... NOT USED
Exchange Range Separation                   ... NOT USED
Finite Nucleus Model                        ... NOT USED
Auxiliary Coulomb fitting basis             ... AVAILABLE
   # of basis functions in Aux-J            ...   3164
   # of shells in Aux-J                     ...   1188
   Maximum angular momentum in Aux-J        ...      3
Auxiliary J/K fitting basis                 ... AVAILABLE
   # of basis functions in Aux-JK           ...   3164
   # of shells in Aux-JK                    ...   1188
   Maximum angular momentum in Aux-JK       ...      3
Auxiliary Correlation fitting basis         ... AVAILABLE
   # of basis functions in Aux-C            ...   3164
   # of shells in Aux-C                     ...   1188
   Maximum angular momentum in Aux-C        ...      3
Auxiliary 'external' fitting basis          ... NOT available
Integral threshold                          ...     1.000000e-10
Primitive cut-off                           ...     1.000000e-11
Primitive pair pre-selection threshold      ...     1.000000e-11

Calculating pre-screening integrals         ... done (  0.0 sec) Dimension = 363
Calculating pre-screening integrals (ORCA)  ... done (  0.1 sec) Dimension = 219
Organizing shell pair data                  ... done (  0.2 sec)
Shell pair information
Total number of shell pairs                 ...     66066
Shell pairs after pre-screening             ...     25651
Total number of primitive shell pairs       ...    106638
Primitive shell pairs kept                  ...     34613
          la=0 lb=0:  11103 shell pairs
          la=1 lb=0:   9072 shell pairs
          la=1 lb=1:   1617 shell pairs
          la=2 lb=0:   2711 shell pairs
          la=2 lb=1:    986 shell pairs
          la=2 lb=2:    162 shell pairs

Calculating one electron integrals          ... done (  0.0 sec)
Calculating RI/J V-Matrix + Cholesky decomp.... done (  0.6 sec)
Calculating RI/JK V-Matrix + Cholesky decomp... done (  0.6 sec)
Calculating RI/C V-Matrix + Cholesky decomp.... done (  0.6 sec)
Calculating Nuclear repulsion               ... done (  0.0 sec) ENN=   1728.320371376087 Eh

SHARK setup successfully completed in   2.5 seconds

Maximum memory used throughout the entire GTOINT-calculation: 41.7 MB


           ************************************************************
           *        Program running with 16 parallel MPI-processes    *
           *              working on a common directory               *
           ************************************************************
-------------------------------------------------------------------------------
                                 ORCA SCF
-------------------------------------------------------------------------------

------------
SCF SETTINGS
------------
Hamiltonian:
 Density Functional     Method          .... DFT(GTOs)
 Exchange Functional    Exchange        .... B88
   X-Alpha parameter    XAlpha          ....  0.666667
   Becke's b parameter  XBeta           ....  0.004200
 Correlation Functional Correlation     .... LYP
 LDA part of GGA corr.  LDAOpt          .... VWN-5
 Gradients option       PostSCFGGA      .... off
 Hybrid DFT is turned on
   Fraction HF Exchange ScalHFX         ....  0.200000
   Scaling of DF-GGA-X  ScalDFX         ....  0.720000
   Scaling of DF-GGA-C  ScalDFC         ....  0.810000
   Scaling of DF-LDA-C  ScalLDAC        ....  1.000000
   Perturbative correction              ....  0.000000
   Density functional embedding theory  .... OFF
   NL short-range parameter             ....  4.800000
 RI-approximation to the Coulomb term is turned on
   Number of AuxJ basis functions       .... 3164
   RIJ-COSX (HFX calculated with COS-X)).... on


General Settings:
 Integral files         IntName         .... cc-pVDZ_i
 Hartree-Fock type      HFTyp           .... UHF
 Total Charge           Charge          ....    0
 Multiplicity           Mult            ....    2
 Number of Electrons    NEL             ....  169
 Basis Dimension        Dim             ....  461
 Nuclear Repulsion      ENuc            ....   1728.3203713761 Eh

Convergence Acceleration:
 DIIS                   CNVDIIS         .... on
   Start iteration      DIISMaxIt       ....    12
   Startup error        DIISStart       ....  0.200000
   # of expansion vecs  DIISMaxEq       ....     5
   Bias factor          DIISBfac        ....   1.050
   Max. coefficient     DIISMaxC        ....  10.000
 Trust-Rad. Augm. Hess. CNVTRAH         .... auto
   Auto Start mean grad. ratio tolernc. ....  1.125000
   Auto Start start iteration           ....     1
   Auto Start num. interpolation iter.  ....    10
   Max. Number of Micro iterations      ....    16
   Max. Number of Macro iterations      .... Maxiter - #DIIS iter
   Number of Davidson start vectors     ....     2
   Converg. threshold I  (grad. norm)   ....   5.000e-05
   Converg. threshold II (energy diff.) ....   1.000e-06
   Grad. Scal. Fac. for Micro threshold ....   0.100
   Minimum threshold for Micro iter.    ....   0.010
   NR start threshold (gradient norm)   ....   0.001
   Initial trust radius                 ....   0.400
   Minimum AH scaling param. (alpha)    ....   1.000
   Maximum AH scaling param. (alpha)    .... 1000.000
   Orbital update algorithm             .... Taylor
   White noise on init. David. guess    .... on
   Maximum white noise                  ....   0.010
   Quad. conv. algorithm                .... NR
 SOSCF                  CNVSOSCF        .... off
 Level Shifting         CNVShift        .... on
   Level shift para.    LevelShift      ....    0.2500
   Turn off err/grad.   ShiftErr        ....    0.0010
 Zerner damping         CNVZerner       .... off
 Static damping         CNVDamp         .... on
   Fraction old density DampFac         ....    0.7000
   Max. Damping (<1)    DampMax         ....    0.9800
   Min. Damping (>=0)   DampMin         ....    0.0000
   Turn off err/grad.   DampErr         ....    0.1000
 Fernandez-Rico         CNVRico         .... off

SCF Procedure:
 Maximum # iterations   MaxIter         ....   125
 SCF integral mode      SCFMode         .... Direct
   Integral package                     .... SHARK and LIBINT hybrid scheme
 Reset frequency        DirectResetFreq ....    20
 Integral Threshold     Thresh          ....  1.000e-10 Eh
 Primitive CutOff       TCut            ....  1.000e-11 Eh

Convergence Tolerance:
 Convergence Check Mode ConvCheckMode   .... Total+1el-Energy
 Convergence forced     ConvForced      .... 0
 Energy Change          TolE            ....  1.000e-06 Eh
 1-El. energy change                    ....  1.000e-03 Eh
 DIIS Error             TolErr          ....  1.000e-06


Diagonalization of the overlap matrix:
Smallest eigenvalue                        ... 5.177e-05
Time for diagonalization                   ...    0.040 sec
Threshold for overlap eigenvalues          ... 1.000e-08
Number of eigenvalues below threshold      ... 0
Time for construction of square roots      ...    0.040 sec
Total time needed                          ...    0.080 sec

---------------------
INITIAL GUESS: MOREAD
---------------------
Guess MOs are being read from file: cc-pVDZ_i.ges
Input geometry compatible with but different from current geometry
Input basis set matches current basis set (good)
MOs were renormalized
MOs were reorthogonalized (Cholesky)
                      ------------------
                      INITIAL GUESS DONE (   0.2 sec)
                      ------------------
-------------------
DFT GRID GENERATION
-------------------

General Integration Accuracy     IntAcc      ... 4.388
Radial Grid Type                 RadialGrid  ... OptM3 with GC (2021)
Angular Grid (max. ang.)         AngularGrid ... 4 (Lebedev-302)
Angular grid pruning method      GridPruning ... 4 (adaptive)
Weight generation scheme         WeightScheme... Becke
Basis function cutoff            BFCut       ... 1.0000e-10
Integration weight cutoff        WCut        ... 1.0000e-14
Angular grids for H and He will be reduced by one unit
Partially contracted basis set               ... off
Rotationally invariant grid construction     ... off

Total number of grid points                  ...   223003
Total number of batches                      ...     3511
Average number of points per batch           ...       63
Average number of grid points per atom       ...     4551
Time for grid setup =    1.543 sec

--------------------
COSX GRID GENERATION
--------------------

GRIDX 1
-------
General Integration Accuracy     IntAcc      ... 3.816
Radial Grid Type                 RadialGrid  ... OptM3 with GC (2021)
Angular Grid (max. ang.)         AngularGrid ... 1 (Lebedev-50)
Angular grid pruning method      GridPruning ... 4 (adaptive)
Weight generation scheme         WeightScheme... Becke
Basis function cutoff            BFCut       ... 1.0000e-10
Integration weight cutoff        WCut        ... 1.0000e-14
Angular grids for H and He will be reduced by one unit
Partially contracted basis set               ... on
Rotationally invariant grid construction     ... off

Total number of grid points                  ...    28396
Total number of batches                      ...      471
Average number of points per batch           ...       60
Average number of grid points per atom       ...      580
UseSFitting                                  ... on

GRIDX 2
-------
General Integration Accuracy     IntAcc      ... 4.020
Radial Grid Type                 RadialGrid  ... OptM3 with GC (2021)
Angular Grid (max. ang.)         AngularGrid ... 2 (Lebedev-110)
Angular grid pruning method      GridPruning ... 4 (adaptive)
Weight generation scheme         WeightScheme... Becke
Basis function cutoff            BFCut       ... 1.0000e-10
Integration weight cutoff        WCut        ... 1.0000e-14
Angular grids for H and He will be reduced by one unit
Partially contracted basis set               ... on
Rotationally invariant grid construction     ... off

Total number of grid points                  ...    60558
Total number of batches                      ...      971
Average number of points per batch           ...       62
Average number of grid points per atom       ...     1236
UseSFitting                                  ... on

GRIDX 3
-------
General Integration Accuracy     IntAcc      ... 4.338
Radial Grid Type                 RadialGrid  ... OptM3 with GC (2021)
Angular Grid (max. ang.)         AngularGrid ... 3 (Lebedev-194)
Angular grid pruning method      GridPruning ... 4 (adaptive)
Weight generation scheme         WeightScheme... Becke
Basis function cutoff            BFCut       ... 1.0000e-10
Integration weight cutoff        WCut        ... 1.0000e-14
Angular grids for H and He will be reduced by one unit
Partially contracted basis set               ... on
Rotationally invariant grid construction     ... off

Total number of grid points                  ...   132523
Total number of batches                      ...     2094
Average number of points per batch           ...       63
Average number of grid points per atom       ...     2705
UseSFitting                                  ... on

Time for X-Grid setup             =    2.446 sec

 re-compute Schwartz prescreening matrix in partically contracted basis (1) ...done (   0.119 sec)
--------------
SCF ITERATIONS
--------------
ITER       Energy         Delta-E        Max-DP      RMS-DP      [F,P]     Damp
               ***  Starting incremental Fock matrix formation  ***
  0   -928.8441690152   0.000000000000 0.00001721  0.00000028  0.0000470 0.7000
                 **** Energy Check signals convergence ****

               *****************************************************
               *                     SUCCESS                       *
               *           SCF CONVERGED AFTER   1 CYCLES          *
               *****************************************************

Old exchange energy                            =    -26.626378767 Eh
New exchange energy                            =    -26.626483087 Eh
Exchange energy change after final integration =     -0.000104320 Eh
Total energy after final integration           =   -928.844273365 Eh
Final COS-X integration done in                =     9.357 sec

----------------
TOTAL SCF ENERGY
----------------

Total Energy       :         -928.84427336 Eh          -25275.13764 eV

Components:
Nuclear Repulsion  :         1728.32037138 Eh           47029.98826 eV
Electronic Energy  :        -2657.16464474 Eh          -72305.12590 eV
One Electron Energy:        -4683.88049899 Eh         -127454.86806 eV
Two Electron Energy:         2026.71585425 Eh           55149.74215 eV
Max COSX asymmetry :            0.00000064 Eh               0.00002 eV

Virial components:
Potential Energy   :        -1851.30085657 Eh          -50376.45740 eV
Kinetic Energy     :          922.45658321 Eh           25101.31976 eV
Virial Ratio       :            2.00692465


DFT components:
N(Alpha)           :       85.000198248842 electrons
N(Beta)            :       84.000199788392 electrons
N(Total)           :      169.000398037234 electrons
E(X)               :     -105.615799327347 Eh       
E(C)               :       -6.571933302375 Eh       
E(XC)              :     -112.187732629723 Eh       
DFET-embed. en.    :        0.000000000000 Eh       

---------------
SCF CONVERGENCE
---------------

  Last Energy change         ...   -3.0073e-08  Tolerance :   1.0000e-06
  Last MAX-Density change    ...    5.8652e-06  Tolerance :   1.0000e-05
  Last RMS-Density change    ...    8.9310e-08  Tolerance :   1.0000e-06
  Last DIIS Error            ...    3.3299e-05  Tolerance :   1.0000e-06

             **** THE GBW FILE WAS UPDATED (cc-pVDZ_i.gbw) ****
             **** DENSITY cc-pVDZ_i.scfp WAS UPDATED ****
             **** ENERGY FILE WAS UPDATED (cc-pVDZ_i.en.tmp) ****
----------------------
UHF SPIN CONTAMINATION
----------------------

Warning: in a DFT calculation there is little theoretical justification to 
         calculate <S**2> as in Hartree-Fock theory. We will do it anyways
         but you should keep in mind that the values have only limited relevance

Expectation value of <S**2>     :     0.773585
Ideal value S*(S+1) for S=0.5   :     0.750000
Deviation                       :     0.023585

             **** THE GBW FILE WAS UPDATED (cc-pVDZ_i.gbw) ****
             **** DENSITY cc-pVDZ_i.scfp WAS UPDATED ****
----------------
ORBITAL ENERGIES
----------------
                 SPIN UP ORBITALS
  NO   OCC          E(Eh)            E(eV) 
   0   1.0000     -10.243956      -278.7522 
   1   1.0000     -10.235788      -278.5300 
   2   1.0000     -10.229517      -278.3593 
   3   1.0000     -10.222977      -278.1813 
   4   1.0000     -10.219884      -278.0972 
   5   1.0000     -10.219433      -278.0849 
   6   1.0000     -10.217104      -278.0215 
   7   1.0000     -10.216957      -278.0175 
   8   1.0000     -10.215131      -277.9678 
   9   1.0000     -10.212606      -277.8991 
  10   1.0000     -10.212536      -277.8972 
  11   1.0000     -10.212494      -277.8961 
  12   1.0000     -10.210885      -277.8523 
  13   1.0000     -10.209972      -277.8275 
  14   1.0000     -10.201257      -277.5903 
  15   1.0000     -10.192743      -277.3586 
  16   1.0000     -10.191173      -277.3159 
  17   1.0000     -10.189631      -277.2740 
  18   1.0000     -10.187884      -277.2264 
  19   1.0000     -10.184338      -277.1299 
  20   1.0000     -10.180758      -277.0325 
  21   1.0000     -10.178320      -276.9662 
  22   1.0000     -10.170899      -276.7642 
  23   1.0000     -10.168817      -276.7076 
  24   1.0000      -0.892956       -24.2986 
  25   1.0000      -0.882807       -24.0224 
  26   1.0000      -0.833110       -22.6701 
  27   1.0000      -0.814701       -22.1691 
  28   1.0000      -0.802336       -21.8327 
  29   1.0000      -0.796079       -21.6624 
  30   1.0000      -0.777316       -21.1518 
  31   1.0000      -0.769771       -20.9465 
  32   1.0000      -0.753151       -20.4943 
  33   1.0000      -0.738895       -20.1063 
  34   1.0000      -0.717973       -19.5370 
  35   1.0000      -0.706751       -19.2317 
  36   1.0000      -0.663040       -18.0422 
  37   1.0000      -0.657168       -17.8825 
  38   1.0000      -0.632566       -17.2130 
  39   1.0000      -0.629920       -17.1410 
  40   1.0000      -0.627388       -17.0721 
  41   1.0000      -0.601794       -16.3756 
  42   1.0000      -0.586002       -15.9459 
  43   1.0000      -0.572885       -15.5890 
  44   1.0000      -0.557507       -15.1705 
  45   1.0000      -0.524900       -14.2832 
  46   1.0000      -0.522232       -14.2107 
  47   1.0000      -0.498040       -13.5524 
  48   1.0000      -0.492798       -13.4097 
  49   1.0000      -0.480679       -13.0799 
  50   1.0000      -0.476551       -12.9676 
  51   1.0000      -0.475447       -12.9376 
  52   1.0000      -0.453695       -12.3457 
  53   1.0000      -0.445476       -12.1220 
  54   1.0000      -0.442479       -12.0405 
  55   1.0000      -0.435297       -11.8450 
  56   1.0000      -0.434859       -11.8331 
  57   1.0000      -0.429954       -11.6996 
  58   1.0000      -0.423929       -11.5357 
  59   1.0000      -0.418343       -11.3837 
  60   1.0000      -0.409790       -11.1509 
  61   1.0000      -0.403748       -10.9866 
  62   1.0000      -0.391175       -10.6444 
  63   1.0000      -0.382280       -10.4024 
  64   1.0000      -0.378808       -10.3079 
  65   1.0000      -0.374318       -10.1857 
  66   1.0000      -0.369220       -10.0470 
  67   1.0000      -0.367088        -9.9890 
  68   1.0000      -0.366844        -9.9823 
  69   1.0000      -0.353923        -9.6307 
  70   1.0000      -0.344089        -9.3631 
  71   1.0000      -0.341277        -9.2866 
  72   1.0000      -0.336166        -9.1475 
  73   1.0000      -0.332607        -9.0507 
  74   1.0000      -0.330815        -9.0019 
  75   1.0000      -0.330216        -8.9856 
  76   1.0000      -0.326476        -8.8839 
  77   1.0000      -0.310980        -8.4622 
  78   1.0000      -0.291554        -7.9336 
  79   1.0000      -0.277528        -7.5519 
  80   1.0000      -0.265887        -7.2352 
  81   1.0000      -0.262474        -7.1423 
  82   1.0000      -0.243630        -6.6295 
  83   1.0000      -0.242726        -6.6049 
  84   1.0000      -0.218479        -5.9451 
  85   0.0000      -0.080218        -2.1828 
  86   0.0000      -0.028677        -0.7803 
  87   0.0000      -0.028604        -0.7783 
  88   0.0000      -0.019186        -0.5221 
  89   0.0000       0.023075         0.6279 
  90   0.0000       0.039883         1.0853 
  91   0.0000       0.050851         1.3837 
  92   0.0000       0.054595         1.4856 
  93   0.0000       0.057298         1.5591 
  94   0.0000       0.067544         1.8380 
  95   0.0000       0.069777         1.8987 
  96   0.0000       0.076134         2.0717 
  97   0.0000       0.086292         2.3481 
  98   0.0000       0.087524         2.3816 
  99   0.0000       0.088226         2.4008 
 100   0.0000       0.090882         2.4730 
 101   0.0000       0.091390         2.4868 
 102   0.0000       0.101811         2.7704 
 103   0.0000       0.104975         2.8565 
 104   0.0000       0.118840         3.2338 
 105   0.0000       0.122645         3.3373 
 106   0.0000       0.127264         3.4630 
 107   0.0000       0.132388         3.6024 
 108   0.0000       0.141987         3.8637 
 109   0.0000       0.144232         3.9248 
 110   0.0000       0.145309         3.9541 
 111   0.0000       0.145400         3.9565 
 112   0.0000       0.152064         4.1379 
 113   0.0000       0.153042         4.1645 
 114   0.0000       0.156710         4.2643 
 115   0.0000       0.159409         4.3378 
 116   0.0000       0.166530         4.5315 
 117   0.0000       0.168788         4.5929 
 118   0.0000       0.178741         4.8638 
 119   0.0000       0.189747         5.1633 
 120   0.0000       0.191304         5.2056 
 121   0.0000       0.198566         5.4033 
 122   0.0000       0.205125         5.5817 
 123   0.0000       0.209744         5.7074 
 124   0.0000       0.212902         5.7934 
 125   0.0000       0.230628         6.2757 
 126   0.0000       0.235081         6.3969 
 127   0.0000       0.253167         6.8890 
 128   0.0000       0.260056         7.0765 
 129   0.0000       0.262688         7.1481 
 130   0.0000       0.268569         7.3081 
 131   0.0000       0.276356         7.5200 
 132   0.0000       0.288758         7.8575 
 133   0.0000       0.295959         8.0535 
 134   0.0000       0.311050         8.4641 
 135   0.0000       0.324437         8.8284 
 136   0.0000       0.347032         9.4432 
 137   0.0000       0.352258         9.5854 
 138   0.0000       0.359636         9.7862 
 139   0.0000       0.364861         9.9284 
 140   0.0000       0.386851        10.5267 
 141   0.0000       0.394954        10.7472 
 142   0.0000       0.403372        10.9763 
 143   0.0000       0.403425        10.9777 
 144   0.0000       0.406542        11.0626 
 145   0.0000       0.410369        11.1667 
 146   0.0000       0.414138        11.2693 
 147   0.0000       0.417450        11.3594 
 148   0.0000       0.421147        11.4600 
 149   0.0000       0.431947        11.7539 
 150   0.0000       0.432223        11.7614 
 151   0.0000       0.438405        11.9296 
 152   0.0000       0.450328        12.2540 
 153   0.0000       0.451185        12.2774 
 154   0.0000       0.456855        12.4317 
 155   0.0000       0.465427        12.6649 
 156   0.0000       0.466480        12.6936 
 157   0.0000       0.466865        12.7041 
 158   0.0000       0.477372        12.9900 
 159   0.0000       0.485445        13.2096 
 160   0.0000       0.487348        13.2614 
 161   0.0000       0.491576        13.3765 
 162   0.0000       0.491930        13.3861 
 163   0.0000       0.493491        13.4286 
 164   0.0000       0.497590        13.5401 
 165   0.0000       0.500626        13.6227 
 166   0.0000       0.503920        13.7124 
 167   0.0000       0.504691        13.7333 
 168   0.0000       0.508989        13.8503 
 169   0.0000       0.519371        14.1328 
 170   0.0000       0.527245        14.3471 
 171   0.0000       0.538043        14.6409 
 172   0.0000       0.538117        14.6429 
 173   0.0000       0.562845        15.3158 
 174   0.0000       0.565056        15.3760 
 175   0.0000       0.566966        15.4279 
 176   0.0000       0.568699        15.4751 
 177   0.0000       0.579260        15.7625 
 178   0.0000       0.580309        15.7910 
 179   0.0000       0.585745        15.9389 
 180   0.0000       0.596560        16.2332 
 181   0.0000       0.602066        16.3830 
 182   0.0000       0.610103        16.6018 
 183   0.0000       0.612133        16.6570 
 184   0.0000       0.613916        16.7055 
 185   0.0000       0.618129        16.8201 
 186   0.0000       0.623622        16.9696 
 187   0.0000       0.627494        17.0750 
 188   0.0000       0.630608        17.1597 
 189   0.0000       0.634668        17.2702 
 190   0.0000       0.638187        17.3659 
 191   0.0000       0.642523        17.4839 
 192   0.0000       0.647035        17.6067 
 193   0.0000       0.651434        17.7264 
 194   0.0000       0.652430        17.7535 
 195   0.0000       0.654953        17.8222 
 196   0.0000       0.655234        17.8298 
 197   0.0000       0.657381        17.8882 
 198   0.0000       0.659259        17.9393 
 199   0.0000       0.663513        18.0551 
 200   0.0000       0.666155        18.1270 
 201   0.0000       0.668409        18.1883 
 202   0.0000       0.669329        18.2134 
 203   0.0000       0.670887        18.2558 
 204   0.0000       0.677826        18.4446 
 205   0.0000       0.679428        18.4882 
 206   0.0000       0.685568        18.6552 
 207   0.0000       0.687049        18.6956 
 208   0.0000       0.691274        18.8105 
 209   0.0000       0.697141        18.9702 
 210   0.0000       0.703476        19.1426 
 211   0.0000       0.705267        19.1913 
 212   0.0000       0.710602        19.3365 
 213   0.0000       0.726520        19.7696 
 214   0.0000       0.729902        19.8617 
 215   0.0000       0.732746        19.9390 
 216   0.0000       0.736493        20.0410 
 217   0.0000       0.747921        20.3520 
 218   0.0000       0.754404        20.5284 
 219   0.0000       0.759039        20.6545 
 220   0.0000       0.771117        20.9832 
 221   0.0000       0.777154        21.1474 
 222   0.0000       0.788358        21.4523 
 223   0.0000       0.809255        22.0209 
 224   0.0000       0.818010        22.2592 
 225   0.0000       0.822524        22.3820 
 226   0.0000       0.830885        22.6095 
 227   0.0000       0.835966        22.7478 
 228   0.0000       0.837373        22.7861 
 229   0.0000       0.848373        23.0854 
 230   0.0000       0.860544        23.4166 
 231   0.0000       0.863858        23.5068 
 232   0.0000       0.869678        23.6652 
 233   0.0000       0.881765        23.9940 
 234   0.0000       0.892108        24.2755 
 235   0.0000       0.896460        24.3939 
 236   0.0000       0.900580        24.5060 
 237   0.0000       0.921599        25.0780 
 238   0.0000       0.923439        25.1281 
 239   0.0000       0.930236        25.3130 
 240   0.0000       0.949502        25.8373 
 241   0.0000       0.956728        26.0339 
 242   0.0000       0.964120        26.2350 
 243   0.0000       0.967900        26.3379 
 244   0.0000       0.977580        26.6013 
 245   0.0000       0.982973        26.7481 
 246   0.0000       0.985013        26.8036 
 247   0.0000       0.996629        27.1197 
 248   0.0000       1.008195        27.4344 
 249   0.0000       1.016184        27.6518 
 250   0.0000       1.023607        27.8538 
 251   0.0000       1.027269        27.9534 
 252   0.0000       1.030405        28.0387 
 253   0.0000       1.037011        28.2185 
 254   0.0000       1.040211        28.3056 
 255   0.0000       1.054580        28.6966 
 256   0.0000       1.072309        29.1790 
 257   0.0000       1.076018        29.2799 
 258   0.0000       1.094423        29.7808 
 259   0.0000       1.099339        29.9145 
 260   0.0000       1.103635        30.0314 
 261   0.0000       1.131325        30.7849 
 262   0.0000       1.145603        31.1734 
 263   0.0000       1.156902        31.4809 
 264   0.0000       1.165487        31.7145 
 265   0.0000       1.176765        32.0214 
 266   0.0000       1.184391        32.2289 
 267   0.0000       1.197578        32.5878 
 268   0.0000       1.199370        32.6365 
 269   0.0000       1.200436        32.6655 
 270   0.0000       1.207364        32.8540 
 271   0.0000       1.212582        32.9960 
 272   0.0000       1.213066        33.0092 
 273   0.0000       1.214004        33.0347 
 274   0.0000       1.218009        33.1437 
 275   0.0000       1.221673        33.2434 
 276   0.0000       1.246145        33.9093 
 277   0.0000       1.267929        34.5021 
 278   0.0000       1.275641        34.7119 
 279   0.0000       1.293459        35.1968 
 280   0.0000       1.296146        35.2699 
 281   0.0000       1.305355        35.5205 
 282   0.0000       1.317674        35.8557 
 283   0.0000       1.322263        35.9806 
 284   0.0000       1.336842        36.3773 
 285   0.0000       1.352159        36.7941 
 286   0.0000       1.365791        37.1651 
 287   0.0000       1.370753        37.3001 
 288   0.0000       1.373080        37.3634 
 289   0.0000       1.384377        37.6708 
 290   0.0000       1.399654        38.0865 
 291   0.0000       1.402572        38.1659 
 292   0.0000       1.418082        38.5880 
 293   0.0000       1.421966        38.6937 
 294   0.0000       1.423858        38.7452 
 295   0.0000       1.424586        38.7650 
 296   0.0000       1.454526        39.5797 
 297   0.0000       1.456931        39.6451 
 298   0.0000       1.458904        39.6988 
 299   0.0000       1.461005        39.7560 
 300   0.0000       1.467959        39.9452 
 301   0.0000       1.470059        40.0023 
 302   0.0000       1.478429        40.2301 
 303   0.0000       1.490802        40.5668 
 304   0.0000       1.491936        40.5976 
 305   0.0000       1.501926        40.8695 
 306   0.0000       1.514131        41.2016 
 307   0.0000       1.517234        41.2860 
 308   0.0000       1.531571        41.6762 
 309   0.0000       1.556212        42.3467 
 310   0.0000       1.559711        42.4419 
 311   0.0000       1.562629        42.5213 
 312   0.0000       1.564888        42.5828 
 313   0.0000       1.579528        42.9811 
 314   0.0000       1.585079        43.1322 
 315   0.0000       1.590615        43.2828 
 316   0.0000       1.596455        43.4418 
 317   0.0000       1.613063        43.8937 
 318   0.0000       1.614969        43.9455 
 319   0.0000       1.616513        43.9875 
 320   0.0000       1.617430        44.0125 
 321   0.0000       1.622700        44.1559 
 322   0.0000       1.625680        44.2370 
 323   0.0000       1.627315        44.2815 
 324   0.0000       1.628641        44.3176 
 325   0.0000       1.629196        44.3327 
 326   0.0000       1.635420        44.5020 
 327   0.0000       1.639484        44.6126 
 328   0.0000       1.641637        44.6712 
 329   0.0000       1.644888        44.7597 
 330   0.0000       1.656551        45.0770 
 331   0.0000       1.662295        45.2334 
 332   0.0000       1.665005        45.3071 
 333   0.0000       1.666951        45.3600 
 334   0.0000       1.677852        45.6567 
 335   0.0000       1.679556        45.7030 
 336   0.0000       1.683354        45.8064 
 337   0.0000       1.686184        45.8834 
 338   0.0000       1.689507        45.9738 
 339   0.0000       1.689758        45.9807 
 340   0.0000       1.697697        46.1967 
 341   0.0000       1.701128        46.2901 
 342   0.0000       1.709006        46.5044 
 343   0.0000       1.716427        46.7064 
 344   0.0000       1.719131        46.7799 
 345   0.0000       1.721121        46.8341 
 346   0.0000       1.726278        46.9744 
 347   0.0000       1.727193        46.9993 
 348   0.0000       1.742062        47.4039 
 349   0.0000       1.752377        47.6846 
 350   0.0000       1.754886        47.7529 
 351   0.0000       1.760119        47.8953 
 352   0.0000       1.765477        48.0411 
 353   0.0000       1.774043        48.2742 
 354   0.0000       1.775151        48.3043 
 355   0.0000       1.780934        48.4617 
 356   0.0000       1.788329        48.6629 
 357   0.0000       1.790297        48.7164 
 358   0.0000       1.793454        48.8024 
 359   0.0000       1.811416        49.2911 
 360   0.0000       1.812246        49.3137 
 361   0.0000       1.818448        49.4825 
 362   0.0000       1.821631        49.5691 
 363   0.0000       1.826373        49.6981 
 364   0.0000       1.830960        49.8230 
 365   0.0000       1.836361        49.9699 
 366   0.0000       1.844378        50.1881 
 367   0.0000       1.845518        50.2191 
 368   0.0000       1.845825        50.2275 
 369   0.0000       1.874709        51.0134 
 370   0.0000       1.892421        51.4954 
 371   0.0000       1.899418        51.6858 
 372   0.0000       1.901031        51.7297 
 373   0.0000       1.917562        52.1795 
 374   0.0000       1.919271        52.2260 
 375   0.0000       1.920374        52.2560 
 376   0.0000       1.929772        52.5118 
 377   0.0000       1.948954        53.0337 
 378   0.0000       1.953273        53.1513 
 379   0.0000       1.955870        53.2219 
 380   0.0000       1.962139        53.3925 
 381   0.0000       1.965862        53.4938 
 382   0.0000       1.976485        53.7829 
 383   0.0000       1.978306        53.8324 
 384   0.0000       1.991617        54.1947 
 385   0.0000       2.003811        54.5265 
 386   0.0000       2.016549        54.8731 
 387   0.0000       2.032747        55.3139 
 388   0.0000       2.053511        55.8789 
 389   0.0000       2.059474        56.0411 
 390   0.0000       2.075683        56.4822 
 391   0.0000       2.084040        56.7096 
 392   0.0000       2.084471        56.7213 
 393   0.0000       2.100503        57.1576 
 394   0.0000       2.105476        57.2929 
 395   0.0000       2.151259        58.5387 
 396   0.0000       2.161967        58.8301 
 397   0.0000       2.169033        59.0224 
 398   0.0000       2.169526        59.0358 
 399   0.0000       2.176678        59.2304 
 400   0.0000       2.187062        59.5130 
 401   0.0000       2.194167        59.7063 
 402   0.0000       2.195691        59.7478 
 403   0.0000       2.207903        60.0801 
 404   0.0000       2.214262        60.2531 
 405   0.0000       2.217865        60.3512 
 406   0.0000       2.226059        60.5741 
 407   0.0000       2.252366        61.2900 
 408   0.0000       2.266511        61.6749 
 409   0.0000       2.270405        61.7809 
 410   0.0000       2.283328        62.1325 
 411   0.0000       2.294321        62.4317 
 412   0.0000       2.294645        62.4405 
 413   0.0000       2.310737        62.8783 
 414   0.0000       2.316747        63.0419 
 415   0.0000       2.324106        63.2421 
 416   0.0000       2.332240        63.4635 
 417   0.0000       2.333078        63.4863 
 418   0.0000       2.348299        63.9005 
 419   0.0000       2.369327        64.4727 
 420   0.0000       2.390085        65.0375 
 421   0.0000       2.400503        65.3210 
 422   0.0000       2.403594        65.4051 
 423   0.0000       2.405104        65.4462 
 424   0.0000       2.408255        65.5320 
 425   0.0000       2.410707        65.5987 
 426   0.0000       2.412341        65.6431 
 427   0.0000       2.417373        65.7801 
 428   0.0000       2.419887        65.8485 
 429   0.0000       2.432375        66.1883 
 430   0.0000       2.478482        67.4429 
 431   0.0000       2.479967        67.4833 
 432   0.0000       2.501629        68.0728 
 433   0.0000       2.510298        68.3087 
 434   0.0000       2.529729        68.8374 
 435   0.0000       2.532295        68.9072 
 436   0.0000       2.550272        69.3964 
 437   0.0000       2.573496        70.0284 
 438   0.0000       2.582215        70.2656 
 439   0.0000       2.598617        70.7120 
 440   0.0000       2.608041        70.9684 
 441   0.0000       2.614673        71.1489 
 442   0.0000       2.616881        71.2090 
 443   0.0000       2.685315        73.0711 
 444   0.0000       2.700129        73.4742 
 445   0.0000       2.704752        73.6001 
 446   0.0000       2.707239        73.6677 
 447   0.0000       2.708494        73.7019 
 448   0.0000       2.713520        73.8386 
 449   0.0000       2.721175        74.0469 
 450   0.0000       2.734828        74.4184 
 451   0.0000       2.763221        75.1911 
 452   0.0000       2.813559        76.5608 
 453   0.0000       2.831467        77.0481 
 454   0.0000       2.838671        77.2442 
 455   0.0000       2.853752        77.6545 
 456   0.0000       2.866354        77.9974 
 457   0.0000       3.054576        83.1192 
 458   0.0000       3.074117        83.6510 
 459   0.0000       3.342468        90.9532 
 460   0.0000       3.566631        97.0530 

                 SPIN DOWN ORBITALS
  NO   OCC          E(Eh)            E(eV) 
   0   1.0000     -10.240878      -278.6685 
   1   1.0000     -10.236254      -278.5426 
   2   1.0000     -10.229953      -278.3712 
   3   1.0000     -10.220905      -278.1250 
   4   1.0000     -10.220889      -278.1245 
   5   1.0000     -10.217416      -278.0300 
   6   1.0000     -10.216510      -278.0054 
   7   1.0000     -10.216364      -278.0014 
   8   1.0000     -10.214499      -277.9507 
   9   1.0000     -10.213450      -277.9221 
  10   1.0000     -10.212894      -277.9070 
  11   1.0000     -10.212773      -277.9037 
  12   1.0000     -10.211123      -277.8588 
  13   1.0000     -10.209184      -277.8060 
  14   1.0000     -10.201204      -277.5889 
  15   1.0000     -10.192882      -277.3624 
  16   1.0000     -10.191176      -277.3160 
  17   1.0000     -10.189632      -277.2740 
  18   1.0000     -10.187887      -277.2265 
  19   1.0000     -10.184339      -277.1300 
  20   1.0000     -10.180758      -277.0325 
  21   1.0000     -10.178321      -276.9662 
  22   1.0000     -10.166962      -276.6571 
  23   1.0000     -10.164436      -276.5884 
  24   1.0000      -0.890011       -24.2184 
  25   1.0000      -0.881979       -23.9999 
  26   1.0000      -0.830846       -22.6085 
  27   1.0000      -0.812991       -22.1226 
  28   1.0000      -0.801839       -21.8192 
  29   1.0000      -0.793388       -21.5892 
  30   1.0000      -0.776817       -21.1383 
  31   1.0000      -0.769238       -20.9320 
  32   1.0000      -0.749849       -20.4044 
  33   1.0000      -0.737938       -20.0803 
  34   1.0000      -0.711204       -19.3528 
  35   1.0000      -0.698400       -19.0044 
  36   1.0000      -0.662306       -18.0222 
  37   1.0000      -0.652049       -17.7432 
  38   1.0000      -0.629614       -17.1327 
  39   1.0000      -0.629342       -17.1253 
  40   1.0000      -0.626974       -17.0608 
  41   1.0000      -0.600490       -16.3402 
  42   1.0000      -0.585872       -15.9424 
  43   1.0000      -0.572335       -15.5740 
  44   1.0000      -0.556814       -15.1517 
  45   1.0000      -0.523413       -14.2428 
  46   1.0000      -0.519960       -14.1488 
  47   1.0000      -0.497136       -13.5277 
  48   1.0000      -0.491769       -13.3817 
  49   1.0000      -0.480594       -13.0776 
  50   1.0000      -0.476210       -12.9583 
  51   1.0000      -0.474814       -12.9203 
  52   1.0000      -0.453349       -12.3362 
  53   1.0000      -0.444772       -12.1028 
  54   1.0000      -0.442331       -12.0364 
  55   1.0000      -0.434605       -11.8262 
  56   1.0000      -0.432787       -11.7767 
  57   1.0000      -0.429812       -11.6958 
  58   1.0000      -0.422664       -11.5013 
  59   1.0000      -0.418160       -11.3787 
  60   1.0000      -0.409159       -11.1338 
  61   1.0000      -0.400767       -10.9054 
  62   1.0000      -0.386775       -10.5247 
  63   1.0000      -0.381692       -10.3864 
  64   1.0000      -0.378359       -10.2957 
  65   1.0000      -0.374238       -10.1835 
  66   1.0000      -0.368903       -10.0384 
  67   1.0000      -0.366322        -9.9681 
  68   1.0000      -0.364751        -9.9254 
  69   1.0000      -0.351663        -9.5692 
  70   1.0000      -0.341171        -9.2837 
  71   1.0000      -0.336802        -9.1648 
  72   1.0000      -0.336147        -9.1470 
  73   1.0000      -0.332519        -9.0483 
  74   1.0000      -0.330604        -8.9962 
  75   1.0000      -0.329841        -8.9754 
  76   1.0000      -0.325995        -8.8708 
  77   1.0000      -0.297238        -8.0883 
  78   1.0000      -0.290666        -7.9094 
  79   1.0000      -0.276045        -7.5116 
  80   1.0000      -0.261543        -7.1170 
  81   1.0000      -0.244661        -6.6576 
  82   1.0000      -0.236276        -6.4294 
  83   1.0000      -0.234288        -6.3753 
  84   0.0000      -0.153134        -4.1670 
  85   0.0000      -0.069209        -1.8833 
  86   0.0000      -0.027135        -0.7384 
  87   0.0000      -0.017990        -0.4895 
  88   0.0000      -0.012618        -0.3433 
  89   0.0000       0.023495         0.6393 
  90   0.0000       0.040068         1.0903 
  91   0.0000       0.054659         1.4873 
  92   0.0000       0.057748         1.5714 
  93   0.0000       0.061949         1.6857 
  94   0.0000       0.068845         1.8734 
  95   0.0000       0.071067         1.9338 
  96   0.0000       0.077439         2.1072 
  97   0.0000       0.086708         2.3594 
  98   0.0000       0.088465         2.4073 
  99   0.0000       0.088475         2.4075 
 100   0.0000       0.090892         2.4733 
 101   0.0000       0.092002         2.5035 
 102   0.0000       0.102039         2.7766 
 103   0.0000       0.116373         3.1667 
 104   0.0000       0.119072         3.2401 
 105   0.0000       0.122909         3.3445 
 106   0.0000       0.127457         3.4683 
 107   0.0000       0.132505         3.6057 
 108   0.0000       0.144517         3.9325 
 109   0.0000       0.145471         3.9585 
 110   0.0000       0.145510         3.9595 
 111   0.0000       0.148085         4.0296 
 112   0.0000       0.152736         4.1562 
 113   0.0000       0.153330         4.1723 
 114   0.0000       0.157274         4.2796 
 115   0.0000       0.160882         4.3778 
 116   0.0000       0.168322         4.5803 
 117   0.0000       0.168843         4.5945 
 118   0.0000       0.182726         4.9722 
 119   0.0000       0.191255         5.2043 
 120   0.0000       0.199218         5.4210 
 121   0.0000       0.200357         5.4520 
 122   0.0000       0.205944         5.6040 
 123   0.0000       0.209850         5.7103 
 124   0.0000       0.213455         5.8084 
 125   0.0000       0.230776         6.2797 
 126   0.0000       0.235172         6.3994 
 127   0.0000       0.254071         6.9136 
 128   0.0000       0.262001         7.1294 
 129   0.0000       0.262836         7.1521 
 130   0.0000       0.269276         7.3274 
 131   0.0000       0.277366         7.5475 
 132   0.0000       0.290617         7.9081 
 133   0.0000       0.296510         8.0685 
 134   0.0000       0.314860         8.5678 
 135   0.0000       0.324985         8.8433 
 136   0.0000       0.348817         9.4918 
 137   0.0000       0.353415         9.6169 
 138   0.0000       0.360732         9.8160 
 139   0.0000       0.366037         9.9604 
 140   0.0000       0.388362        10.5679 
 141   0.0000       0.395590        10.7645 
 142   0.0000       0.403878        10.9901 
 143   0.0000       0.405411        11.0318 
 144   0.0000       0.406836        11.0706 
 145   0.0000       0.410570        11.1722 
 146   0.0000       0.414197        11.2709 
 147   0.0000       0.418567        11.3898 
 148   0.0000       0.421961        11.4822 
 149   0.0000       0.433136        11.7862 
 150   0.0000       0.434461        11.8223 
 151   0.0000       0.438941        11.9442 
 152   0.0000       0.451789        12.2938 
 153   0.0000       0.453264        12.3339 
 154   0.0000       0.457247        12.4423 
 155   0.0000       0.466755        12.7010 
 156   0.0000       0.467102        12.7105 
 157   0.0000       0.472125        12.8472 
 158   0.0000       0.477984        13.0066 
 159   0.0000       0.486258        13.2318 
 160   0.0000       0.488195        13.2845 
 161   0.0000       0.492096        13.3906 
 162   0.0000       0.492512        13.4019 
 163   0.0000       0.497973        13.5505 
 164   0.0000       0.499230        13.5847 
 165   0.0000       0.501263        13.6401 
 166   0.0000       0.504362        13.7244 
 167   0.0000       0.507756        13.8168 
 168   0.0000       0.511036        13.9060 
 169   0.0000       0.521068        14.1790 
 170   0.0000       0.533598        14.5199 
 171   0.0000       0.538949        14.6655 
 172   0.0000       0.541910        14.7461 
 173   0.0000       0.563619        15.3369 
 174   0.0000       0.566025        15.4023 
 175   0.0000       0.569171        15.4879 
 176   0.0000       0.576055        15.6753 
 177   0.0000       0.581005        15.8099 
 178   0.0000       0.582584        15.8529 
 179   0.0000       0.586605        15.9623 
 180   0.0000       0.597670        16.2634 
 181   0.0000       0.604732        16.4556 
 182   0.0000       0.613393        16.6913 
 183   0.0000       0.613822        16.7030 
 184   0.0000       0.614389        16.7184 
 185   0.0000       0.619774        16.8649 
 186   0.0000       0.623791        16.9742 
 187   0.0000       0.628287        17.0966 
 188   0.0000       0.631116        17.1735 
 189   0.0000       0.635223        17.2853 
[...]
  Z           0.9999969            0.0023977            0.0006154

Notes:  (1) The A matrix conforms to the "SAI" spin Hamiltonian convention.
        (2) Tensor is right-handed.

 -----------------------------------------------------------
 Nucleus  46H : A:ISTP=    1 I=  0.5 P=533.5514 MHz/au**3
                Q:ISTP=    2 I=  1.0 Q=  0.0029 barn     
 -----------------------------------------------------------
 Solving for nuclear perturbation:
Forming RHS of the CP-SCF equations         ... 
Calc. nucleus orbit integrals (SHARK)       ... done

------------------------------------------------------------------------------
                           ORCA CP-SCF CALCULATION
------------------------------------------------------------------------------

Input orbitals are from        ... cc-pVDZ_i.gbw
Input Perturbation             ... cc-pVDZ_i.pin.tmp
Wavefunction output            ... cc-pVDZ_i.pout.tmp
Perturbation mode              ... Imaginary perturbation
Solver                         ... POPLE
Max. number of iterations      ... 64
Convergence tolerance          ... 1.000e-03
Integral handling              ... Direct
DFT GridXC                     ... 1
COSX GridX                     ... 1
COSX IntAccX                   ... 3.067
COSX Algorithm                 ... Auto
Number of perturbations        ... 3
Number of operators            ... 2
Orbital ranges used for CP-SCF:
 Operator 0:  Orbitals   0... 84  to  85...460
 Operator 1:  Orbitals   0... 83  to  84...460
Variables per perturbation     ... 63628
DFT calculation                         ... on
XC functional terms                     ... off
Hybrid DFT                              ... on
   Exchange mixing (SCF)                ...  0.200
   Exchange mixing (CP-SCF)             ...  0.200
   GGA exch. scaling(SCF)               ...  0.720
   GGA exch. scaling (CP-SCF)           ...  0.720
   GGA corr. scaling (SCF)              ...  0.810
   GGA corr. scaling (CP-SCF)           ...  0.810

CP-SCF GRID
-----------

General Integration Accuracy     IntAcc      ... 3.467
Radial Grid Type                 RadialGrid  ... OptM3 with GC (2021)
Angular Grid (max. ang.)         AngularGrid ... 1 (Lebedev-50)
Angular grid pruning method      GridPruning ... 4 (adaptive)
Weight generation scheme         WeightScheme... Becke
Basis function cutoff            BFCut       ... 1.0000e-10
Integration weight cutoff        WCut        ... 1.0000e-14
Angular grids for H and He will be reduced by one unit
Partially contracted basis set               ... off
Rotationally invariant grid construction     ... off

Total number of grid points                  ...    31842
Total number of batches                      ...      519
Average number of points per batch           ...       61
Average number of grid points per atom       ...      650

CP-SCF GRIDX
------------

General Integration Accuracy     IntAcc      ... 3.067
Radial Grid Type                 RadialGrid  ... OptM3 with GC (2021)
Angular Grid (max. ang.)         AngularGrid ... 1 (Lebedev-50)
Angular grid pruning method      GridPruning ... 4 (adaptive)
Weight generation scheme         WeightScheme... Becke
Basis function cutoff            BFCut       ... 1.0000e-10
Integration weight cutoff        WCut        ... 1.0000e-14
Angular grids for H and He will be reduced by one unit
Partially contracted basis set               ... on
Rotationally invariant grid construction     ... off

Total number of grid points                  ...    14941
Total number of batches                      ...      262
Average number of points per batch           ...       57
Average number of grid points per atom       ...      305

Memory available               ... 875.3 MB
Memory needed per perturbation ...  13.4 MB
Perturbations treated per batch... 3
Number of batches              ... 1
     CP-SCF ITERATION   0:   4.5903e-02 (   1.9 sec   0/  3 done)
     CP-SCF ITERATION   1:   2.1112e-03 (   1.9 sec   0/  3 done)
     CP-SCF ITERATION   2:   4.3553e-04 (   1.9 sec   3/  3 done)
                    *** THE CP-SCF HAS CONVERGED ***

Forming final perturbed densities           ... done
Transforming perturbed density to AO basis  ... done

 Raw HFC matrix (all values in MHz): 
 -----------------------------------
                -3.0214               0.7413               0.0019
                 0.7413              -1.5988               0.0038
                 0.0019               0.0038              -3.2175

 A(FC)          -2.6131              -2.6131              -2.6131
 A(SD)           1.3300              -0.6043              -0.7257
 A(ORB+DIA)      0.0004              -0.0001               0.0014    A(PC) =   0.0006
 A(ORB)          0.0001               0.0000               0.0013    A(PC) =   0.0005
 A(DIA)          0.0003              -0.0001               0.0001    A(PC) =   0.0001
             ----------           ----------           ----------
 A(Tot)         -1.2827              -3.2175              -3.3375    A(iso)=   -2.6126
 Orientation: 
  X           0.3921955            0.0010573            0.9198813
  Y           0.9198793           -0.0028135           -0.3921915
  Z           0.0021734            0.9999955           -0.0020760

Notes:  (1) The A matrix conforms to the "SAI" spin Hamiltonian convention.
        (2) Tensor is right-handed.

 -----------------------------------------------------------
 Nucleus  47H : A:ISTP=    1 I=  0.5 P=533.5514 MHz/au**3
                Q:ISTP=    2 I=  1.0 Q=  0.0029 barn     
 -----------------------------------------------------------
 Solving for nuclear perturbation:
Forming RHS of the CP-SCF equations         ... 
Calc. nucleus orbit integrals (SHARK)       ... done

------------------------------------------------------------------------------
                           ORCA CP-SCF CALCULATION
------------------------------------------------------------------------------

Input orbitals are from        ... cc-pVDZ_i.gbw
Input Perturbation             ... cc-pVDZ_i.pin.tmp
Wavefunction output            ... cc-pVDZ_i.pout.tmp
Perturbation mode              ... Imaginary perturbation
Solver                         ... POPLE
Max. number of iterations      ... 64
Convergence tolerance          ... 1.000e-03
Integral handling              ... Direct
DFT GridXC                     ... 1
COSX GridX                     ... 1
COSX IntAccX                   ... 3.067
COSX Algorithm                 ... Auto
Number of perturbations        ... 3
Number of operators            ... 2
Orbital ranges used for CP-SCF:
 Operator 0:  Orbitals   0... 84  to  85...460
 Operator 1:  Orbitals   0... 83  to  84...460
Variables per perturbation     ... 63628
DFT calculation                         ... on
XC functional terms                     ... off
Hybrid DFT                              ... on
   Exchange mixing (SCF)                ...  0.200
   Exchange mixing (CP-SCF)             ...  0.200
   GGA exch. scaling(SCF)               ...  0.720
   GGA exch. scaling (CP-SCF)           ...  0.720
   GGA corr. scaling (SCF)              ...  0.810
   GGA corr. scaling (CP-SCF)           ...  0.810

CP-SCF GRID
-----------

General Integration Accuracy     IntAcc      ... 3.467
Radial Grid Type                 RadialGrid  ... OptM3 with GC (2021)
Angular Grid (max. ang.)         AngularGrid ... 1 (Lebedev-50)
Angular grid pruning method      GridPruning ... 4 (adaptive)
Weight generation scheme         WeightScheme... Becke
Basis function cutoff            BFCut       ... 1.0000e-10
Integration weight cutoff        WCut        ... 1.0000e-14
Angular grids for H and He will be reduced by one unit
Partially contracted basis set               ... off
Rotationally invariant grid construction     ... off

Total number of grid points                  ...    31842
Total number of batches                      ...      519
Average number of points per batch           ...       61
Average number of grid points per atom       ...      650

CP-SCF GRIDX
------------

General Integration Accuracy     IntAcc      ... 3.067
Radial Grid Type                 RadialGrid  ... OptM3 with GC (2021)
Angular Grid (max. ang.)         AngularGrid ... 1 (Lebedev-50)
Angular grid pruning method      GridPruning ... 4 (adaptive)
Weight generation scheme         WeightScheme... Becke
Basis function cutoff            BFCut       ... 1.0000e-10
Integration weight cutoff        WCut        ... 1.0000e-14
Angular grids for H and He will be reduced by one unit
Partially contracted basis set               ... on
Rotationally invariant grid construction     ... off

Total number of grid points                  ...    14941
Total number of batches                      ...      262
Average number of points per batch           ...       57
Average number of grid points per atom       ...      305

Memory available               ... 874.8 MB
Memory needed per perturbation ...  13.4 MB
Perturbations treated per batch... 3
Number of batches              ... 1
     CP-SCF ITERATION   0:   4.5985e-02 (   1.9 sec   0/  3 done)
     CP-SCF ITERATION   1:   2.1081e-03 (   1.9 sec   0/  3 done)
     CP-SCF ITERATION   2:   4.3800e-04 (   1.9 sec   3/  3 done)
                    *** THE CP-SCF HAS CONVERGED ***

Forming final perturbed densities           ... done
Transforming perturbed density to AO basis  ... done

 Raw HFC matrix (all values in MHz): 
 -----------------------------------
                -3.1426              -0.6059              -0.0011
                -0.6060              -1.4770               0.0037
                -0.0011               0.0037              -3.2111

 A(FC)          -2.6108              -2.6108              -2.6108
 A(SD)           1.3305              -0.6002              -0.7303
 A(ORB+DIA)      0.0004              -0.0001               0.0014    A(PC) =   0.0006
 A(ORB)          0.0002               0.0000               0.0013    A(PC) =   0.0005
 A(DIA)          0.0003              -0.0001               0.0001    A(PC) =   0.0001
             ----------           ----------           ----------
 A(Tot)         -1.2799              -3.2111              -3.3397    A(iso)=   -2.6102
 Orientation: 
  X          -0.3093526            0.0014733            0.9509463
  Y           0.9509453           -0.0016391            0.3093548
  Z           0.0020144            0.9999976           -0.0008940

Notes:  (1) The A matrix conforms to the "SAI" spin Hamiltonian convention.
        (2) Tensor is right-handed.

 -----------------------------------------------------------
 Nucleus  48H : A:ISTP=    1 I=  0.5 P=533.5514 MHz/au**3
                Q:ISTP=    2 I=  1.0 Q=  0.0029 barn     
 -----------------------------------------------------------
 Solving for nuclear perturbation:
Forming RHS of the CP-SCF equations         ... 
Calc. nucleus orbit integrals (SHARK)       ... done

------------------------------------------------------------------------------
                           ORCA CP-SCF CALCULATION
------------------------------------------------------------------------------

Input orbitals are from        ... cc-pVDZ_i.gbw
Input Perturbation             ... cc-pVDZ_i.pin.tmp
Wavefunction output            ... cc-pVDZ_i.pout.tmp
Perturbation mode              ... Imaginary perturbation
Solver                         ... POPLE
Max. number of iterations      ... 64
Convergence tolerance          ... 1.000e-03
Integral handling              ... Direct
DFT GridXC                     ... 1
COSX GridX                     ... 1
COSX IntAccX                   ... 3.067
COSX Algorithm                 ... Auto
Number of perturbations        ... 3
Number of operators            ... 2
Orbital ranges used for CP-SCF:
 Operator 0:  Orbitals   0... 84  to  85...460
 Operator 1:  Orbitals   0... 83  to  84...460
Variables per perturbation     ... 63628
DFT calculation                         ... on
XC functional terms                     ... off
Hybrid DFT                              ... on
   Exchange mixing (SCF)                ...  0.200
   Exchange mixing (CP-SCF)             ...  0.200
   GGA exch. scaling(SCF)               ...  0.720
   GGA exch. scaling (CP-SCF)           ...  0.720
   GGA corr. scaling (SCF)              ...  0.810
   GGA corr. scaling (CP-SCF)           ...  0.810

CP-SCF GRID
-----------

General Integration Accuracy     IntAcc      ... 3.467
Radial Grid Type                 RadialGrid  ... OptM3 with GC (2021)
Angular Grid (max. ang.)         AngularGrid ... 1 (Lebedev-50)
Angular grid pruning method      GridPruning ... 4 (adaptive)
Weight generation scheme         WeightScheme... Becke
Basis function cutoff            BFCut       ... 1.0000e-10
Integration weight cutoff        WCut        ... 1.0000e-14
Angular grids for H and He will be reduced by one unit
Partially contracted basis set               ... off
Rotationally invariant grid construction     ... off

Total number of grid points                  ...    31842
Total number of batches                      ...      519
Average number of points per batch           ...       61
Average number of grid points per atom       ...      650

CP-SCF GRIDX
------------

General Integration Accuracy     IntAcc      ... 3.067
Radial Grid Type                 RadialGrid  ... OptM3 with GC (2021)
Angular Grid (max. ang.)         AngularGrid ... 1 (Lebedev-50)
Angular grid pruning method      GridPruning ... 4 (adaptive)
Weight generation scheme         WeightScheme... Becke
Basis function cutoff            BFCut       ... 1.0000e-10
Integration weight cutoff        WCut        ... 1.0000e-14
Angular grids for H and He will be reduced by one unit
Partially contracted basis set               ... on
Rotationally invariant grid construction     ... off

Total number of grid points                  ...    14941
Total number of batches                      ...      262
Average number of points per batch           ...       57
Average number of grid points per atom       ...      305

Memory available               ... 874.2 MB
Memory needed per perturbation ...  13.4 MB
Perturbations treated per batch... 3
Number of batches              ... 1
     CP-SCF ITERATION   0:   4.1734e-02 (   1.9 sec   0/  3 done)
     CP-SCF ITERATION   1:   1.7412e-03 (   1.9 sec   1/  3 done)
     CP-SCF ITERATION   2:   9.4251e-05 (   1.5 sec   3/  3 done)
                    *** THE CP-SCF HAS CONVERGED ***

Forming final perturbed densities           ... done
Transforming perturbed density to AO basis  ... done

 Raw HFC matrix (all values in MHz): 
 -----------------------------------
                 1.7041               0.2895               0.0010
                 0.2894               1.0225               0.0007
                 0.0010               0.0007               0.7191

 A(FC)           1.1485               1.1485               1.1485
 A(SD)          -0.4295              -0.2327               0.6622
 A(ORB+DIA)      0.0000               0.0003              -0.0003    A(PC) =   0.0000
 A(ORB)         -0.0000               0.0003              -0.0003    A(PC) =  -0.0000
 A(DIA)          0.0001               0.0000               0.0001    A(PC) =   0.0001
             ----------           ----------           ----------
 A(Tot)          0.7191               0.9162               1.8104    A(iso)=    1.1486
 Orientation: 
  X          -0.0004300           -0.3448367           -0.9386626
  Y          -0.0018284            0.9386614           -0.3448355
  Z           0.9999982            0.0015680           -0.0010341

Notes:  (1) The A matrix conforms to the "SAI" spin Hamiltonian convention.
        (2) Tensor is right-handed.


--------------------------------------------------------------------------------
----------------------------------------------------------------------------
                           ORCA EULER ANGLE PROGRAM
----------------------------------------------------------------------------

Only g-tensor available        -->  using g-tensor as reference tensor

Reference tensor               ...  g

g-tensor ordering              ...  |g_min> --> |gx>
                                    |g_mid> --> |gy>
                                    |g_max> --> |gz>

A- and EFG-tensor ordering     ...  the axes |Ax>, |Qx>, |Ay>, etc. are assigned
                                    such that the Euler rotation is minimal. You
                                    can find the respective eigenvalues as Ax,
                                    EFGx, Ay, etc. in the tables below.
                                    The relation of |Ax>, |Ay>,  etc. to Amin, Amid, etc.
                                    (as printed in the ORCA EPR/NMR CALCULATION Output)
                                    is obtained in the detailed printout.

Euler rotation around          ...  z - y - z
   First rotation              -->  by alpha around z
   Second rotation             -->  by beta around y'
   Third rotation              -->  by gamma around z''
   Positive / Negative angle   -->  clockwise / counterclockwise rotation

Plot EFG-tensors                    (-)
Plot HFC-tensors                    (-)
Detailed Printout                   (-)

-------------------------------------------------------------------------
          Euler rotation of hyperfine tensor to g-tensor
-------------------------------------------------------------------------

-------------------------------------------------------------------
 Atom  |   Alpha    Beta    Gamma   |   Ax       Ay       Az 
       |          [degrees]         |           [MHz]         
-------------------------------------------------------------------
  9H       90.5     37.9    -90.4       2.45     3.31     6.42
 10H       90.8     20.7    -90.8      -9.85    -3.43   -10.57
 12H       62.8     15.3    -45.9      10.30    15.08    11.85
 13H      118.9     15.8   -135.7      10.30    15.08    11.86
 15H       78.8     30.1    -64.4      -0.94     0.89    -0.74
 16H      102.4     30.3   -116.7      -0.94     0.89    -0.74
 18H      137.7      7.8   -147.0      -0.39     0.87    -0.29
 19H       46.0      7.2    -36.7      -0.39     0.87    -0.29
 21H       92.6     17.8   -100.4      -0.18     0.38    -0.11
 22H       89.7     17.7    -81.7      -0.18     0.38    -0.11
 24H      -97.7     26.6    112.9      -4.71    -3.11    -3.98
 25H      -83.8     26.3     68.5      -4.70    -3.10    -3.97
 27H      -81.8     25.0     69.1      -0.23     1.44    -0.04
 28H      -99.8     25.2    112.3      -0.23     1.44    -0.04
 30H      -96.1     27.6    105.9      -0.31     0.28    -0.15
 31H      -85.4     27.5     75.5      -0.31     0.28    -0.15
 33H      -91.9     14.2     99.4      -0.21     0.32    -0.15
 34H      -91.0     14.1     83.4      -0.21     0.32    -0.15
 36H       92.6      8.3    -92.6      -0.17     0.30    -0.14
 37H      -91.1     18.2     91.1      -0.14     0.21    -0.09
 44H      172.5      0.3   -172.5      -3.09    -4.81    -0.97
 45H      -90.8     22.3     90.8       0.72     0.92     1.80
 46H      -91.1     20.8     91.1      -3.22    -1.28    -3.34
 47H       91.2     20.3    -91.2      -3.21    -1.28    -3.34
 48H       90.8     22.5    -90.8       0.72     0.92     1.81
-------------------------------------------------------------------


Maximum memory used throughout the entire EPRNMR-calculation: 219.7 MB

Timings for individual modules:

Sum of individual times         ...     4964.005 sec (=  82.733 min)
GTO integral calculation        ...        4.797 sec (=   0.080 min)   0.1 %
Spin-Orbit-Coupling Matrices    ...        9.549 sec (=   0.159 min)   0.2 %
SCF iterations                  ...       31.343 sec (=   0.522 min)   0.6 %
EPR/NMR calculation             ...     4918.315 sec (=  81.972 min)  99.1 %
                             ****ORCA TERMINATED NORMALLY****
TOTAL RUN TIME: 0 days 1 hours 22 minutes 48 seconds 201 msec
