
                                 *****************
                                 * O   R   C   A *
                                 *****************

                                            #,                                       
                                            ###                                      
                                            ####                                     
                                            #####                                    
                                            ######                                   
                                           ########,                                 
                                     ,,################,,,,,                         
                               ,,#################################,,                 
                          ,,##########################################,,             
                       ,#########################################, ''#####,          
                    ,#############################################,,   '####,        
                  ,##################################################,,,,####,       
                ,###########''''           ''''###############################       
              ,#####''   ,,,,##########,,,,          '''####'''          '####       
            ,##' ,,,,###########################,,,                        '##       
           ' ,,###''''                  '''############,,,                           
         ,,##''                                '''############,,,,        ,,,,,,###''
      ,#''                                            '''#######################'''  
     '                                                          ''''####''''         
             ,#######,   #######,   ,#######,      ##                                
            ,#'     '#,  ##    ##  ,#'     '#,    #''#        ######   ,####,        
            ##       ##  ##   ,#'  ##            #'  '#       #        #'  '#        
            ##       ##  #######   ##           ,######,      #####,   #    #        
            '#,     ,#'  ##    ##  '#,     ,#' ,#      #,         ##   #,  ,#        
             '#######'   ##     ##  '#######'  #'      '#     #####' # '####'        



                  #######################################################
                  #                        -***-                        #
                  #          Department of theory and spectroscopy      #
                  #    Directorship and core code : Frank Neese         #
                  #        Max Planck Institute fuer Kohlenforschung    #
                  #                Kaiser Wilhelm Platz 1               #
                  #                 D-45470 Muelheim/Ruhr               #
                  #                      Germany                        #
                  #                                                     #
                  #                  All rights reserved                #
                  #                        -***-                        #
                  #######################################################


                         Program Version 5.0.4 -  RELEASE  -


 With contributions from (in alphabetic order):
   Daniel Aravena         : Magnetic Suceptibility
   Michael Atanasov       : Ab Initio Ligand Field Theory (pilot matlab implementation)
   Alexander A. Auer      : GIAO ZORA, VPT2 properties, NMR spectrum
   Ute Becker             : Parallelization
   Giovanni Bistoni       : ED, misc. LED, open-shell LED, HFLD
   Martin Brehm           : Molecular dynamics
   Dmytro Bykov           : SCF Hessian
   Vijay G. Chilkuri      : MRCI spin determinant printing, contributions to CSF-ICE
   Dipayan Datta          : RHF DLPNO-CCSD density
   Achintya Kumar Dutta   : EOM-CC, STEOM-CC
   Dmitry Ganyushin       : Spin-Orbit,Spin-Spin,Magnetic field MRCI
   Miquel Garcia          : C-PCM and meta-GGA Hessian, CC/C-PCM, Gaussian charge scheme
   Yang Guo               : DLPNO-NEVPT2, F12-NEVPT2, CIM, IAO-localization
   Andreas Hansen         : Spin unrestricted coupled pair/coupled cluster methods
   Benjamin Helmich-Paris : MC-RPA, TRAH-SCF, COSX integrals
   Lee Huntington         : MR-EOM, pCC
   Robert Izsak           : Overlap fitted RIJCOSX, COSX-SCS-MP3, EOM
   Marcus Kettner         : VPT2
   Christian Kollmar      : KDIIS, OOCD, Brueckner-CCSD(T), CCSD density, CASPT2, CASPT2-K
   Simone Kossmann        : Meta GGA functionals, TD-DFT gradient, OOMP2, MP2 Hessian
   Martin Krupicka        : Initial AUTO-CI
   Lucas Lang             : DCDCAS
   Marvin Lechner         : AUTO-CI (C++ implementation), FIC-MRCC
   Dagmar Lenk            : GEPOL surface, SMD
   Dimitrios Liakos       : Extrapolation schemes; Compound Job, initial MDCI parallelization
   Dimitrios Manganas     : Further ROCIS development; embedding schemes
   Dimitrios Pantazis     : SARC Basis sets
   Anastasios Papadopoulos: AUTO-CI, single reference methods and gradients
   Taras Petrenko         : DFT Hessian,TD-DFT gradient, ASA, ECA, R-Raman, ABS, FL, XAS/XES, NRVS
   Peter Pinski           : DLPNO-MP2, DLPNO-MP2 Gradient
   Christoph Reimann      : Effective Core Potentials
   Marius Retegan         : Local ZFS, SOC
   Christoph Riplinger    : Optimizer, TS searches, QM/MM, DLPNO-CCSD(T), (RO)-DLPNO pert. Triples
   Tobias Risthaus        : Range-separated hybrids, TD-DFT gradient, RPA, STAB
   Michael Roemelt        : Original ROCIS implementation
   Masaaki Saitow         : Open-shell DLPNO-CCSD energy and density
   Barbara Sandhoefer     : DKH picture change effects
   Avijit Sen             : IP-ROCIS
   Kantharuban Sivalingam : CASSCF convergence, NEVPT2, FIC-MRCI
   Bernardo de Souza      : ESD, SOC TD-DFT
   Georgi Stoychev        : AutoAux, RI-MP2 NMR, DLPNO-MP2 response
   Willem Van den Heuvel  : Paramagnetic NMR
   Boris Wezisla          : Elementary symmetry handling
   Frank Wennmohs         : Technical directorship


 We gratefully acknowledge several colleagues who have allowed us to
 interface, adapt or use parts of their codes:
   Stefan Grimme, W. Hujo, H. Kruse, P. Pracht,  : VdW corrections, initial TS optimization,
                  C. Bannwarth, S. Ehlert          DFT functionals, gCP, sTDA/sTD-DF
   Ed Valeev, F. Pavosevic, A. Kumar             : LibInt (2-el integral package), F12 methods
   Garnet Chan, S. Sharma, J. Yang, R. Olivares  : DMRG
   Ulf Ekstrom                                   : XCFun DFT Library
   Mihaly Kallay                                 : mrcc  (arbitrary order and MRCC methods)
   Jiri Pittner, Ondrej Demel                    : Mk-CCSD
   Frank Weinhold                                : gennbo (NPA and NBO analysis)
   Christopher J. Cramer and Donald G. Truhlar   : smd solvation model
   Lars Goerigk                                  : TD-DFT with DH, B97 family of functionals
   V. Asgeirsson, H. Jonsson                     : NEB implementation
   FAccTs GmbH                                   : IRC, NEB, NEB-TS, DLPNO-Multilevel, CI-OPT
                                                   MM, QMMM, 2- and 3-layer-ONIOM, Crystal-QMMM,
                                                   LR-CPCM, SF, NACMEs, symmetry and pop. for TD-DFT,
                                                   nearIR, NL-DFT gradient (VV10), updates on ESD,
                                                   ML-optimized integration grids
   S Lehtola, MJT Oliveira, MAL Marques          : LibXC Library
   Liviu Ungur et al                             : ANISO software


 Your calculation uses the libint2 library for the computation of 2-el integrals
 For citations please refer to: http://libint.valeyev.net

 Your ORCA version has been built with support for libXC version: 5.1.0
 For citations please refer to: https://tddft.org/programs/libxc/

 This ORCA versions uses:
   CBLAS   interface :  Fast vector & matrix operations
   LAPACKE interface :  Fast linear algebra routines
   SCALAPACK package :  Parallel linear algebra routines
   Shared memory     :  Shared parallel matrices
   BLAS/LAPACK       :  OpenBLAS 0.3.15  USE64BITINT DYNAMIC_ARCH NO_AFFINITY SkylakeX SINGLE_THREADED
        Core in use  :  SkylakeX
   Copyright (c) 2011-2014, The OpenBLAS Project




***************************************
The coordinates will be read from file: opt_cc-pVDZ.xyz
***************************************


================================================================================

----- Orbital basis set information -----
Your calculation utilizes the basis: cc-pVDZ 
       H, B-Ne : Obtained from the ccRepo (grant-hill.group.shef.ac.uk/ccrepo) Feb. 2017
                 T. H. Dunning, Jr., J. Chem. Phys. 90, 1007 (1989)
            He : Obtained from the ccRepo (grant-hill.group.shef.ac.uk/ccrepo) Feb. 2017
                 D. E. Woon, T. H. Dunning, Jr., J. Chem. Phys. 100, 2975 (1994)
  Li-Be, Na-Mg : Obtained from the ccRepo (grant-hill.group.shef.ac.uk/ccrepo) Feb. 2017
                 B. P. Prascher, D. E. Woon, K. A. Peterson, T. H. Dunning, Jr., A. K. Wilson, Theor. Chem. Acc. 128, 69 (2011)
         Al-Ar : Obtained from the ccRepo (grant-hill.group.shef.ac.uk/ccrepo) Feb. 2017
                 D. E. Woon, T. H. Dunning, Jr., J. Chem. Phys. 98, 1358 (1993)
            Ca : Obtained from the Peterson Research Group Website (tyr0.chem.wsu.edu/~kipeters) Feb. 2017
                 J. Koput, K. A. Peterson, J. Phys. Chem. 106, 9595 (2002)
         Sc-Zn : Obtained from the ccRepo (grant-hill.group.shef.ac.uk/ccrepo) Feb. 2017
                 N. B. Balabanov, K. A. Peterson, J. Chem. Phys. 123, 064107 (2005)
                 N. B. Balabanov, K. A. Peterson, J. Chem. Phys. 125, 074110 (2006)
         Ga-Kr : Obtained from the ccRepo (grant-hill.group.shef.ac.uk/ccrepo) Feb. 2017
                 A. K. Wilson, D. E. Woon, K. A. Peterson, T. H. Dunning, Jr., J. Chem. Phys. 110, 7667 (1999)

----- AuxJ basis set information -----
Your calculation utilizes the AutoAux generation procedure.
  G. L. Stoychev, A. A. Auer, F. Neese, J. Chem. Theory Comput. 13, 554 (2017)

----- AuxC basis set information -----
Your calculation utilizes the AutoAux generation procedure.
  G. L. Stoychev, A. A. Auer, F. Neese, J. Chem. Theory Comput. 13, 554 (2017)

----- AuxJK basis set information -----
Your calculation utilizes the AutoAux generation procedure.
  G. L. Stoychev, A. A. Auer, F. Neese, J. Chem. Theory Comput. 13, 554 (2017)

================================================================================
                                        WARNINGS
                       Please study these warnings very carefully!
================================================================================

WARNING: Old DensityContainer found on disk!
         Will remove this file - 
         If you want to keep old densities, please start your calculation with a different basename. 


WARNING: your system is open-shell and RHF/RKS was chosen
  ===> : WILL SWITCH to UHF/UKS


INFO   : the flag for use of the SHARK integral package has been found!

================================================================================
                                       INPUT FILE
================================================================================
NAME = cc-pVDZ_i.inp
|  1> ! B3LYP cc-pVDZ AUTOAUX
|  2> %pal nprocs 16 end
|  3> *XYZFile 0 2 opt_cc-pVDZ.xyz
|  4> %EPRNMR
|  5>         GTENSOR   TRUE
|  6>         NUCLEI    = ALL H {SHIFT, AISO, ADIP, AORB}
|  7>         ORI       GIAO
|  8> END
|  9> 
| 10>                          ****END OF INPUT****
================================================================================

                       ****************************
                       * Single Point Calculation *
                       ****************************

---------------------------------
CARTESIAN COORDINATES (ANGSTROEM)
---------------------------------
  C     -4.099899    0.082567   -0.018222
  C     -2.815921    0.043418   -0.012229
  C      2.806049   -0.003031   -0.008541
  C     -1.423093    0.006863   -0.011428
  C     -0.707962   -1.246480   -0.013936
  C      0.676236   -1.193941   -0.012699
  C      1.390993    0.033560   -0.009300
  C      0.691892    1.284761   -0.006775
  C     -0.689981    1.235246   -0.007997
  H      1.260463   -2.113783   -0.014437
  H     -1.277924    2.152514   -0.006310
  C     -1.482008   -2.545169   -0.017734
  H     -2.162351   -2.531957   -0.888129
  H     -2.163386   -2.536406    0.851912
  C     -0.663838   -3.838606   -0.020482
  H     -0.000096   -3.863432   -0.904786
  H     -0.001596   -3.868106    0.864805
  C     -1.548663   -5.091379   -0.024540
  H     -2.215661   -5.067542    0.856707
  H     -2.213902   -5.063080   -0.906983
  C     -0.745911   -6.394552   -0.027052
  H     -0.097468   -6.468101    0.863227
  H     -0.095359   -6.463360   -0.916169
  C      1.475014    2.581762   -0.003063
  H      2.150207    2.572768    0.872597
  H      2.151368    2.577042   -0.877865
  C      0.659386    3.877214   -0.000463
  H     -0.002720    3.905301   -0.885088
  H     -0.004360    3.900769    0.883063
  C      1.544472    5.129641    0.003570
  H      2.209340    5.102453    0.886978
  H      2.211255    5.106769   -0.878515
  C      0.741225    6.432647    0.005903
  H      0.090431    6.500190    0.894528
  H      0.092772    6.504832   -0.884068
  C      4.030698   -0.050771   -0.009906
  H     -1.407951   -7.275432   -0.030188
  H      1.402772    7.313924    0.009079
  C      5.453343   -0.107447   -0.009657
  C      6.120738   -1.353300   -0.011991
  C      7.513356   -1.403494   -0.011667
  C      8.262125   -0.220420   -0.009064
  C      7.610872    1.019106   -0.006781
  C      6.218765    1.080757   -0.007089
  H      9.353658   -0.264543   -0.008825
  H      8.193249    1.943256   -0.004756
  H      5.532020   -2.272375   -0.014021
  H      5.705859    2.044207   -0.005329
  H      8.019799   -2.371347   -0.013462

----------------------------
CARTESIAN COORDINATES (A.U.)
----------------------------
  NO LB      ZA    FRAG     MASS         X           Y           Z
   0 C     6.0000    0    12.011   -7.747687    0.156029   -0.034434
   1 C     6.0000    0    12.011   -5.321319    0.082049   -0.023110
   2 C     6.0000    0    12.011    5.302663   -0.005727   -0.016140
   3 C     6.0000    0    12.011   -2.689256    0.012970   -0.021596
   4 C     6.0000    0    12.011   -1.337855   -2.355506   -0.026336
   5 C     6.0000    0    12.011    1.277900   -2.256222   -0.023998
   6 C     6.0000    0    12.011    2.628595    0.063419   -0.017575
   7 C     6.0000    0    12.011    1.307487    2.427846   -0.012803
   8 C     6.0000    0    12.011   -1.303876    2.334277   -0.015112
   9 H     1.0000    0     1.008    2.381930   -3.994471   -0.027282
  10 H     1.0000    0     1.008   -2.414927    4.067661   -0.011925
  11 C     6.0000    0    12.011   -2.800589   -4.809672   -0.033512
  12 H     1.0000    0     1.008   -4.086251   -4.784704   -1.678320
  13 H     1.0000    0     1.008   -4.088206   -4.793113    1.609880
  14 C     6.0000    0    12.011   -1.254471   -7.253915   -0.038706
  15 H     1.0000    0     1.008   -0.000181   -7.300829   -1.709797
  16 H     1.0000    0     1.008   -0.003015   -7.309662    1.634244
  17 C     6.0000    0    12.011   -2.926550   -9.621311   -0.046375
  18 H     1.0000    0     1.008   -4.186992   -9.576267    1.618941
  19 H     1.0000    0     1.008   -4.183668   -9.567835   -1.713950
  20 C     6.0000    0    12.011   -1.409567  -12.083953   -0.051120
  21 H     1.0000    0     1.008   -0.184187  -12.222939    1.631262
  22 H     1.0000    0     1.008   -0.180202  -12.213980   -1.731308
  23 C     6.0000    0    12.011    2.787372    4.878824   -0.005788
  24 H     1.0000    0     1.008    4.063302    4.861827    1.648969
  25 H     1.0000    0     1.008    4.065497    4.869904   -1.658924
  26 C     6.0000    0    12.011    1.246058    7.326873   -0.000875
  27 H     1.0000    0     1.008   -0.005139    7.379950   -1.672574
  28 H     1.0000    0     1.008   -0.008239    7.371386    1.668747
  29 C     6.0000    0    12.011    2.918630    9.693616    0.006746
  30 H     1.0000    0     1.008    4.175047    9.642239    1.676146
  31 H     1.0000    0     1.008    4.178667    9.650395   -1.660153
  32 C     6.0000    0    12.011    1.400713   12.155940    0.011154
  33 H     1.0000    0     1.008    0.170889   12.283580    1.690414
  34 H     1.0000    0     1.008    0.175313   12.292351   -1.670647
  35 C     6.0000    0    12.011    7.616916   -0.095943   -0.018719
  36 H     1.0000    0     1.008   -2.660641  -13.748574   -0.057048
  37 H     1.0000    0     1.008    2.650855   13.821313    0.017157
  38 C     6.0000    0    12.011   10.305324   -0.203046   -0.018248
  39 C     6.0000    0    12.011   11.566519   -2.557367   -0.022660
  40 C     6.0000    0    12.011   14.198185   -2.652219   -0.022047
  41 C     6.0000    0    12.011   15.613153   -0.416534   -0.017128
  42 C     6.0000    0    12.011   14.382463    1.925831   -0.012814
  43 C     6.0000    0    12.011   11.751763    2.042335   -0.013395
  44 H     1.0000    0     1.008   17.675851   -0.499913   -0.016676
  45 H     1.0000    0     1.008   15.482996    3.672222   -0.008988
  46 H     1.0000    0     1.008   10.454002   -4.294166   -0.026495
  47 H     1.0000    0     1.008   10.782511    3.862992   -0.010070
  48 H     1.0000    0     1.008   15.155223   -4.481196   -0.025440

--------------------------------
INTERNAL COORDINATES (ANGSTROEM)
--------------------------------
 C      0   0   0     0.000000000000     0.00000000     0.00000000
 C      1   0   0     1.284589537291     0.00000000     0.00000000
 C      2   1   0     5.622162299512   178.70641065     0.00000000
 C      2   1   3     1.393307256627   179.66241696   326.27136708
 C      4   2   1     1.443013734867   121.21140087   224.09072607
 C      5   4   2     1.385195429912   117.53428882   180.01074752
 C      3   2   1     1.415529113068     1.00789119    10.61773360
 C      7   3   6     1.433266022037   120.67511440   180.00390852
 C      8   7   3     1.382760781613   117.14172580   179.98698370
 H      6   5   4     1.089694016459   120.24737872   179.99663975
 H      9   8   7     1.089522271476   120.60649311   180.00640016
 C      5   4   2     1.511870594453   119.49616960     0.00000000
 H     12   5   4     1.104820669042   107.87734532    55.82244333
 H     12   5   4     1.104824061686   107.87625606   304.15171404
 C     12   5   4     1.530487090937   116.88872677   179.99062897
 H     15  12   5     1.105966602418   109.95204445   301.68123401
 H     15  12   5     1.105969145639   109.95038528    58.34471960
 C     15  12   5     1.533744089952   112.45123859   180.01231867
 H     18  15  12     1.105463579593   109.16943866   302.38814302
 H     18  15  12     1.105462984641   109.16984135    57.63519894
 C     18  15  12     1.530581586448   113.13382859   180.01122393
 H     21  18  15     1.103849431862   111.31548255    59.91665403
 H     21  18  15     1.103848627720   111.31491080   300.10962128
 C      8   7   3     1.515092407316   119.68281764     0.00000000
 H     24   8   7     1.105778982790   108.09458628   303.62844224
 H     24   8   7     1.105782756433   108.09289083    56.37926675
 C     24   8   7     1.530833508393   116.68194217   180.00219562
 H     27  24   8     1.105320719032   109.83425605   301.74190774
 H     27  24   8     1.105319464637   109.83659054    58.22748321
 C     27  24   8     1.533612232757   112.55653118   179.98548293
 H     30  27  24     1.105982740437   109.20610979   302.29395297
 H     30  27  24     1.105981832271   109.20545677    57.68071219
 C     30  27  24     1.530697787710   113.09934704   179.98787975
 H     33  30  27     1.103517828402   111.27252073    59.84433835
 H     33  30  27     1.103517702856   111.27319873   300.12360253
 C      3   2   1     1.225580569369   178.23803968   193.52727128
 H     21  18  15     1.101932365622   111.43986810   180.01361120
 H     33  30  27     1.101954139685   111.45372826   179.98340846
 C     36   3   7     1.423772909721   179.91140694   296.38922661
 C     39  36   3     1.413355091988   120.45898912    56.55350663
 C     40  39  36     1.393522124008   120.24178610   180.00333196
 C     41  40  39     1.400115721249   120.26554605     0.00000000
 C     42  41  40     1.400200661271   119.95268429     0.00000000
 C     43  42  41     1.393470791607   120.25333020     0.00000000
 H     42  41  40     1.092424283792   120.01496603   180.00032655
 H     43  42  41     1.092346226064   120.06429611   180.00048980
 H     40  39  36     1.091462855301   119.18059512     0.00000000
 H     44  43  42     1.091472189586   120.56490596   180.00076723
 H     41  40  39     1.092349175018   119.68555687   179.99867040

---------------------------
INTERNAL COORDINATES (A.U.)
---------------------------
 C      0   0   0     0.000000000000     0.00000000     0.00000000
 C      1   0   0     2.427522419981     0.00000000     0.00000000
 C      2   1   0    10.624347026535   178.70641065     0.00000000
 C      2   1   3     2.632969135430   179.66241696   326.27136708
 C      4   2   1     2.726900766385   121.21140087   224.09072607
 C      5   4   2     2.617640004493   117.53428882   180.01074752
 C      3   2   1     2.674962358292     1.00789119    10.61773360
 C      7   3   6     2.708480258705   120.67511440   180.00390852
 C      8   7   3     2.613039185975   117.14172580   179.98698370
 H      6   5   4     2.059223260881   120.24737872   179.99663975
 H      9   8   7     2.058898709897   120.60649311   180.00640016
 C      5   4   2     2.857021373444   119.49616960     0.00000000
 H     12   5   4     2.087808491586   107.87734532    55.82244333
 H     12   5   4     2.087814902752   107.87625606   304.15171404
 C     12   5   4     2.892201453372   116.88872677   179.99062897
 H     15  12   5     2.089973991833   109.95204445   301.68123401
 H     15  12   5     2.089978797825   109.95038528    58.34471960
 C     15  12   5     2.898356289530   112.45123859   180.01231867
 H     18  15  12     2.089023416454   109.16943866   302.38814302
 H     18  15  12     2.089022292158   109.16984135    57.63519894
 C     18  15  12     2.892380024010   113.13382859   180.01122393
 H     21  18  15     2.085973119305   111.31548255    59.91665403
 H     21  18  15     2.085971599695   111.31491080   300.10962128
 C      8   7   3     2.863109717410   119.68281764     0.00000000
 H     24   8   7     2.089619442119   108.09458628   303.62844224
 H     24   8   7     2.089626573271   108.09289083    56.37926675
 C     24   8   7     2.892856087492   116.68194217   180.00219562
 H     27  24   8     2.088753449120   109.83425605   301.74190774
 H     27  24   8     2.088751078656   109.83659054    58.22748321
 C     27  24   8     2.898107115543   112.55653118   179.98548293
 H     30  27  24     2.090004488269   109.20610979   302.29395297
 H     30  27  24     2.090002772085   109.20545677    57.68071219
 C     30  27  24     2.892599612570   113.09934704   179.98787975
 H     33  30  27     2.085346479579   111.27252073    59.84433835
 H     33  30  27     2.085346242332   111.27319873   300.12360253
 C      3   2   1     2.316011631163   178.23803968   193.52727128
 H     21  18  15     2.082350389129   111.43986810   180.01361120
 H     33  30  27     2.082391536146   111.45372826   179.98340846
 C     36   3   7     2.690540876269   179.91140694   296.38922661
 C     39  36   3     2.670854053840   120.45898912    56.55350663
 C     40  39  36     2.633375175935   120.24178610   180.00333196
 C     41  40  39     2.645835268959   120.26554605     0.00000000
 C     42  41  40     2.645995782338   119.95268429     0.00000000
 C     43  42  41     2.633278171756   120.25333020     0.00000000
 H     42  41  40     2.064382718411   120.01496603   180.00032655
 H     43  42  41     2.064235210683   120.06429611   180.00048980
 H     40  39  36     2.062565881867   119.18059512     0.00000000
 H     44  43  42     2.062583521109   120.56490596   180.00076723
 H     41  40  39     2.064240783399   119.68555687   179.99867040

---------------------
BASIS SET INFORMATION
---------------------
There are 2 groups of distinct atoms

 Group   1 Type C   : 17s4p1d contracted to 3s2p1d pattern {881/31/1}
 Group   2 Type H   : 4s1p contracted to 2s1p pattern {31/1}

Atom   0C    basis set group =>   1
Atom   1C    basis set group =>   1
Atom   2C    basis set group =>   1
Atom   3C    basis set group =>   1
Atom   4C    basis set group =>   1
Atom   5C    basis set group =>   1
Atom   6C    basis set group =>   1
Atom   7C    basis set group =>   1
Atom   8C    basis set group =>   1
Atom   9H    basis set group =>   2
Atom  10H    basis set group =>   2
Atom  11C    basis set group =>   1
Atom  12H    basis set group =>   2
Atom  13H    basis set group =>   2
Atom  14C    basis set group =>   1
Atom  15H    basis set group =>   2
Atom  16H    basis set group =>   2
Atom  17C    basis set group =>   1
Atom  18H    basis set group =>   2
Atom  19H    basis set group =>   2
Atom  20C    basis set group =>   1
Atom  21H    basis set group =>   2
Atom  22H    basis set group =>   2
Atom  23C    basis set group =>   1
Atom  24H    basis set group =>   2
Atom  25H    basis set group =>   2
Atom  26C    basis set group =>   1
Atom  27H    basis set group =>   2
Atom  28H    basis set group =>   2
Atom  29C    basis set group =>   1
Atom  30H    basis set group =>   2
Atom  31H    basis set group =>   2
Atom  32C    basis set group =>   1
Atom  33H    basis set group =>   2
Atom  34H    basis set group =>   2
Atom  35C    basis set group =>   1
Atom  36H    basis set group =>   2
Atom  37H    basis set group =>   2
Atom  38C    basis set group =>   1
Atom  39C    basis set group =>   1
Atom  40C    basis set group =>   1
Atom  41C    basis set group =>   1
Atom  42C    basis set group =>   1
Atom  43C    basis set group =>   1
Atom  44H    basis set group =>   2
Atom  45H    basis set group =>   2
Atom  46H    basis set group =>   2
Atom  47H    basis set group =>   2
Atom  48H    basis set group =>   2
---------------------------------
AUXILIARY/J BASIS SET INFORMATION
---------------------------------
There are 2 groups of distinct atoms

 Group   1 Type C   : 14s11p10d2f contracted to 14s11p10d2f pattern {11111111111111/11111111111/1111111111/11}
 Group   2 Type H   : 9s2p1d contracted to 9s2p1d pattern {111111111/11/1}

Atom   0C    basis set group =>   1
Atom   1C    basis set group =>   1
Atom   2C    basis set group =>   1
Atom   3C    basis set group =>   1
Atom   4C    basis set group =>   1
Atom   5C    basis set group =>   1
Atom   6C    basis set group =>   1
Atom   7C    basis set group =>   1
Atom   8C    basis set group =>   1
Atom   9H    basis set group =>   2
Atom  10H    basis set group =>   2
Atom  11C    basis set group =>   1
Atom  12H    basis set group =>   2
Atom  13H    basis set group =>   2
Atom  14C    basis set group =>   1
Atom  15H    basis set group =>   2
Atom  16H    basis set group =>   2
Atom  17C    basis set group =>   1
Atom  18H    basis set group =>   2
Atom  19H    basis set group =>   2
Atom  20C    basis set group =>   1
Atom  21H    basis set group =>   2
Atom  22H    basis set group =>   2
Atom  23C    basis set group =>   1
Atom  24H    basis set group =>   2
Atom  25H    basis set group =>   2
Atom  26C    basis set group =>   1
Atom  27H    basis set group =>   2
Atom  28H    basis set group =>   2
Atom  29C    basis set group =>   1
Atom  30H    basis set group =>   2
Atom  31H    basis set group =>   2
Atom  32C    basis set group =>   1
Atom  33H    basis set group =>   2
Atom  34H    basis set group =>   2
Atom  35C    basis set group =>   1
Atom  36H    basis set group =>   2
Atom  37H    basis set group =>   2
Atom  38C    basis set group =>   1
Atom  39C    basis set group =>   1
Atom  40C    basis set group =>   1
Atom  41C    basis set group =>   1
Atom  42C    basis set group =>   1
Atom  43C    basis set group =>   1
Atom  44H    basis set group =>   2
Atom  45H    basis set group =>   2
Atom  46H    basis set group =>   2
Atom  47H    basis set group =>   2
Atom  48H    basis set group =>   2
---------------------------------
AUXILIARY/C BASIS SET INFORMATION
---------------------------------
There are 2 groups of distinct atoms

 Group   1 Type C   : 14s11p10d2f contracted to 14s11p10d2f pattern {11111111111111/11111111111/1111111111/11}
 Group   2 Type H   : 9s2p1d contracted to 9s2p1d pattern {111111111/11/1}

Atom   0C    basis set group =>   1
Atom   1C    basis set group =>   1
Atom   2C    basis set group =>   1
Atom   3C    basis set group =>   1
Atom   4C    basis set group =>   1
Atom   5C    basis set group =>   1
Atom   6C    basis set group =>   1
Atom   7C    basis set group =>   1
Atom   8C    basis set group =>   1
Atom   9H    basis set group =>   2
Atom  10H    basis set group =>   2
Atom  11C    basis set group =>   1
Atom  12H    basis set group =>   2
Atom  13H    basis set group =>   2
Atom  14C    basis set group =>   1
Atom  15H    basis set group =>   2
Atom  16H    basis set group =>   2
Atom  17C    basis set group =>   1
Atom  18H    basis set group =>   2
Atom  19H    basis set group =>   2
Atom  20C    basis set group =>   1
Atom  21H    basis set group =>   2
Atom  22H    basis set group =>   2
Atom  23C    basis set group =>   1
Atom  24H    basis set group =>   2
Atom  25H    basis set group =>   2
Atom  26C    basis set group =>   1
Atom  27H    basis set group =>   2
Atom  28H    basis set group =>   2
Atom  29C    basis set group =>   1
Atom  30H    basis set group =>   2
Atom  31H    basis set group =>   2
Atom  32C    basis set group =>   1
Atom  33H    basis set group =>   2
Atom  34H    basis set group =>   2
Atom  35C    basis set group =>   1
Atom  36H    basis set group =>   2
Atom  37H    basis set group =>   2
Atom  38C    basis set group =>   1
Atom  39C    basis set group =>   1
Atom  40C    basis set group =>   1
Atom  41C    basis set group =>   1
Atom  42C    basis set group =>   1
Atom  43C    basis set group =>   1
Atom  44H    basis set group =>   2
Atom  45H    basis set group =>   2
Atom  46H    basis set group =>   2
Atom  47H    basis set group =>   2
Atom  48H    basis set group =>   2
----------------------------------
AUXILIARY/JK BASIS SET INFORMATION
----------------------------------
There are 2 groups of distinct atoms

 Group   1 Type C   : 14s11p10d2f contracted to 14s11p10d2f pattern {11111111111111/11111111111/1111111111/11}
 Group   2 Type H   : 9s2p1d contracted to 9s2p1d pattern {111111111/11/1}

Atom   0C    basis set group =>   1
Atom   1C    basis set group =>   1
Atom   2C    basis set group =>   1
Atom   3C    basis set group =>   1
Atom   4C    basis set group =>   1
Atom   5C    basis set group =>   1
Atom   6C    basis set group =>   1
Atom   7C    basis set group =>   1
Atom   8C    basis set group =>   1
Atom   9H    basis set group =>   2
Atom  10H    basis set group =>   2
Atom  11C    basis set group =>   1
Atom  12H    basis set group =>   2
Atom  13H    basis set group =>   2
Atom  14C    basis set group =>   1
Atom  15H    basis set group =>   2
Atom  16H    basis set group =>   2
Atom  17C    basis set group =>   1
Atom  18H    basis set group =>   2
Atom  19H    basis set group =>   2
Atom  20C    basis set group =>   1
Atom  21H    basis set group =>   2
Atom  22H    basis set group =>   2
Atom  23C    basis set group =>   1
Atom  24H    basis set group =>   2
Atom  25H    basis set group =>   2
Atom  26C    basis set group =>   1
Atom  27H    basis set group =>   2
Atom  28H    basis set group =>   2
Atom  29C    basis set group =>   1
Atom  30H    basis set group =>   2
Atom  31H    basis set group =>   2
Atom  32C    basis set group =>   1
Atom  33H    basis set group =>   2
Atom  34H    basis set group =>   2
Atom  35C    basis set group =>   1
Atom  36H    basis set group =>   2
Atom  37H    basis set group =>   2
Atom  38C    basis set group =>   1
Atom  39C    basis set group =>   1
Atom  40C    basis set group =>   1
Atom  41C    basis set group =>   1
Atom  42C    basis set group =>   1
Atom  43C    basis set group =>   1
Atom  44H    basis set group =>   2
Atom  45H    basis set group =>   2
Atom  46H    basis set group =>   2
Atom  47H    basis set group =>   2
Atom  48H    basis set group =>   2

Checking for AutoStart:
The File: cc-pVDZ_i.gbw exists
Trying to determine its content:
     ... Fine, the file contains calculation information
     ... Fine, the calculation information was read
     ... Fine, the file contains a basis set
     ... Fine, the basis set was read
     ... Fine, the file contains a geometry
     ... Fine, the geometry was read
     ... Fine, the file contains a set of orbitals
     ... Fine, the orbitals can be read
     => possible old guess file was deleted
     => GBW file was renamed to GES file
     => GES file is set as startup file
     => Guess is set to MORead
     ... now leaving AutoStart



           ************************************************************
           *        Program running with 16 parallel MPI-processes    *
           *              working on a common directory               *
           ************************************************************
------------------------------------------------------------------------------
                           ORCA GTO INTEGRAL CALCULATION
                           -- RI-GTO INTEGRALS CHOSEN --
------------------------------------------------------------------------------
------------------------------------------------------------------------------
                   ___                                                        
                  /   \      - P O W E R E D   B Y -                         
                 /     \                                                     
                 |  |  |   _    _      __       _____    __    __             
                 |  |  |  | |  | |    /  \     |  _  \  |  |  /  |          
                  \  \/   | |  | |   /    \    | | | |  |  | /  /          
                 / \  \   | |__| |  /  /\  \   | |_| |  |  |/  /          
                |  |  |   |  __  | /  /__\  \  |    /   |      \           
                |  |  |   | |  | | |   __   |  |    \   |  |\   \          
                \     /   | |  | | |  |  |  |  | |\  \  |  | \   \       
                 \___/    |_|  |_| |__|  |__|  |_| \__\ |__|  \__/        
                                                                              
                      - O R C A' S   B I G   F R I E N D -                    
                                      &                                       
                       - I N T E G R A L  F E E D E R -                       
                                                                              
 v1 FN, 2020, v2 2021                                                         
------------------------------------------------------------------------------


Reading SHARK input file cc-pVDZ_i.SHARKINP.tmp ... ok
----------------------
SHARK INTEGRAL PACKAGE
----------------------

Number of atoms                             ...     49
Number of basis functions                   ...    605
Number of shells                            ...    363
Maximum angular momentum                    ...      2
Integral batch strategy                     ... SHARK/LIBINT Hybrid
RI-J (if used) integral strategy            ... SPLIT-RIJ (Revised 2003 algorithm where possible)
Printlevel                                  ...      1
Contraction scheme used                     ... PARTIAL GENERAL contraction
Coulomb Range Separation                    ... NOT USED
Exchange Range Separation                   ... NOT USED
Finite Nucleus Model                        ... NOT USED
Auxiliary Coulomb fitting basis             ... AVAILABLE
   # of basis functions in Aux-J            ...   3164
   # of shells in Aux-J                     ...   1188
   Maximum angular momentum in Aux-J        ...      3
Auxiliary J/K fitting basis                 ... AVAILABLE
   # of basis functions in Aux-JK           ...   3164
   # of shells in Aux-JK                    ...   1188
   Maximum angular momentum in Aux-JK       ...      3
Auxiliary Correlation fitting basis         ... AVAILABLE
   # of basis functions in Aux-C            ...   3164
   # of shells in Aux-C                     ...   1188
   Maximum angular momentum in Aux-C        ...      3
Auxiliary 'external' fitting basis          ... NOT available
Integral threshold                          ...     1.000000e-10
Primitive cut-off                           ...     1.000000e-11
Primitive pair pre-selection threshold      ...     1.000000e-11

Calculating pre-screening integrals         ... done (  0.0 sec) Dimension = 363
Calculating pre-screening integrals (ORCA)  ... done (  0.1 sec) Dimension = 219
Organizing shell pair data                  ... done (  0.2 sec)
Shell pair information
Total number of shell pairs                 ...     66066
Shell pairs after pre-screening             ...     25650
Total number of primitive shell pairs       ...    106638
Primitive shell pairs kept                  ...     34614
          la=0 lb=0:  11100 shell pairs
          la=1 lb=0:   9073 shell pairs
          la=1 lb=1:   1618 shell pairs
          la=2 lb=0:   2711 shell pairs
          la=2 lb=1:    986 shell pairs
          la=2 lb=2:    162 shell pairs

Calculating one electron integrals          ... done (  0.0 sec)
Calculating RI/J V-Matrix + Cholesky decomp.... done (  0.6 sec)
Calculating RI/JK V-Matrix + Cholesky decomp... done (  0.6 sec)
Calculating RI/C V-Matrix + Cholesky decomp.... done (  0.6 sec)
Calculating Nuclear repulsion               ... done (  0.0 sec) ENN=   1728.309592196967 Eh

SHARK setup successfully completed in   2.4 seconds

Maximum memory used throughout the entire GTOINT-calculation: 41.7 MB


           ************************************************************
           *        Program running with 16 parallel MPI-processes    *
           *              working on a common directory               *
           ************************************************************
-------------------------------------------------------------------------------
                                 ORCA SCF
-------------------------------------------------------------------------------

------------
SCF SETTINGS
------------
Hamiltonian:
 Density Functional     Method          .... DFT(GTOs)
 Exchange Functional    Exchange        .... B88
   X-Alpha parameter    XAlpha          ....  0.666667
   Becke's b parameter  XBeta           ....  0.004200
 Correlation Functional Correlation     .... LYP
 LDA part of GGA corr.  LDAOpt          .... VWN-5
 Gradients option       PostSCFGGA      .... off
 Hybrid DFT is turned on
   Fraction HF Exchange ScalHFX         ....  0.200000
   Scaling of DF-GGA-X  ScalDFX         ....  0.720000
   Scaling of DF-GGA-C  ScalDFC         ....  0.810000
   Scaling of DF-LDA-C  ScalLDAC        ....  1.000000
   Perturbative correction              ....  0.000000
   Density functional embedding theory  .... OFF
   NL short-range parameter             ....  4.800000
 RI-approximation to the Coulomb term is turned on
   Number of AuxJ basis functions       .... 3164
   RIJ-COSX (HFX calculated with COS-X)).... on


General Settings:
 Integral files         IntName         .... cc-pVDZ_i
 Hartree-Fock type      HFTyp           .... UHF
 Total Charge           Charge          ....    0
 Multiplicity           Mult            ....    2
 Number of Electrons    NEL             ....  169
 Basis Dimension        Dim             ....  461
 Nuclear Repulsion      ENuc            ....   1728.3095921970 Eh

Convergence Acceleration:
 DIIS                   CNVDIIS         .... on
   Start iteration      DIISMaxIt       ....    12
   Startup error        DIISStart       ....  0.200000
   # of expansion vecs  DIISMaxEq       ....     5
   Bias factor          DIISBfac        ....   1.050
   Max. coefficient     DIISMaxC        ....  10.000
 Trust-Rad. Augm. Hess. CNVTRAH         .... auto
   Auto Start mean grad. ratio tolernc. ....  1.125000
   Auto Start start iteration           ....     1
   Auto Start num. interpolation iter.  ....    10
   Max. Number of Micro iterations      ....    16
   Max. Number of Macro iterations      .... Maxiter - #DIIS iter
   Number of Davidson start vectors     ....     2
   Converg. threshold I  (grad. norm)   ....   5.000e-05
   Converg. threshold II (energy diff.) ....   1.000e-06
   Grad. Scal. Fac. for Micro threshold ....   0.100
   Minimum threshold for Micro iter.    ....   0.010
   NR start threshold (gradient norm)   ....   0.001
   Initial trust radius                 ....   0.400
   Minimum AH scaling param. (alpha)    ....   1.000
   Maximum AH scaling param. (alpha)    .... 1000.000
   Orbital update algorithm             .... Taylor
   White noise on init. David. guess    .... on
   Maximum white noise                  ....   0.010
   Quad. conv. algorithm                .... NR
 SOSCF                  CNVSOSCF        .... off
 Level Shifting         CNVShift        .... on
   Level shift para.    LevelShift      ....    0.2500
   Turn off err/grad.   ShiftErr        ....    0.0010
 Zerner damping         CNVZerner       .... off
 Static damping         CNVDamp         .... on
   Fraction old density DampFac         ....    0.7000
   Max. Damping (<1)    DampMax         ....    0.9800
   Min. Damping (>=0)   DampMin         ....    0.0000
   Turn off err/grad.   DampErr         ....    0.1000
 Fernandez-Rico         CNVRico         .... off

SCF Procedure:
 Maximum # iterations   MaxIter         ....   125
 SCF integral mode      SCFMode         .... Direct
   Integral package                     .... SHARK and LIBINT hybrid scheme
 Reset frequency        DirectResetFreq ....    20
 Integral Threshold     Thresh          ....  1.000e-10 Eh
 Primitive CutOff       TCut            ....  1.000e-11 Eh

Convergence Tolerance:
 Convergence Check Mode ConvCheckMode   .... Total+1el-Energy
 Convergence forced     ConvForced      .... 0
 Energy Change          TolE            ....  1.000e-06 Eh
 1-El. energy change                    ....  1.000e-03 Eh
 DIIS Error             TolErr          ....  1.000e-06


Diagonalization of the overlap matrix:
Smallest eigenvalue                        ... 5.177e-05
Time for diagonalization                   ...    0.053 sec
Threshold for overlap eigenvalues          ... 1.000e-08
Number of eigenvalues below threshold      ... 0
Time for construction of square roots      ...    0.044 sec
Total time needed                          ...    0.099 sec

---------------------
INITIAL GUESS: MOREAD
---------------------
Guess MOs are being read from file: cc-pVDZ_i.ges
Input geometry compatible with but different from current geometry
Input basis set matches current basis set (good)
MOs were renormalized
MOs were reorthogonalized (Cholesky)
                      ------------------
                      INITIAL GUESS DONE (   0.2 sec)
                      ------------------
-------------------
DFT GRID GENERATION
-------------------

General Integration Accuracy     IntAcc      ... 4.388
Radial Grid Type                 RadialGrid  ... OptM3 with GC (2021)
Angular Grid (max. ang.)         AngularGrid ... 4 (Lebedev-302)
Angular grid pruning method      GridPruning ... 4 (adaptive)
Weight generation scheme         WeightScheme... Becke
Basis function cutoff            BFCut       ... 1.0000e-10
Integration weight cutoff        WCut        ... 1.0000e-14
Angular grids for H and He will be reduced by one unit
Partially contracted basis set               ... off
Rotationally invariant grid construction     ... off

Total number of grid points                  ...   222998
Total number of batches                      ...     3510
Average number of points per batch           ...       63
Average number of grid points per atom       ...     4551
Time for grid setup =    1.501 sec

--------------------
COSX GRID GENERATION
--------------------

GRIDX 1
-------
General Integration Accuracy     IntAcc      ... 3.816
Radial Grid Type                 RadialGrid  ... OptM3 with GC (2021)
Angular Grid (max. ang.)         AngularGrid ... 1 (Lebedev-50)
Angular grid pruning method      GridPruning ... 4 (adaptive)
Weight generation scheme         WeightScheme... Becke
Basis function cutoff            BFCut       ... 1.0000e-10
Integration weight cutoff        WCut        ... 1.0000e-14
Angular grids for H and He will be reduced by one unit
Partially contracted basis set               ... on
Rotationally invariant grid construction     ... off

Total number of grid points                  ...    28398
Total number of batches                      ...      471
Average number of points per batch           ...       60
Average number of grid points per atom       ...      580
UseSFitting                                  ... on

GRIDX 2
-------
General Integration Accuracy     IntAcc      ... 4.020
Radial Grid Type                 RadialGrid  ... OptM3 with GC (2021)
Angular Grid (max. ang.)         AngularGrid ... 2 (Lebedev-110)
Angular grid pruning method      GridPruning ... 4 (adaptive)
Weight generation scheme         WeightScheme... Becke
Basis function cutoff            BFCut       ... 1.0000e-10
Integration weight cutoff        WCut        ... 1.0000e-14
Angular grids for H and He will be reduced by one unit
Partially contracted basis set               ... on
Rotationally invariant grid construction     ... off

Total number of grid points                  ...    60558
Total number of batches                      ...      970
Average number of points per batch           ...       62
Average number of grid points per atom       ...     1236
UseSFitting                                  ... on

GRIDX 3
-------
General Integration Accuracy     IntAcc      ... 4.338
Radial Grid Type                 RadialGrid  ... OptM3 with GC (2021)
Angular Grid (max. ang.)         AngularGrid ... 3 (Lebedev-194)
Angular grid pruning method      GridPruning ... 4 (adaptive)
Weight generation scheme         WeightScheme... Becke
Basis function cutoff            BFCut       ... 1.0000e-10
Integration weight cutoff        WCut        ... 1.0000e-14
Angular grids for H and He will be reduced by one unit
Partially contracted basis set               ... on
Rotationally invariant grid construction     ... off

Total number of grid points                  ...   132523
Total number of batches                      ...     2094
Average number of points per batch           ...       63
Average number of grid points per atom       ...     2705
UseSFitting                                  ... on

Time for X-Grid setup             =    2.474 sec

 re-compute Schwartz prescreening matrix in partically contracted basis (1) ...done (   0.120 sec)
--------------
SCF ITERATIONS
--------------
ITER       Energy         Delta-E        Max-DP      RMS-DP      [F,P]     Damp
               ***  Starting incremental Fock matrix formation  ***
  0   -928.8441666055   0.000000000000 0.00007417  0.00000115  0.0002618 0.7000
                 **** Energy Check signals convergence ****

               *****************************************************
               *                     SUCCESS                       *
               *           SCF CONVERGED AFTER   1 CYCLES          *
               *****************************************************

Old exchange energy                            =    -26.626330425 Eh
New exchange energy                            =    -26.626433976 Eh
Exchange energy change after final integration =     -0.000103551 Eh
Total energy after final integration           =   -928.844270819 Eh
Final COS-X integration done in                =     7.665 sec

----------------
TOTAL SCF ENERGY
----------------

Total Energy       :         -928.84427082 Eh          -25275.13757 eV

Components:
Nuclear Repulsion  :         1728.30959220 Eh           47029.69495 eV
Electronic Energy  :        -2657.15386302 Eh          -72304.83252 eV
One Electron Energy:        -4683.85945297 Eh         -127454.29537 eV
Two Electron Energy:         2026.70558996 Eh           55149.46285 eV
Max COSX asymmetry :            0.00000064 Eh               0.00002 eV

Virial components:
Potential Energy   :        -1851.30004500 Eh          -50376.43531 eV
Kinetic Energy     :          922.45577418 Eh           25101.29774 eV
Virial Ratio       :            2.00692553


DFT components:
N(Alpha)           :       85.000198260402 electrons
N(Beta)            :       84.000199796041 electrons
N(Total)           :      169.000398056444 electrons
E(X)               :     -105.615631242439 Eh       
E(C)               :       -6.571924444778 Eh       
E(XC)              :     -112.187555687217 Eh       
DFET-embed. en.    :        0.000000000000 Eh       

---------------
SCF CONVERGENCE
---------------

  Last Energy change         ...   -6.6241e-07  Tolerance :   1.0000e-06
  Last MAX-Density change    ...    2.5076e-05  Tolerance :   1.0000e-05
  Last RMS-Density change    ...    3.6422e-07  Tolerance :   1.0000e-06
  Last DIIS Error            ...    1.8543e-04  Tolerance :   1.0000e-06

             **** THE GBW FILE WAS UPDATED (cc-pVDZ_i.gbw) ****
             **** DENSITY cc-pVDZ_i.scfp WAS UPDATED ****
             **** ENERGY FILE WAS UPDATED (cc-pVDZ_i.en.tmp) ****
----------------------
UHF SPIN CONTAMINATION
----------------------

Warning: in a DFT calculation there is little theoretical justification to 
         calculate <S**2> as in Hartree-Fock theory. We will do it anyways
         but you should keep in mind that the values have only limited relevance

Expectation value of <S**2>     :     0.773573
Ideal value S*(S+1) for S=0.5   :     0.750000
Deviation                       :     0.023573

             **** THE GBW FILE WAS UPDATED (cc-pVDZ_i.gbw) ****
             **** DENSITY cc-pVDZ_i.scfp WAS UPDATED ****
----------------
ORBITAL ENERGIES
----------------
                 SPIN UP ORBITALS
  NO   OCC          E(Eh)            E(eV) 
   0   1.0000     -10.243934      -278.7516 
   1   1.0000     -10.235796      -278.5302 
   2   1.0000     -10.229534      -278.3598 
   3   1.0000     -10.222971      -278.1812 
   4   1.0000     -10.219880      -278.0971 
   5   1.0000     -10.219437      -278.0850 
   6   1.0000     -10.217110      -278.0217 
   7   1.0000     -10.216976      -278.0181 
   8   1.0000     -10.215135      -277.9679 
   9   1.0000     -10.212613      -277.8993 
  10   1.0000     -10.212518      -277.8968 
  11   1.0000     -10.212499      -277.8962 
  12   1.0000     -10.210898      -277.8527 
  13   1.0000     -10.209956      -277.8270 
  14   1.0000     -10.201265      -277.5905 
  15   1.0000     -10.192753      -277.3589 
  16   1.0000     -10.191173      -277.3159 
  17   1.0000     -10.189627      -277.2739 
  18   1.0000     -10.187882      -277.2264 
  19   1.0000     -10.184337      -277.1299 
  20   1.0000     -10.180762      -277.0326 
  21   1.0000     -10.178323      -276.9662 
  22   1.0000     -10.170915      -276.7647 
  23   1.0000     -10.168828      -276.7079 
  24   1.0000      -0.892949       -24.2984 
  25   1.0000      -0.882817       -24.0227 
  26   1.0000      -0.833103       -22.6699 
  27   1.0000      -0.814697       -22.1690 
  28   1.0000      -0.802337       -21.8327 
  29   1.0000      -0.796079       -21.6624 
  30   1.0000      -0.777315       -21.1518 
  31   1.0000      -0.769779       -20.9468 
  32   1.0000      -0.753148       -20.4942 
  33   1.0000      -0.738887       -20.1062 
  34   1.0000      -0.717976       -19.5371 
  35   1.0000      -0.706750       -19.2316 
  36   1.0000      -0.663028       -18.0419 
  37   1.0000      -0.657165       -17.8824 
  38   1.0000      -0.632564       -17.2129 
  39   1.0000      -0.629902       -17.1405 
  40   1.0000      -0.627393       -17.0722 
  41   1.0000      -0.601781       -16.3753 
  42   1.0000      -0.585977       -15.9452 
  43   1.0000      -0.572868       -15.5885 
  44   1.0000      -0.557509       -15.1706 
  45   1.0000      -0.524887       -14.2829 
  46   1.0000      -0.522232       -14.2107 
  47   1.0000      -0.498034       -13.5522 
  48   1.0000      -0.492791       -13.4095 
  49   1.0000      -0.480674       -13.0798 
  50   1.0000      -0.476559       -12.9678 
  51   1.0000      -0.475439       -12.9373 
  52   1.0000      -0.453697       -12.3457 
  53   1.0000      -0.445468       -12.1218 
  54   1.0000      -0.442484       -12.0406 
  55   1.0000      -0.435296       -11.8450 
  56   1.0000      -0.434852       -11.8329 
  57   1.0000      -0.429957       -11.6997 
  58   1.0000      -0.423919       -11.5354 
  59   1.0000      -0.418347       -11.3838 
  60   1.0000      -0.409786       -11.1508 
  61   1.0000      -0.403751       -10.9866 
  62   1.0000      -0.391171       -10.6443 
  63   1.0000      -0.382277       -10.4023 
  64   1.0000      -0.378805       -10.3078 
  65   1.0000      -0.374312       -10.1856 
  66   1.0000      -0.369221       -10.0470 
  67   1.0000      -0.367076        -9.9887 
  68   1.0000      -0.366837        -9.9821 
  69   1.0000      -0.353909        -9.6304 
  70   1.0000      -0.344083        -9.3630 
  71   1.0000      -0.341275        -9.2866 
  72   1.0000      -0.336160        -9.1474 
  73   1.0000      -0.332602        -9.0506 
  74   1.0000      -0.330804        -9.0016 
  75   1.0000      -0.330209        -8.9854 
  76   1.0000      -0.326465        -8.8836 
  77   1.0000      -0.310978        -8.4621 
  78   1.0000      -0.291546        -7.9334 
  79   1.0000      -0.277535        -7.5521 
  80   1.0000      -0.265888        -7.2352 
  81   1.0000      -0.262473        -7.1422 
  82   1.0000      -0.243643        -6.6299 
  83   1.0000      -0.242727        -6.6049 
  84   1.0000      -0.218478        -5.9451 
  85   0.0000      -0.080215        -2.1828 
  86   0.0000      -0.028677        -0.7803 
  87   0.0000      -0.028606        -0.7784 
  88   0.0000      -0.019184        -0.5220 
  89   0.0000       0.023079         0.6280 
  90   0.0000       0.039891         1.0855 
  91   0.0000       0.050849         1.3837 
  92   0.0000       0.054588         1.4854 
  93   0.0000       0.057293         1.5590 
  94   0.0000       0.067539         1.8378 
  95   0.0000       0.069780         1.8988 
  96   0.0000       0.076112         2.0711 
  97   0.0000       0.086288         2.3480 
  98   0.0000       0.087507         2.3812 
  99   0.0000       0.088223         2.4007 
 100   0.0000       0.090886         2.4731 
 101   0.0000       0.091375         2.4864 
 102   0.0000       0.101791         2.7699 
 103   0.0000       0.104973         2.8565 
 104   0.0000       0.118833         3.2336 
 105   0.0000       0.122640         3.3372 
 106   0.0000       0.127250         3.4626 
 107   0.0000       0.132401         3.6028 
 108   0.0000       0.141976         3.8634 
 109   0.0000       0.144233         3.9248 
 110   0.0000       0.145311         3.9541 
 111   0.0000       0.145397         3.9564 
 112   0.0000       0.152065         4.1379 
 113   0.0000       0.153037         4.1643 
 114   0.0000       0.156710         4.2643 
 115   0.0000       0.159408         4.3377 
 116   0.0000       0.166526         4.5314 
 117   0.0000       0.168783         4.5928 
 118   0.0000       0.178735         4.8636 
 119   0.0000       0.189759         5.1636 
 120   0.0000       0.191302         5.2056 
 121   0.0000       0.198569         5.4033 
 122   0.0000       0.205134         5.5820 
 123   0.0000       0.209744         5.7074 
 124   0.0000       0.212904         5.7934 
 125   0.0000       0.230636         6.2759 
 126   0.0000       0.235090         6.3971 
 127   0.0000       0.253174         6.8892 
 128   0.0000       0.260054         7.0764 
 129   0.0000       0.262690         7.1482 
 130   0.0000       0.268577         7.3084 
 131   0.0000       0.276358         7.5201 
 132   0.0000       0.288769         7.8578 
 133   0.0000       0.295958         8.0534 
 134   0.0000       0.311049         8.4641 
 135   0.0000       0.324448         8.8287 
 136   0.0000       0.347037         9.4433 
 137   0.0000       0.352238         9.5849 
 138   0.0000       0.359648         9.7865 
 139   0.0000       0.364856         9.9282 
 140   0.0000       0.386862        10.5270 
 141   0.0000       0.394967        10.7476 
 142   0.0000       0.403370        10.9762 
 143   0.0000       0.403420        10.9776 
 144   0.0000       0.406543        11.0626 
 145   0.0000       0.410376        11.1669 
 146   0.0000       0.414147        11.2695 
 147   0.0000       0.417466        11.3598 
 148   0.0000       0.421140        11.4598 
 149   0.0000       0.431946        11.7539 
 150   0.0000       0.432219        11.7613 
 151   0.0000       0.438428        11.9302 
 152   0.0000       0.450325        12.2540 
 153   0.0000       0.451188        12.2775 
 154   0.0000       0.456850        12.4315 
 155   0.0000       0.465427        12.6649 
 156   0.0000       0.466492        12.6939 
 157   0.0000       0.466861        12.7039 
 158   0.0000       0.477359        12.9896 
 159   0.0000       0.485444        13.2096 
 160   0.0000       0.487347        13.2614 
 161   0.0000       0.491568        13.3762 
 162   0.0000       0.491927        13.3860 
 163   0.0000       0.493487        13.4285 
 164   0.0000       0.497587        13.5400 
 165   0.0000       0.500634        13.6229 
 166   0.0000       0.503897        13.7117 
 167   0.0000       0.504700        13.7336 
 168   0.0000       0.508985        13.8502 
 169   0.0000       0.519370        14.1328 
 170   0.0000       0.527239        14.3469 
 171   0.0000       0.538050        14.6411 
 172   0.0000       0.538107        14.6426 
 173   0.0000       0.562852        15.3160 
 174   0.0000       0.565050        15.3758 
 175   0.0000       0.566966        15.4279 
 176   0.0000       0.568701        15.4751 
 177   0.0000       0.579255        15.7623 
 178   0.0000       0.580306        15.7909 
 179   0.0000       0.585758        15.9393 
 180   0.0000       0.596560        16.2332 
 181   0.0000       0.602067        16.3831 
 182   0.0000       0.610085        16.6013 
 183   0.0000       0.612132        16.6570 
 184   0.0000       0.613907        16.7052 
 185   0.0000       0.618137        16.8204 
 186   0.0000       0.623614        16.9694 
 187   0.0000       0.627476        17.0745 
 188   0.0000       0.630591        17.1593 
 189   0.0000       0.634660        17.2700 
 190   0.0000       0.638173        17.3656 
 191   0.0000       0.642520        17.4839 
 192   0.0000       0.647030        17.6066 
 193   0.0000       0.651424        17.7262 
 194   0.0000       0.652429        17.7535 
 195   0.0000       0.654943        17.8219 
 196   0.0000       0.655225        17.8296 
 197   0.0000       0.657374        17.8880 
 198   0.0000       0.659224        17.9384 
 199   0.0000       0.663505        18.0549 
 200   0.0000       0.666144        18.1267 
 201   0.0000       0.668400        18.1881 
 202   0.0000       0.669321        18.2131 
 203   0.0000       0.670885        18.2557 
 204   0.0000       0.677825        18.4446 
 205   0.0000       0.679409        18.4877 
 206   0.0000       0.685558        18.6550 
 207   0.0000       0.687057        18.6958 
 208   0.0000       0.691255        18.8100 
 209   0.0000       0.697137        18.9701 
 210   0.0000       0.703482        19.1427 
 211   0.0000       0.705266        19.1913 
 212   0.0000       0.710555        19.3352 
 213   0.0000       0.726522        19.7697 
 214   0.0000       0.729883        19.8611 
 215   0.0000       0.732730        19.9386 
 216   0.0000       0.736492        20.0410 
 217   0.0000       0.747912        20.3517 
 218   0.0000       0.754406        20.5284 
 219   0.0000       0.759018        20.6539 
 220   0.0000       0.771099        20.9827 
 221   0.0000       0.777174        21.1480 
 222   0.0000       0.788349        21.4521 
 223   0.0000       0.809259        22.0210 
 224   0.0000       0.818015        22.2593 
 225   0.0000       0.822505        22.3815 
 226   0.0000       0.830879        22.6094 
 227   0.0000       0.835984        22.7483 
 228   0.0000       0.837365        22.7859 
 229   0.0000       0.848368        23.0853 
 230   0.0000       0.860502        23.4154 
 231   0.0000       0.863870        23.5071 
 232   0.0000       0.869685        23.6653 
 233   0.0000       0.881763        23.9940 
 234   0.0000       0.892114        24.2756 
 235   0.0000       0.896435        24.3932 
 236   0.0000       0.900586        24.5062 
 237   0.0000       0.921597        25.0779 
 238   0.0000       0.923454        25.1285 
 239   0.0000       0.930238        25.3131 
 240   0.0000       0.949514        25.8376 
 241   0.0000       0.956737        26.0341 
 242   0.0000       0.964135        26.2354 
 243   0.0000       0.967915        26.3383 
 244   0.0000       0.977577        26.6012 
 245   0.0000       0.982973        26.7481 
 246   0.0000       0.984993        26.8030 
 247   0.0000       0.996624        27.1195 
 248   0.0000       1.008194        27.4344 
 249   0.0000       1.016174        27.6515 
 250   0.0000       1.023633        27.8545 
 251   0.0000       1.027251        27.9529 
 252   0.0000       1.030408        28.0388 
 253   0.0000       1.037004        28.2183 
 254   0.0000       1.040214        28.3057 
 255   0.0000       1.054578        28.6965 
 256   0.0000       1.072310        29.1790 
 257   0.0000       1.076021        29.2800 
 258   0.0000       1.094425        29.7808 
 259   0.0000       1.099351        29.9149 
 260   0.0000       1.103626        30.0312 
 261   0.0000       1.131337        30.7853 
 262   0.0000       1.145623        31.1740 
 263   0.0000       1.156906        31.4810 
 264   0.0000       1.165493        31.7147 
 265   0.0000       1.176766        32.0214 
 266   0.0000       1.184382        32.2287 
 267   0.0000       1.197572        32.5876 
 268   0.0000       1.199375        32.6367 
 269   0.0000       1.200443        32.6657 
 270   0.0000       1.207360        32.8539 
 271   0.0000       1.212580        32.9960 
 272   0.0000       1.213060        33.0090 
 273   0.0000       1.214008        33.0348 
 274   0.0000       1.218005        33.1436 
 275   0.0000       1.221673        33.2434 
 276   0.0000       1.246168        33.9100 
 277   0.0000       1.267946        34.5026 
 278   0.0000       1.275646        34.7121 
 279   0.0000       1.293472        35.1972 
 280   0.0000       1.296143        35.2698 
 281   0.0000       1.305329        35.5198 
 282   0.0000       1.317686        35.8561 
 283   0.0000       1.322270        35.9808 
 284   0.0000       1.336849        36.3775 
 285   0.0000       1.352155        36.7940 
 286   0.0000       1.365796        37.1652 
 287   0.0000       1.370743        37.2998 
 288   0.0000       1.373069        37.3631 
 289   0.0000       1.384411        37.6717 
 290   0.0000       1.399648        38.0863 
 291   0.0000       1.402556        38.1655 
 292   0.0000       1.418084        38.5880 
 293   0.0000       1.421939        38.6929 
 294   0.0000       1.423832        38.7444 
 295   0.0000       1.424592        38.7651 
 296   0.0000       1.454519        39.5795 
 297   0.0000       1.456932        39.6451 
 298   0.0000       1.458905        39.6988 
 299   0.0000       1.460991        39.7556 
 300   0.0000       1.467967        39.9454 
 301   0.0000       1.470058        40.0023 
 302   0.0000       1.478450        40.2307 
 303   0.0000       1.490834        40.5677 
 304   0.0000       1.491932        40.5975 
 305   0.0000       1.501890        40.8685 
 306   0.0000       1.514089        41.2004 
 307   0.0000       1.517248        41.2864 
 308   0.0000       1.531581        41.6764 
 309   0.0000       1.556174        42.3456 
 310   0.0000       1.559730        42.4424 
 311   0.0000       1.562638        42.5215 
 312   0.0000       1.564875        42.5824 
 313   0.0000       1.579527        42.9811 
 314   0.0000       1.585089        43.1325 
 315   0.0000       1.590584        43.2820 
 316   0.0000       1.596456        43.4418 
 317   0.0000       1.613023        43.8926 
 318   0.0000       1.614978        43.9458 
 319   0.0000       1.616529        43.9880 
 320   0.0000       1.617394        44.0115 
 321   0.0000       1.622671        44.1551 
 322   0.0000       1.625653        44.2363 
 323   0.0000       1.627336        44.2821 
 324   0.0000       1.628618        44.3169 
 325   0.0000       1.629214        44.3332 
 326   0.0000       1.635425        44.5022 
 327   0.0000       1.639518        44.6135 
 328   0.0000       1.641620        44.6708 
 329   0.0000       1.644874        44.7593 
 330   0.0000       1.656528        45.0764 
 331   0.0000       1.662290        45.2332 
 332   0.0000       1.664998        45.3069 
 333   0.0000       1.666948        45.3600 
 334   0.0000       1.677850        45.6566 
 335   0.0000       1.679496        45.7014 
 336   0.0000       1.683362        45.8066 
 337   0.0000       1.686174        45.8831 
 338   0.0000       1.689506        45.9738 
 339   0.0000       1.689692        45.9789 
 340   0.0000       1.697675        46.1961 
 341   0.0000       1.701137        46.2903 
 342   0.0000       1.708958        46.5031 
 343   0.0000       1.716404        46.7057 
 344   0.0000       1.719078        46.7785 
 345   0.0000       1.721126        46.8342 
 346   0.0000       1.726265        46.9741 
 347   0.0000       1.727191        46.9993 
 348   0.0000       1.742093        47.4048 
 349   0.0000       1.752376        47.6846 
 350   0.0000       1.754879        47.7527 
 351   0.0000       1.760072        47.8940 
 352   0.0000       1.765459        48.0406 
 353   0.0000       1.774034        48.2739 
 354   0.0000       1.775163        48.3046 
 355   0.0000       1.780895        48.4606 
 356   0.0000       1.788320        48.6626 
 357   0.0000       1.790277        48.7159 
 358   0.0000       1.793417        48.8014 
 359   0.0000       1.811422        49.2913 
 360   0.0000       1.812233        49.3134 
 361   0.0000       1.818429        49.4820 
 362   0.0000       1.821619        49.5688 
 363   0.0000       1.826360        49.6978 
 364   0.0000       1.830940        49.8224 
 365   0.0000       1.836347        49.9695 
 366   0.0000       1.844376        50.1880 
 367   0.0000       1.845483        50.2182 
 368   0.0000       1.845807        50.2270 
 369   0.0000       1.874708        51.0134 
 370   0.0000       1.892416        51.4953 
 371   0.0000       1.899407        51.6855 
 372   0.0000       1.901013        51.7292 
 373   0.0000       1.917584        52.1801 
 374   0.0000       1.919274        52.2261 
 375   0.0000       1.920433        52.2576 
 376   0.0000       1.929779        52.5120 
 377   0.0000       1.948934        53.0332 
 378   0.0000       1.953260        53.1509 
 379   0.0000       1.955868        53.2219 
 380   0.0000       1.962137        53.3925 
 381   0.0000       1.965855        53.4936 
 382   0.0000       1.976457        53.7821 
 383   0.0000       1.978267        53.8314 
 384   0.0000       1.991606        54.1944 
 385   0.0000       2.003812        54.5265 
 386   0.0000       2.016586        54.8741 
 387   0.0000       2.032811        55.3156 
 388   0.0000       2.053479        55.8780 
 389   0.0000       2.059475        56.0412 
 390   0.0000       2.075676        56.4820 
 391   0.0000       2.084014        56.7089 
 392   0.0000       2.084443        56.7206 
 393   0.0000       2.100478        57.1569 
 394   0.0000       2.105434        57.2918 
 395   0.0000       2.151230        58.5379 
 396   0.0000       2.161959        58.8299 
 397   0.0000       2.168983        59.0210 
 398   0.0000       2.169519        59.0356 
 399   0.0000       2.176668        59.2302 
 400   0.0000       2.187045        59.5125 
 401   0.0000       2.194129        59.7053 
 402   0.0000       2.195655        59.7468 
 403   0.0000       2.207835        60.0782 
 404   0.0000       2.214268        60.2533 
 405   0.0000       2.217827        60.3501 
 406   0.0000       2.226013        60.5729 
 407   0.0000       2.252328        61.2890 
 408   0.0000       2.266467        61.6737 
 409   0.0000       2.270363        61.7797 
 410   0.0000       2.283279        62.1312 
 411   0.0000       2.294325        62.4318 
 412   0.0000       2.294584        62.4388 
 413   0.0000       2.310676        62.8767 
 414   0.0000       2.316672        63.0399 
 415   0.0000       2.324071        63.2412 
 416   0.0000       2.332192        63.4622 
 417   0.0000       2.333011        63.4844 
 418   0.0000       2.348261        63.8994 
 419   0.0000       2.369309        64.4722 
 420   0.0000       2.390069        65.0371 
 421   0.0000       2.400472        65.3202 
 422   0.0000       2.403592        65.4051 
 423   0.0000       2.405067        65.4452 
 424   0.0000       2.408191        65.5302 
 425   0.0000       2.410683        65.5980 
 426   0.0000       2.412317        65.6425 
 427   0.0000       2.417308        65.7783 
 428   0.0000       2.419793        65.8459 
 429   0.0000       2.432328        66.1870 
 430   0.0000       2.478444        67.4419 
 431   0.0000       2.479911        67.4818 
 432   0.0000       2.501605        68.0721 
 433   0.0000       2.510251        68.3074 
 434   0.0000       2.529668        68.8358 
 435   0.0000       2.532220        68.9052 
 436   0.0000       2.550212        69.3948 
 437   0.0000       2.573480        70.0280 
 438   0.0000       2.582154        70.2640 
 439   0.0000       2.598582        70.7110 
 440   0.0000       2.607997        70.9672 
 441   0.0000       2.614662        71.1486 
 442   0.0000       2.616826        71.2075 
 443   0.0000       2.685302        73.0708 
 444   0.0000       2.700138        73.4745 
 445   0.0000       2.704672        73.5979 
 446   0.0000       2.707162        73.6656 
 447   0.0000       2.708457        73.7009 
 448   0.0000       2.713435        73.8363 
 449   0.0000       2.721097        74.0448 
 450   0.0000       2.734851        74.4191 
 451   0.0000       2.763241        75.1916 
 452   0.0000       2.813511        76.5595 
 453   0.0000       2.831463        77.0480 
 454   0.0000       2.838670        77.2441 
 455   0.0000       2.853713        77.6535 
 456   0.0000       2.866358        77.9976 
 457   0.0000       3.054518        83.1177 
 458   0.0000       3.074149        83.6519 
 459   0.0000       3.342446        90.9526 
 460   0.0000       3.566632        97.0530 

                 SPIN DOWN ORBITALS
  NO   OCC          E(Eh)            E(eV) 
   0   1.0000     -10.240857      -278.6679 
   1   1.0000     -10.236261      -278.5428 
   2   1.0000     -10.229971      -278.3717 
   3   1.0000     -10.220901      -278.1248 
   4   1.0000     -10.220884      -278.1244 
   5   1.0000     -10.217421      -278.0302 
   6   1.0000     -10.216517      -278.0056 
   7   1.0000     -10.216384      -278.0019 
   8   1.0000     -10.214505      -277.9508 
   9   1.0000     -10.213432      -277.9216 
  10   1.0000     -10.212900      -277.9071 
  11   1.0000     -10.212777      -277.9038 
  12   1.0000     -10.211106      -277.8583 
  13   1.0000     -10.209195      -277.8063 
  14   1.0000     -10.201212      -277.5891 
  15   1.0000     -10.192892      -277.3627 
  16   1.0000     -10.191176      -277.3160 
  17   1.0000     -10.189628      -277.2739 
  18   1.0000     -10.187885      -277.2264 
  19   1.0000     -10.184338      -277.1299 
  20   1.0000     -10.180762      -277.0326 
  21   1.0000     -10.178324      -276.9663 
  22   1.0000     -10.166978      -276.6575 
  23   1.0000     -10.164447      -276.5887 
  24   1.0000      -0.890005       -24.2183 
  25   1.0000      -0.881989       -24.0002 
  26   1.0000      -0.830839       -22.6083 
  27   1.0000      -0.812986       -22.1225 
  28   1.0000      -0.801840       -21.8192 
  29   1.0000      -0.793389       -21.5892 
  30   1.0000      -0.776815       -21.1382 
  31   1.0000      -0.769246       -20.9323 
  32   1.0000      -0.749845       -20.4043 
  33   1.0000      -0.737930       -20.0801 
  34   1.0000      -0.711204       -19.3529 
  35   1.0000      -0.698402       -19.0045 
  36   1.0000      -0.662293       -18.0219 
  37   1.0000      -0.652046       -17.7431 
  38   1.0000      -0.629611       -17.1326 
  39   1.0000      -0.629327       -17.1249 
  40   1.0000      -0.626979       -17.0610 
  41   1.0000      -0.600476       -16.3398 
  42   1.0000      -0.585847       -15.9417 
  43   1.0000      -0.572318       -15.5736 
  44   1.0000      -0.556816       -15.1517 
  45   1.0000      -0.523399       -14.2424 
  46   1.0000      -0.519961       -14.1489 
  47   1.0000      -0.497130       -13.5276 
  48   1.0000      -0.491762       -13.3815 
  49   1.0000      -0.480589       -13.0775 
  50   1.0000      -0.476218       -12.9585 
  51   1.0000      -0.474805       -12.9201 
  52   1.0000      -0.453351       -12.3363 
  53   1.0000      -0.444763       -12.1026 
  54   1.0000      -0.442335       -12.0366 
  55   1.0000      -0.434605       -11.8262 
  56   1.0000      -0.432780       -11.7765 
  57   1.0000      -0.429815       -11.6959 
  58   1.0000      -0.422653       -11.5010 
  59   1.0000      -0.418163       -11.3788 
  60   1.0000      -0.409155       -11.1337 
  61   1.0000      -0.400771       -10.9055 
  62   1.0000      -0.386770       -10.5245 
  63   1.0000      -0.381690       -10.3863 
  64   1.0000      -0.378357       -10.2956 
  65   1.0000      -0.374233       -10.1834 
  66   1.0000      -0.368905       -10.0384 
  67   1.0000      -0.366315        -9.9679 
  68   1.0000      -0.364738        -9.9250 
  69   1.0000      -0.351647        -9.5688 
  70   1.0000      -0.341169        -9.2837 
  71   1.0000      -0.336797        -9.1647 
  72   1.0000      -0.336141        -9.1469 
  73   1.0000      -0.332514        -9.0482 
  74   1.0000      -0.330593        -8.9959 
  75   1.0000      -0.329834        -8.9752 
  76   1.0000      -0.325984        -8.8705 
  77   1.0000      -0.297236        -8.0882 
  78   1.0000      -0.290658        -7.9092 
  79   1.0000      -0.276052        -7.5118 
  80   1.0000      -0.261538        -7.1168 
  81   1.0000      -0.244661        -6.6576 
  82   1.0000      -0.236284        -6.4296 
  83   1.0000      -0.234292        -6.3754 
  84   0.0000      -0.153136        -4.1670 
  85   0.0000      -0.069209        -1.8833 
  86   0.0000      -0.027137        -0.7384 
  87   0.0000      -0.017989        -0.4895 
  88   0.0000      -0.012616        -0.3433 
  89   0.0000       0.023499         0.6394 
  90   0.0000       0.040076         1.0905 
  91   0.0000       0.054652         1.4872 
  92   0.0000       0.057743         1.5713 
  93   0.0000       0.061945         1.6856 
  94   0.0000       0.068848         1.8735 
  95   0.0000       0.071058         1.9336 
  96   0.0000       0.077420         2.1067 
  97   0.0000       0.086704         2.3593 
  98   0.0000       0.088456         2.4070 
  99   0.0000       0.088466         2.4073 
 100   0.0000       0.090895         2.4734 
 101   0.0000       0.091987         2.5031 
 102   0.0000       0.102019         2.7761 
 103   0.0000       0.116372         3.1666 
 104   0.0000       0.119065         3.2399 
 105   0.0000       0.122904         3.3444 
 106   0.0000       0.127444         3.4679 
 107   0.0000       0.132518         3.6060 
 108   0.0000       0.144519         3.9326 
 109   0.0000       0.145465         3.9583 
 110   0.0000       0.145514         3.9596 
 111   0.0000       0.148075         4.0293 
 112   0.0000       0.152736         4.1562 
 113   0.0000       0.153324         4.1722 
 114   0.0000       0.157274         4.2796 
 115   0.0000       0.160882         4.3778 
 116   0.0000       0.168315         4.5801 
 117   0.0000       0.168839         4.5943 
 118   0.0000       0.182719         4.9720 
 119   0.0000       0.191267         5.2046 
 120   0.0000       0.199220         5.4210 
 121   0.0000       0.200355         5.4519 
 122   0.0000       0.205952         5.6043 
 123   0.0000       0.209850         5.7103 
 124   0.0000       0.213457         5.8085 
 125   0.0000       0.230784         6.2800 
 126   0.0000       0.235181         6.3996 
 127   0.0000       0.254078         6.9138 
 128   0.0000       0.261998         7.1293 
 129   0.0000       0.262837         7.1522 
 130   0.0000       0.269285         7.3276 
 131   0.0000       0.277369         7.5476 
 132   0.0000       0.290626         7.9083 
 133   0.0000       0.296511         8.0685 
 134   0.0000       0.314861         8.5678 
 135   0.0000       0.324995         8.8436 
 136   0.0000       0.348824         9.4920 
 137   0.0000       0.353394         9.6163 
 138   0.0000       0.360742         9.8163 
 139   0.0000       0.366033         9.9603 
 140   0.0000       0.388373        10.5682 
 141   0.0000       0.395602        10.7649 
 142   0.0000       0.403877        10.9901 
 143   0.0000       0.405405        11.0316 
 144   0.0000       0.406838        11.0706 
 145   0.0000       0.410576        11.1724 
 146   0.0000       0.414206        11.2711 
 147   0.0000       0.418583        11.3902 
 148   0.0000       0.421955        11.4820 
 149   0.0000       0.433132        11.7861 
 150   0.0000       0.434457        11.8222 
 151   0.0000       0.438967        11.9449 
 152   0.0000       0.451785        12.2937 
 153   0.0000       0.453267        12.3340 
 154   0.0000       0.457242        12.4422 
 155   0.0000       0.466757        12.7011 
 156   0.0000       0.467111        12.7107 
 157   0.0000       0.472122        12.8471 
 158   0.0000       0.477971        13.0063 
 159   0.0000       0.486258        13.2317 
 160   0.0000       0.488195        13.2845 
 161   0.0000       0.492094        13.3906 
 162   0.0000       0.492501        13.4016 
 163   0.0000       0.497971        13.5505 
 164   0.0000       0.499221        13.5845 
 165   0.0000       0.501271        13.6403 
 166   0.0000       0.504339        13.7238 
 167   0.0000       0.507767        13.8170 
 168   0.0000       0.511032        13.9059 
 169   0.0000       0.521068        14.1790 
 170   0.0000       0.533590        14.5197 
 171   0.0000       0.538937        14.6652 
 172   0.0000       0.541919        14.7464 
 173   0.0000       0.563623        15.3370 
 174   0.0000       0.566021        15.4022 
 175   0.0000       0.569174        15.4880 
 176   0.0000       0.576053        15.6752 
 177   0.0000       0.581002        15.8099 
 178   0.0000       0.582580        15.8528 
 179   0.0000       0.586616        15.9626 
 180   0.0000       0.597672        16.2635 
 181   0.0000       0.604735        16.4557 
 182   0.0000       0.613373        16.6907 
 183   0.0000       0.613823        16.7030 
 184   0.0000       0.614379        16.7181 
 185   0.0000       0.619780        16.8651 
 186   0.0000       0.623784        16.9740 
 187   0.0000       0.628269        17.0961 
 188   0.0000       0.631100        17.1731 
 189   0.0000       0.635213        17.2850 
[...]
  Z           0.9999978            0.0020155            0.0005705

Notes:  (1) The A matrix conforms to the "SAI" spin Hamiltonian convention.
        (2) Tensor is right-handed.

 -----------------------------------------------------------
 Nucleus  46H : A:ISTP=    1 I=  0.5 P=533.5514 MHz/au**3
                Q:ISTP=    2 I=  1.0 Q=  0.0029 barn     
 -----------------------------------------------------------
 Solving for nuclear perturbation:
Forming RHS of the CP-SCF equations         ... 
Calc. nucleus orbit integrals (SHARK)       ... done

------------------------------------------------------------------------------
                           ORCA CP-SCF CALCULATION
------------------------------------------------------------------------------

Input orbitals are from        ... cc-pVDZ_i.gbw
Input Perturbation             ... cc-pVDZ_i.pin.tmp
Wavefunction output            ... cc-pVDZ_i.pout.tmp
Perturbation mode              ... Imaginary perturbation
Solver                         ... POPLE
Max. number of iterations      ... 64
Convergence tolerance          ... 1.000e-03
Integral handling              ... Direct
DFT GridXC                     ... 1
COSX GridX                     ... 1
COSX IntAccX                   ... 3.067
COSX Algorithm                 ... Auto
Number of perturbations        ... 3
Number of operators            ... 2
Orbital ranges used for CP-SCF:
 Operator 0:  Orbitals   0... 84  to  85...460
 Operator 1:  Orbitals   0... 83  to  84...460
Variables per perturbation     ... 63628
DFT calculation                         ... on
XC functional terms                     ... off
Hybrid DFT                              ... on
   Exchange mixing (SCF)                ...  0.200
   Exchange mixing (CP-SCF)             ...  0.200
   GGA exch. scaling(SCF)               ...  0.720
   GGA exch. scaling (CP-SCF)           ...  0.720
   GGA corr. scaling (SCF)              ...  0.810
   GGA corr. scaling (CP-SCF)           ...  0.810

CP-SCF GRID
-----------

General Integration Accuracy     IntAcc      ... 3.467
Radial Grid Type                 RadialGrid  ... OptM3 with GC (2021)
Angular Grid (max. ang.)         AngularGrid ... 1 (Lebedev-50)
Angular grid pruning method      GridPruning ... 4 (adaptive)
Weight generation scheme         WeightScheme... Becke
Basis function cutoff            BFCut       ... 1.0000e-10
Integration weight cutoff        WCut        ... 1.0000e-14
Angular grids for H and He will be reduced by one unit
Partially contracted basis set               ... off
Rotationally invariant grid construction     ... off

Total number of grid points                  ...    31843
Total number of batches                      ...      519
Average number of points per batch           ...       61
Average number of grid points per atom       ...      650

CP-SCF GRIDX
------------

General Integration Accuracy     IntAcc      ... 3.067
Radial Grid Type                 RadialGrid  ... OptM3 with GC (2021)
Angular Grid (max. ang.)         AngularGrid ... 1 (Lebedev-50)
Angular grid pruning method      GridPruning ... 4 (adaptive)
Weight generation scheme         WeightScheme... Becke
Basis function cutoff            BFCut       ... 1.0000e-10
Integration weight cutoff        WCut        ... 1.0000e-14
Angular grids for H and He will be reduced by one unit
Partially contracted basis set               ... on
Rotationally invariant grid construction     ... off

Total number of grid points                  ...    14941
Total number of batches                      ...      262
Average number of points per batch           ...       57
Average number of grid points per atom       ...      305

Memory available               ... 875.3 MB
Memory needed per perturbation ...  13.4 MB
Perturbations treated per batch... 3
Number of batches              ... 1
     CP-SCF ITERATION   0:   4.5908e-02 (   2.1 sec   0/  3 done)
     CP-SCF ITERATION   1:   2.1116e-03 (   1.9 sec   0/  3 done)
     CP-SCF ITERATION   2:   4.3571e-04 (   1.9 sec   3/  3 done)
                    *** THE CP-SCF HAS CONVERGED ***

Forming final perturbed densities           ... done
Transforming perturbed density to AO basis  ... done

 Raw HFC matrix (all values in MHz): 
 -----------------------------------
                -3.0099               0.7404               0.0019
                 0.7403              -1.5932               0.0037
                 0.0019               0.0037              -3.2086

 A(FC)          -2.6045              -2.6045              -2.6045
 A(SD)           1.3272              -0.6040              -0.7231
 A(ORB+DIA)      0.0004              -0.0001               0.0014    A(PC) =   0.0006
 A(ORB)          0.0001               0.0000               0.0013    A(PC) =   0.0005
 A(DIA)          0.0003              -0.0001               0.0001    A(PC) =   0.0001
             ----------           ----------           ----------
 A(Tot)         -1.2769              -3.2086              -3.3262    A(iso)=   -2.6039
 Orientation: 
  X           0.3928816            0.0013499            0.9195881
  Y           0.9195866           -0.0028977           -0.3928767
  Z           0.0021343            0.9999949           -0.0023798

Notes:  (1) The A matrix conforms to the "SAI" spin Hamiltonian convention.
        (2) Tensor is right-handed.

 -----------------------------------------------------------
 Nucleus  47H : A:ISTP=    1 I=  0.5 P=533.5514 MHz/au**3
                Q:ISTP=    2 I=  1.0 Q=  0.0029 barn     
 -----------------------------------------------------------
 Solving for nuclear perturbation:
Forming RHS of the CP-SCF equations         ... 
Calc. nucleus orbit integrals (SHARK)       ... done

------------------------------------------------------------------------------
                           ORCA CP-SCF CALCULATION
------------------------------------------------------------------------------

Input orbitals are from        ... cc-pVDZ_i.gbw
Input Perturbation             ... cc-pVDZ_i.pin.tmp
Wavefunction output            ... cc-pVDZ_i.pout.tmp
Perturbation mode              ... Imaginary perturbation
Solver                         ... POPLE
Max. number of iterations      ... 64
Convergence tolerance          ... 1.000e-03
Integral handling              ... Direct
DFT GridXC                     ... 1
COSX GridX                     ... 1
COSX IntAccX                   ... 3.067
COSX Algorithm                 ... Auto
Number of perturbations        ... 3
Number of operators            ... 2
Orbital ranges used for CP-SCF:
 Operator 0:  Orbitals   0... 84  to  85...460
 Operator 1:  Orbitals   0... 83  to  84...460
Variables per perturbation     ... 63628
DFT calculation                         ... on
XC functional terms                     ... off
Hybrid DFT                              ... on
   Exchange mixing (SCF)                ...  0.200
   Exchange mixing (CP-SCF)             ...  0.200
   GGA exch. scaling(SCF)               ...  0.720
   GGA exch. scaling (CP-SCF)           ...  0.720
   GGA corr. scaling (SCF)              ...  0.810
   GGA corr. scaling (CP-SCF)           ...  0.810

CP-SCF GRID
-----------

General Integration Accuracy     IntAcc      ... 3.467
Radial Grid Type                 RadialGrid  ... OptM3 with GC (2021)
Angular Grid (max. ang.)         AngularGrid ... 1 (Lebedev-50)
Angular grid pruning method      GridPruning ... 4 (adaptive)
Weight generation scheme         WeightScheme... Becke
Basis function cutoff            BFCut       ... 1.0000e-10
Integration weight cutoff        WCut        ... 1.0000e-14
Angular grids for H and He will be reduced by one unit
Partially contracted basis set               ... off
Rotationally invariant grid construction     ... off

Total number of grid points                  ...    31843
Total number of batches                      ...      519
Average number of points per batch           ...       61
Average number of grid points per atom       ...      650

CP-SCF GRIDX
------------

General Integration Accuracy     IntAcc      ... 3.067
Radial Grid Type                 RadialGrid  ... OptM3 with GC (2021)
Angular Grid (max. ang.)         AngularGrid ... 1 (Lebedev-50)
Angular grid pruning method      GridPruning ... 4 (adaptive)
Weight generation scheme         WeightScheme... Becke
Basis function cutoff            BFCut       ... 1.0000e-10
Integration weight cutoff        WCut        ... 1.0000e-14
Angular grids for H and He will be reduced by one unit
Partially contracted basis set               ... on
Rotationally invariant grid construction     ... off

Total number of grid points                  ...    14941
Total number of batches                      ...      262
Average number of points per batch           ...       57
Average number of grid points per atom       ...      305

Memory available               ... 874.8 MB
Memory needed per perturbation ...  13.4 MB
Perturbations treated per batch... 3
Number of batches              ... 1
     CP-SCF ITERATION   0:   4.5980e-02 (   2.0 sec   0/  3 done)
     CP-SCF ITERATION   1:   2.1077e-03 (   1.9 sec   0/  3 done)
     CP-SCF ITERATION   2:   4.3770e-04 (   1.9 sec   3/  3 done)
                    *** THE CP-SCF HAS CONVERGED ***

Forming final perturbed densities           ... done
Transforming perturbed density to AO basis  ... done

 Raw HFC matrix (all values in MHz): 
 -----------------------------------
                -3.1335              -0.6024              -0.0011
                -0.6025              -1.4686               0.0037
                -0.0011               0.0037              -3.2016

 A(FC)          -2.6018              -2.6018              -2.6018
 A(SD)           1.3279              -0.5997              -0.7282
 A(ORB+DIA)      0.0004              -0.0001               0.0014    A(PC) =   0.0006
 A(ORB)          0.0002               0.0000               0.0013    A(PC) =   0.0005
 A(DIA)          0.0003              -0.0001               0.0001    A(PC) =   0.0001
             ----------           ----------           ----------
 A(Tot)         -1.2735              -3.2016              -3.3286    A(iso)=   -2.6012
 Orientation: 
  X          -0.3081059            0.0009763            0.9513516
  Y           0.9513500           -0.0017679            0.3081072
  Z           0.0019827            0.9999980           -0.0003841

Notes:  (1) The A matrix conforms to the "SAI" spin Hamiltonian convention.
        (2) Tensor is right-handed.

 -----------------------------------------------------------
 Nucleus  48H : A:ISTP=    1 I=  0.5 P=533.5514 MHz/au**3
                Q:ISTP=    2 I=  1.0 Q=  0.0029 barn     
 -----------------------------------------------------------
 Solving for nuclear perturbation:
Forming RHS of the CP-SCF equations         ... 
Calc. nucleus orbit integrals (SHARK)       ... done

------------------------------------------------------------------------------
                           ORCA CP-SCF CALCULATION
------------------------------------------------------------------------------

Input orbitals are from        ... cc-pVDZ_i.gbw
Input Perturbation             ... cc-pVDZ_i.pin.tmp
Wavefunction output            ... cc-pVDZ_i.pout.tmp
Perturbation mode              ... Imaginary perturbation
Solver                         ... POPLE
Max. number of iterations      ... 64
Convergence tolerance          ... 1.000e-03
Integral handling              ... Direct
DFT GridXC                     ... 1
COSX GridX                     ... 1
COSX IntAccX                   ... 3.067
COSX Algorithm                 ... Auto
Number of perturbations        ... 3
Number of operators            ... 2
Orbital ranges used for CP-SCF:
 Operator 0:  Orbitals   0... 84  to  85...460
 Operator 1:  Orbitals   0... 83  to  84...460
Variables per perturbation     ... 63628
DFT calculation                         ... on
XC functional terms                     ... off
Hybrid DFT                              ... on
   Exchange mixing (SCF)                ...  0.200
   Exchange mixing (CP-SCF)             ...  0.200
   GGA exch. scaling(SCF)               ...  0.720
   GGA exch. scaling (CP-SCF)           ...  0.720
   GGA corr. scaling (SCF)              ...  0.810
   GGA corr. scaling (CP-SCF)           ...  0.810

CP-SCF GRID
-----------

General Integration Accuracy     IntAcc      ... 3.467
Radial Grid Type                 RadialGrid  ... OptM3 with GC (2021)
Angular Grid (max. ang.)         AngularGrid ... 1 (Lebedev-50)
Angular grid pruning method      GridPruning ... 4 (adaptive)
Weight generation scheme         WeightScheme... Becke
Basis function cutoff            BFCut       ... 1.0000e-10
Integration weight cutoff        WCut        ... 1.0000e-14
Angular grids for H and He will be reduced by one unit
Partially contracted basis set               ... off
Rotationally invariant grid construction     ... off

Total number of grid points                  ...    31843
Total number of batches                      ...      519
Average number of points per batch           ...       61
Average number of grid points per atom       ...      650

CP-SCF GRIDX
------------

General Integration Accuracy     IntAcc      ... 3.067
Radial Grid Type                 RadialGrid  ... OptM3 with GC (2021)
Angular Grid (max. ang.)         AngularGrid ... 1 (Lebedev-50)
Angular grid pruning method      GridPruning ... 4 (adaptive)
Weight generation scheme         WeightScheme... Becke
Basis function cutoff            BFCut       ... 1.0000e-10
Integration weight cutoff        WCut        ... 1.0000e-14
Angular grids for H and He will be reduced by one unit
Partially contracted basis set               ... on
Rotationally invariant grid construction     ... off

Total number of grid points                  ...    14941
Total number of batches                      ...      262
Average number of points per batch           ...       57
Average number of grid points per atom       ...      305

Memory available               ... 874.2 MB
Memory needed per perturbation ...  13.4 MB
Perturbations treated per batch... 3
Number of batches              ... 1
     CP-SCF ITERATION   0:   4.1734e-02 (   1.8 sec   0/  3 done)
     CP-SCF ITERATION   1:   1.7413e-03 (   1.8 sec   1/  3 done)
     CP-SCF ITERATION   2:   9.4280e-05 (   1.6 sec   3/  3 done)
                    *** THE CP-SCF HAS CONVERGED ***

Forming final perturbed densities           ... done
Transforming perturbed density to AO basis  ... done

 Raw HFC matrix (all values in MHz): 
 -----------------------------------
                 1.6961               0.2871               0.0009
                 0.2870               1.0159               0.0006
                 0.0009               0.0006               0.7118

 A(FC)           1.1413               1.1413               1.1413
 A(SD)          -0.4295              -0.2306               0.6601
 A(ORB+DIA)      0.0000               0.0003              -0.0003    A(PC) =   0.0000
 A(ORB)         -0.0000               0.0003              -0.0003    A(PC) =  -0.0000
 A(DIA)          0.0001               0.0000               0.0001    A(PC) =   0.0001
             ----------           ----------           ----------
 A(Tot)          0.7118               0.9110               1.8010    A(iso)=    1.1413
 Orientation: 
  X          -0.0005094           -0.3434023           -0.9391883
  Y          -0.0014840            0.9391876           -0.3434013
  Z           0.9999988            0.0012188           -0.0009881

Notes:  (1) The A matrix conforms to the "SAI" spin Hamiltonian convention.
        (2) Tensor is right-handed.


--------------------------------------------------------------------------------
----------------------------------------------------------------------------
                           ORCA EULER ANGLE PROGRAM
----------------------------------------------------------------------------

Only g-tensor available        -->  using g-tensor as reference tensor

Reference tensor               ...  g

g-tensor ordering              ...  |g_min> --> |gx>
                                    |g_mid> --> |gy>
                                    |g_max> --> |gz>

A- and EFG-tensor ordering     ...  the axes |Ax>, |Qx>, |Ay>, etc. are assigned
                                    such that the Euler rotation is minimal. You
                                    can find the respective eigenvalues as Ax,
                                    EFGx, Ay, etc. in the tables below.
                                    The relation of |Ax>, |Ay>,  etc. to Amin, Amid, etc.
                                    (as printed in the ORCA EPR/NMR CALCULATION Output)
                                    is obtained in the detailed printout.

Euler rotation around          ...  z - y - z
   First rotation              -->  by alpha around z
   Second rotation             -->  by beta around y'
   Third rotation              -->  by gamma around z''
   Positive / Negative angle   -->  clockwise / counterclockwise rotation

Plot EFG-tensors                    (-)
Plot HFC-tensors                    (-)
Detailed Printout                   (-)

-------------------------------------------------------------------------
          Euler rotation of hyperfine tensor to g-tensor
-------------------------------------------------------------------------

-------------------------------------------------------------------
 Atom  |   Alpha    Beta    Gamma   |   Ax       Ay       Az 
       |          [degrees]         |           [MHz]         
-------------------------------------------------------------------
  9H       90.5     37.9    -90.4       2.45     3.31     6.42
 10H       90.8     20.7    -90.8      -9.86    -3.45   -10.59
 12H       62.7     15.3    -45.8      10.30    15.08    11.85
 13H      118.9     15.8   -135.8      10.30    15.08    11.86
 15H       78.8     30.0    -64.4      -0.94     0.89    -0.74
 16H      102.4     30.3   -116.7      -0.94     0.89    -0.74
 18H      137.8      7.8   -147.1      -0.39     0.87    -0.29
 19H       45.9      7.2    -36.5      -0.39     0.87    -0.29
 21H       92.6     17.8   -100.5      -0.18     0.38    -0.11
 22H       89.7     17.7    -81.7      -0.18     0.38    -0.11
 24H      -97.6     26.6    112.9      -4.71    -3.11    -3.98
 25H      -83.8     26.4     68.5      -4.71    -3.11    -3.98
 27H      -81.8     25.0     69.2      -0.23     1.44    -0.04
 28H      -99.8     25.3    112.3      -0.23     1.44    -0.04
 30H      -96.1     27.7    105.9      -0.31     0.28    -0.15
 31H      -85.4     27.5     75.5      -0.31     0.28    -0.15
 33H      -91.9     14.3     99.4      -0.21     0.32    -0.15
 34H      -91.0     14.2     83.4      -0.21     0.32    -0.15
 36H       92.7      8.3    -92.6      -0.17     0.30    -0.14
 37H      -91.1     18.2     91.1      -0.14     0.21    -0.09
 44H     -173.3      0.3    173.2      -3.08    -4.80    -0.96
 45H      -90.9     22.4     90.8       0.71     0.92     1.79
 46H      -91.2     20.9     91.1      -3.21    -1.28    -3.33
 47H       91.2     20.2    -91.1      -3.20    -1.27    -3.33
 48H       90.8     22.3    -90.8       0.71     0.91     1.80
-------------------------------------------------------------------


Maximum memory used throughout the entire EPRNMR-calculation: 219.7 MB

Timings for individual modules:

Sum of individual times         ...     4855.632 sec (=  80.927 min)
GTO integral calculation        ...        4.618 sec (=   0.077 min)   0.1 %
Spin-Orbit-Coupling Matrices    ...        9.431 sec (=   0.157 min)   0.2 %
SCF iterations                  ...       30.198 sec (=   0.503 min)   0.6 %
EPR/NMR calculation             ...     4811.385 sec (=  80.190 min)  99.1 %
                             ****ORCA TERMINATED NORMALLY****
TOTAL RUN TIME: 0 days 1 hours 20 minutes 59 seconds 927 msec
