
                                 *****************
                                 * O   R   C   A *
                                 *****************

           --- An Ab Initio, DFT and Semiempirical electronic structure package ---

                  #######################################################
                  #                        -***-                        #
                  #          Department of theory and spectroscopy      #
                  #               Directorship: Frank Neese             #
                  #        Max Planck Institute fuer Kohlenforschung    #
                  #                Kaiser Wilhelm Platz 1               #
                  #                 D-45470 Muelheim/Ruhr               #
                  #                      Germany                        #
                  #                                                     #
                  #                  All rights reserved                #
                  #                        -***-                        #
                  #######################################################


                         Program Version 4.2.1 -  RELEASE  -


 With contributions from (in alphabetic order):
   Daniel Aravena         : Magnetic Suceptibility
   Michael Atanasov       : Ab Initio Ligand Field Theory (pilot matlab implementation)
   Alexander A. Auer      : GIAO ZORA, VPT2
   Ute Becker             : Parallelization
   Giovanni Bistoni       : ED, misc. LED, open-shell LED, HFLD
   Martin Brehm           : Molecular dynamics
   Dmytro Bykov           : SCF Hessian
   Vijay G. Chilkuri      : MRCI spin determinant printing, contributions to CSF-ICE
   Dipayan Datta          : RHF DLPNO-CCSD density
   Achintya Kumar Dutta   : EOM-CC, STEOM-CC
   Dmitry Ganyushin       : Spin-Orbit,Spin-Spin,Magnetic field MRCI
   Miquel Garcia          : C-PCM Hessian, Gaussian charge scheme
   Yang Guo               : DLPNO-NEVPT2, CIM, IAO-localization
   Andreas Hansen         : Spin unrestricted coupled pair/coupled cluster methods
   Benjamin Helmich-Paris : CASSCF linear response (MC-RPA)
   Lee Huntington         : MR-EOM, pCC
   Robert Izsak           : Overlap fitted RIJCOSX, COSX-SCS-MP3, EOM
   Christian Kollmar      : KDIIS, OOCD, Brueckner-CCSD(T), CCSD density
   Simone Kossmann        : Meta GGA functionals, TD-DFT gradient, OOMP2, MP2 Hessian
   Martin Krupicka        : AUTO-CI
   Lucas Lang             : DCDCAS
   Dagmar Lenk            : GEPOL surface, SMD
   Dimitrios Liakos       : Extrapolation schemes; Compound Job, initial MDCI parallelization
   Dimitrios Manganas     : Further ROCIS development; embedding schemes
   Dimitrios Pantazis     : SARC Basis sets
   Taras Petrenko         : DFT Hessian,TD-DFT gradient, ASA, ECA, R-Raman, ABS, FL, XAS/XES, NRVS
   Peter Pinski           : DLPNO-MP2, DLPNO-MP2 Gradient
   Christoph Reimann      : Effective Core Potentials
   Marius Retegan         : Local ZFS, SOC
   Christoph Riplinger    : Optimizer, TS searches, QM/MM, DLPNO-CCSD(T), (RO)-DLPNO pert. Triples
   Tobias Risthaus        : Range-separated hybrids, TD-DFT gradient, RPA, STAB
   Michael Roemelt        : Original ROCIS implementation
   Masaaki Saitow         : Open-shell DLPNO-CCSD energy and density
   Barbara Sandhoefer     : DKH picture change effects
   Avijit Sen             : IP-ROCIS
   Kantharuban Sivalingam : CASSCF convergence, NEVPT2, FIC-MRCI
   Bernardo de Souza      : ESD, SOC TD-DFT
   Georgi Stoychev        : AutoAux, RI-MP2 NMR
   Willem Van den Heuvel  : Paramagnetic NMR
   Boris Wezisla          : Elementary symmetry handling
   Frank Wennmohs         : Technical directorship


 We gratefully acknowledge several colleagues who have allowed us to
 interface, adapt or use parts of their codes:
   Stefan Grimme, W. Hujo, H. Kruse,             : VdW corrections, initial TS optimization,
                  C. Bannwarth                     DFT functionals, gCP, sTDA/sTD-DF
   Ed Valeev, F. Pavosevic, A. Kumar             : LibInt (2-el integral package), F12 methods
   Garnet Chan, S. Sharma, J. Yang, R. Olivares  : DMRG
   Ulf Ekstrom                                   : XCFun DFT Library
   Mihaly Kallay                                 : mrcc  (arbitrary order and MRCC methods)
   Andreas Klamt, Michael Diedenhofen            : otool_cosmo (COSMO solvation model)
   Jiri Pittner, Ondrej Demel                    : Mk-CCSD
   Frank Weinhold                                : gennbo (NPA and NBO analysis)
   Christopher J. Cramer and Donald G. Truhlar   : smd solvation model
   Lars Goerigk                                  : TD-DFT with DH, B97 family of functionals
   V. Asgeirsson, H. Jonsson                     : NEB implementation
   FAccTs GmbH                                   : IRC, NEB, NEB-TS, Multilevel, MM, QM/MM, CI optimization
   S Lehtola, MJT Oliveira, MAL Marques          : LibXC Library


 Your calculation uses the libint2 library for the computation of 2-el integrals
 For citations please refer to: http://libint.valeyev.net

 Your ORCA version has been built with support for libXC version: 4.2.3
 For citations please refer to: https://tddft.org/programs/libxc/

 This ORCA versions uses:
   CBLAS   interface :  Fast vector & matrix operations
   LAPACKE interface :  Fast linear algebra routines
   SCALAPACK package :  Parallel linear algebra routines




***************************************
The coordinates will be read from file: opt.xyz
***************************************


----- Orbital basis set information -----
Your calculation utilizes the basis: cc-pVDZ 
       H, B-Ne : Obtained from the ccRepo (grant-hill.group.shef.ac.uk/ccrepo) Feb. 2017
                 T. H. Dunning, Jr., J. Chem. Phys. 90, 1007 (1989)
            He : Obtained from the ccRepo (grant-hill.group.shef.ac.uk/ccrepo) Feb. 2017
                 D. E. Woon, T. H. Dunning, Jr., J. Chem. Phys. 100, 2975 (1994)
  Li-Be, Na-Mg : Obtained from the ccRepo (grant-hill.group.shef.ac.uk/ccrepo) Feb. 2017
                 B. P. Prascher, D. E. Woon, K. A. Peterson, T. H. Dunning, Jr., A. K. Wilson, Theor. Chem. Acc. 128, 69 (2011)
         Al-Ar : Obtained from the ccRepo (grant-hill.group.shef.ac.uk/ccrepo) Feb. 2017
                 D. E. Woon, T. H. Dunning, Jr., J. Chem. Phys. 98, 1358 (1993)
            Ca : Obtained from the Peterson Research Group Website (tyr0.chem.wsu.edu/~kipeters) Feb. 2017
                 J. Koput, K. A. Peterson, J. Phys. Chem. 106, 9595 (2002)
         Sc-Zn : Obtained from the ccRepo (grant-hill.group.shef.ac.uk/ccrepo) Feb. 2017
                 N. B. Balabanov, K. A. Peterson, J. Chem. Phys. 123, 064107 (2005)
                 N. B. Balabanov, K. A. Peterson, J. Chem. Phys. 125, 074110 (2006)
         Ga-Kr : Obtained from the ccRepo (grant-hill.group.shef.ac.uk/ccrepo) Feb. 2017
                 A. K. Wilson, D. E. Woon, K. A. Peterson, T. H. Dunning, Jr., J. Chem. Phys. 110, 7667 (1999)

----- AuxJ basis set information -----
Your calculation utilizes the AutoAux generation procedure.
  G. L. Stoychev, A. A. Auer, F. Neese, J. Chem. Theory Comput. 13, 554 (2017)

----- AuxC basis set information -----
Your calculation utilizes the AutoAux generation procedure.
  G. L. Stoychev, A. A. Auer, F. Neese, J. Chem. Theory Comput. 13, 554 (2017)

----- AuxJK basis set information -----
Your calculation utilizes the AutoAux generation procedure.
  G. L. Stoychev, A. A. Auer, F. Neese, J. Chem. Theory Comput. 13, 554 (2017)

================================================================================
                                        WARNINGS
                       Please study these warnings very carefully!
================================================================================


WARNING: your system is open-shell and RHF/RKS was chosen
  ===> : WILL SWITCH to UHF/UKS


INFO   : the flag for use of LIBINT has been found!

================================================================================
                                       INPUT FILE
================================================================================
NAME = cc-pVDZ.inp
|  1> ! B3LYP cc-pVDZ AUTOAUX
|  2> %pal nprocs 16 end
|  3> *XYZFile 0 2 opt.xyz
|  4> %EPRNMR
|  5>         GTENSOR   TRUE
|  6>         NUCLEI    = ALL H {AISO, ADIP, AORB}
|  7> END
|  8> 
|  9>                          ****END OF INPUT****
================================================================================

                       ****************************
                       * Single Point Calculation *
                       ****************************

---------------------------------
CARTESIAN COORDINATES (ANGSTROEM)
---------------------------------
  C     -4.098967    0.087649   -0.018603
  C     -2.815047    0.044667   -0.012458
  C      2.806862   -0.008947   -0.008584
  C     -1.422247    0.005174   -0.011616
  C     -0.708894   -1.249265   -0.014028
  C      0.675479   -1.198923   -0.012845
  C      1.391746    0.027780   -0.009474
  C      0.694256    1.279949   -0.007020
  C     -0.687609    1.232598   -0.008258
  H      1.257763   -2.119956   -0.014550
  H     -1.273669    2.150931   -0.006648
  C     -1.486165   -2.546334   -0.017599
  H     -2.166793   -2.531677   -0.888308
  H     -2.167517   -2.535988    0.852613
  C     -0.671077   -3.841512   -0.020366
  H     -0.007470   -3.867713   -0.905274
  H     -0.008441   -3.872109    0.865127
  C     -1.557915   -5.092292   -0.023885
  H     -2.224775   -5.067424    0.857968
  H     -2.223411   -5.063394   -0.906640
  C     -0.757529   -6.396373   -0.026244
  H     -0.108656   -6.471160    0.863891
  H     -0.107131   -6.466991   -0.915612
  C      1.479893    2.575731   -0.003505
  H      2.155518    2.565762    0.872279
  H      2.156092    2.570080   -0.878895
  C      0.665928    3.872021   -0.000661
  H      0.003382    3.900552   -0.885480
  H      0.002252    3.896000    0.883449
  C      1.551293    5.123627    0.003021
  H      2.216435    5.096723    0.886755
  H      2.218017    5.100803   -0.879638
  C      0.748444    6.426327    0.005308
  H      0.097582    6.494527    0.894121
  H      0.099548    6.498868   -0.884591
  C      4.031675   -0.053763   -0.009994
  H     -1.421069   -7.275944   -0.028889
  H      1.410119    7.307322    0.008206
  C      5.454574   -0.104157   -0.009614
  C      6.128342   -1.346466   -0.015274
  C      7.521137   -1.388941   -0.014795
  C      8.263853   -0.202169   -0.008716
  C      7.606163    1.033861   -0.003117
  C      6.213833    1.087895   -0.003585
  H      9.355918   -0.240878   -0.008329
  H      8.183514    1.961157    0.001688
  H      5.544563   -2.268661   -0.020082
  H      5.695622    2.048620    0.000827
  H      8.032889   -2.354074   -0.019252

----------------------------
CARTESIAN COORDINATES (A.U.)
----------------------------
  NO LB      ZA    FRAG     MASS         X           Y           Z
   0 C     6.0000    0    12.011   -7.745926    0.165632   -0.035154
   1 C     6.0000    0    12.011   -5.319667    0.084408   -0.023543
   2 C     6.0000    0    12.011    5.304201   -0.016907   -0.016221
   3 C     6.0000    0    12.011   -2.687657    0.009778   -0.021951
   4 C     6.0000    0    12.011   -1.339616   -2.360769   -0.026509
   5 C     6.0000    0    12.011    1.276470   -2.265637   -0.024274
   6 C     6.0000    0    12.011    2.630018    0.052497   -0.017903
   7 C     6.0000    0    12.011    1.311953    2.418754   -0.013266
   8 C     6.0000    0    12.011   -1.299393    2.329273   -0.015606
   9 H     1.0000    0     1.008    2.376828   -4.006136   -0.027496
  10 H     1.0000    0     1.008   -2.406886    4.064671   -0.012563
  11 C     6.0000    0    12.011   -2.808445   -4.811874   -0.033258
  12 H     1.0000    0     1.008   -4.094645   -4.784175   -1.678659
  13 H     1.0000    0     1.008   -4.096014   -4.792322    1.611206
  14 C     6.0000    0    12.011   -1.268153   -7.259406   -0.038487
  15 H     1.0000    0     1.008   -0.014117   -7.308919   -1.710721
  16 H     1.0000    0     1.008   -0.015952   -7.317226    1.634854
  17 C     6.0000    0    12.011   -2.944033   -9.623036   -0.045136
  18 H     1.0000    0     1.008   -4.204216   -9.576043    1.621324
  19 H     1.0000    0     1.008   -4.201638   -9.568429   -1.713301
  20 C     6.0000    0    12.011   -1.431522  -12.087393   -0.049595
  21 H     1.0000    0     1.008   -0.205330  -12.228721    1.632517
  22 H     1.0000    0     1.008   -0.202449  -12.220841   -1.730256
  23 C     6.0000    0    12.011    2.796592    4.867427   -0.006624
  24 H     1.0000    0     1.008    4.073339    4.848587    1.648368
  25 H     1.0000    0     1.008    4.074423    4.856748   -1.660870
  26 C     6.0000    0    12.011    1.258422    7.317060   -0.001250
  27 H     1.0000    0     1.008    0.006392    7.370975   -1.673315
  28 H     1.0000    0     1.008    0.004257    7.362372    1.669476
  29 C     6.0000    0    12.011    2.931520    9.682252    0.005709
  30 H     1.0000    0     1.008    4.188455    9.631411    1.675725
  31 H     1.0000    0     1.008    4.191445    9.639120   -1.662274
  32 C     6.0000    0    12.011    1.414353   12.143998    0.010031
  33 H     1.0000    0     1.008    0.184403   12.272877    1.689644
  34 H     1.0000    0     1.008    0.188118   12.281081   -1.671634
  35 C     6.0000    0    12.011    7.618761   -0.101597   -0.018886
  36 H     1.0000    0     1.008   -2.685432  -13.749542   -0.054593
  37 H     1.0000    0     1.008    2.664738   13.808838    0.015507
  38 C     6.0000    0    12.011   10.307650   -0.196829   -0.018167
  39 C     6.0000    0    12.011   11.580887   -2.544452   -0.028864
  40 C     6.0000    0    12.011   14.212889   -2.624719   -0.027958
  41 C     6.0000    0    12.011   15.616419   -0.382044   -0.016471
  42 C     6.0000    0    12.011   14.373565    1.953714   -0.005891
  43 C     6.0000    0    12.011   11.742443    2.055824   -0.006775
  44 H     1.0000    0     1.008   17.680124   -0.455194   -0.015740
  45 H     1.0000    0     1.008   15.464601    3.706050    0.003190
  46 H     1.0000    0     1.008   10.477706   -4.287147   -0.037949
  47 H     1.0000    0     1.008   10.763167    3.871331    0.001563
  48 H     1.0000    0     1.008   15.179960   -4.448554   -0.036380

--------------------------------
INTERNAL COORDINATES (ANGSTROEM)
--------------------------------
 C      0   0   0     0.000000000000     0.00000000     0.00000000
 C      1   0   0     1.284654752966     0.00000000     0.00000000
 C      2   1   0     5.622165557303   178.60909081     0.00000000
 C      2   1   3     1.393359584340   179.62147045   330.47442303
 C      4   2   1     1.443085522910   121.24932386   219.36556965
 C      5   4   2     1.385288420487   117.54251710   180.00648999
 C      3   2   1     1.415593297012     0.94029539     9.92071300
 C      7   3   6     1.433326995994   120.60545256   180.00007561
 C      8   7   3     1.382676229963   117.15622209   179.99187812
 H      6   5   4     1.089660176734   120.21865783   179.99873695
 H      9   8   7     1.089405483158   120.58248750   180.00786446
 C      5   4   2     1.512134471561   119.44262385     0.00000000
 H     12   5   4     1.105261327667   107.87995423    55.82591215
 H     12   5   4     1.105268273420   107.87758110   304.13551785
 C     12   5   4     1.530314422108   116.88469379   179.98601746
 H     15  12   5     1.106400837374   109.93494883   301.67475221
 H     15  12   5     1.106400474315   109.93506049    58.33153558
 C     15  12   5     1.533278221771   112.47921929   180.00021801
 H     18  15  12     1.105886317285   109.18401974   302.37472473
 H     18  15  12     1.105882636372   109.18261168    57.66182608
 C     18  15  12     1.530114697828   113.12269121   180.01778213
 H     21  18  15     1.104069769890   111.34070763    59.91305270
 H     21  18  15     1.104073662976   111.33995505   300.10033763
 C      8   7   3     1.515350781100   119.65264421     0.00000000
 H     24   8   7     1.106149903770   108.10713182   303.63349816
 H     24   8   7     1.106157109615   108.10314100    56.40755407
 C     24   8   7     1.530658050938   116.64611906   180.01520187
 H     27  24   8     1.105751357915   109.81556611   301.74945375
 H     27  24   8     1.105753678449   109.81731774    58.22193223
 C     27  24   8     1.533101799670   112.59975483   179.99049334
 H     30  27  24     1.106400987696   109.22299324   302.26188622
 H     30  27  24     1.106403111709   109.22302388    57.69114791
 C     30  27  24     1.530228856135   113.07977216   179.97640078
 H     33  30  27     1.103748808877   111.29613936    59.84806418
 H     33  30  27     1.103742762199   111.29660143   300.12389734
 C      3   2   1     1.225632897860   178.44726630   193.60261745
 H     21  18  15     1.101788930213   111.42985576   180.00783340
 H     33  30  27     1.101805621113   111.44621493   179.98483884
 C     36   3   7     1.423791183822   179.89458762   220.91984653
 C     39  36   3     1.413267921508   120.50129873   129.85014126
 C     40  39  36     1.393443103333   120.21968266   180.00351741
 C     41  40  39     1.400032966925   120.29251495     0.00000000
 C     42  41  40     1.400128233315   119.94366257     0.00000000
 C     43  42  41     1.393377932397   120.23947732     0.00000000
 H     42  41  40     1.092751119644   120.00926722   179.99778548
 H     43  42  41     1.092353302490   120.07602882   179.99654518
 H     40  39  36     1.091449963543   119.19222779     0.00000000
 H     44  43  42     1.091583467094   120.56427833   179.99605856
 H     41  40  39     1.092423844175   119.68075016   180.00321709

---------------------------
INTERNAL COORDINATES (A.U.)
---------------------------
 C      0   0   0     0.000000000000     0.00000000     0.00000000
 C      1   0   0     2.427645659747     0.00000000     0.00000000
 C      2   1   0    10.624353182867   178.60909081     0.00000000
 C      2   1   3     2.633068020476   179.62147045   330.47442303
 C      4   2   1     2.727036426126   121.24932386   219.36556965
 C      5   4   2     2.617815731213   117.54251710   180.00648999
 C      3   2   1     2.675083648367     0.94029539     9.92071300
 C      7   3   6     2.708595482786   120.60545256   180.00007561
 C      8   7   3     2.612879406512   117.15622209   179.99187812
 H      6   5   4     2.059159313068   120.21865783   179.99873695
 H      9   8   7     2.058678011960   120.58248750   180.00786446
 C      5   4   2     2.857520028912   119.44262385     0.00000000
 H     12   5   4     2.088641215705   107.87995423    55.82591215
 H     12   5   4     2.088654341276   107.87758110   304.13551785
 C     12   5   4     2.891875156574   116.88469379   179.98601746
 H     15  12   5     2.090794576978   109.93494883   301.67475221
 H     15  12   5     2.090793890895   109.93506049    58.33153558
 C     15  12   5     2.897475926254   112.47921929   180.00021801
 H     18  15  12     2.089822274919   109.18401974   302.37472473
 H     18  15  12     2.089815319002   109.18261168    57.66182608
 C     18  15  12     2.891497732382   113.12269121   180.01778213
 H     21  18  15     2.086389497834   111.34070763    59.91305270
 H     21  18  15     2.086396854700   111.33995505   300.10033763
 C      8   7   3     2.863597973102   119.65264421     0.00000000
 H     24   8   7     2.090320381188   108.10713182   303.63349816
 H     24   8   7     2.090333998263   108.10314100    56.40755407
 C     24   8   7     2.892524520954   116.64611906   180.01520187
 H     27  24   8     2.089567238670   109.81556611   301.74945375
 H     27  24   8     2.089571623845   109.81731774    58.22193223
 C     27  24   8     2.897142536799   112.59975483   179.99049334
 H     30  27  24     2.090794861045   109.22299324   302.26188622
 H     30  27  24     2.090798874849   109.22302388    57.69114791
 C     30  27  24     2.891713460318   113.07977216   179.97640078
 H     33  30  27     2.085782969420   111.29613936    59.84806418
 H     33  30  27     2.085771542854   111.29660143   300.12389734
 C      3   2   1     2.316110517679   178.44726630   193.60261745
 H     21  18  15     2.082079335489   111.42985576   180.00783340
 H     33  30  27     2.082110876718   111.44621493   179.98483884
 C     36   3   7     2.690575409314   179.89458762   220.91984653
 C     39  36   3     2.670689325506   120.50129873   129.85014126
 C     40  39  36     2.633225848500   120.21968266   180.00351741
 C     41  40  39     2.645678885949   120.29251495     0.00000000
 C     42  41  40     2.645858913336   119.94366257     0.00000000
 C     43  42  41     2.633102693280   120.23947732     0.00000000
 H     42  41  40     2.065000348662   120.00926722   179.99778548
 H     43  42  41     2.064248583190   120.07602882   179.99654518
 H     40  39  36     2.062541519974   119.19222779     0.00000000
 H     44  43  42     2.062793805124   120.56427833   179.99605856
 H     41  40  39     2.064381887655   119.68075016   180.00321709

---------------------
BASIS SET INFORMATION
---------------------
There are 2 groups of distinct atoms

 Group   1 Type C   : 17s4p1d contracted to 3s2p1d pattern {881/31/1}
 Group   2 Type H   : 4s1p contracted to 2s1p pattern {31/1}

Atom   0C    basis set group =>   1
Atom   1C    basis set group =>   1
Atom   2C    basis set group =>   1
Atom   3C    basis set group =>   1
Atom   4C    basis set group =>   1
Atom   5C    basis set group =>   1
Atom   6C    basis set group =>   1
Atom   7C    basis set group =>   1
Atom   8C    basis set group =>   1
Atom   9H    basis set group =>   2
Atom  10H    basis set group =>   2
Atom  11C    basis set group =>   1
Atom  12H    basis set group =>   2
Atom  13H    basis set group =>   2
Atom  14C    basis set group =>   1
Atom  15H    basis set group =>   2
Atom  16H    basis set group =>   2
Atom  17C    basis set group =>   1
Atom  18H    basis set group =>   2
Atom  19H    basis set group =>   2
Atom  20C    basis set group =>   1
Atom  21H    basis set group =>   2
Atom  22H    basis set group =>   2
Atom  23C    basis set group =>   1
Atom  24H    basis set group =>   2
Atom  25H    basis set group =>   2
Atom  26C    basis set group =>   1
Atom  27H    basis set group =>   2
Atom  28H    basis set group =>   2
Atom  29C    basis set group =>   1
Atom  30H    basis set group =>   2
Atom  31H    basis set group =>   2
Atom  32C    basis set group =>   1
Atom  33H    basis set group =>   2
Atom  34H    basis set group =>   2
Atom  35C    basis set group =>   1
Atom  36H    basis set group =>   2
Atom  37H    basis set group =>   2
Atom  38C    basis set group =>   1
Atom  39C    basis set group =>   1
Atom  40C    basis set group =>   1
Atom  41C    basis set group =>   1
Atom  42C    basis set group =>   1
Atom  43C    basis set group =>   1
Atom  44H    basis set group =>   2
Atom  45H    basis set group =>   2
Atom  46H    basis set group =>   2
Atom  47H    basis set group =>   2
Atom  48H    basis set group =>   2
---------------------------------
AUXILIARY/J BASIS SET INFORMATION
---------------------------------
There are 2 groups of distinct atoms

 Group   1 Type C   : 14s11p10d2f contracted to 14s11p10d2f pattern {11111111111111/11111111111/1111111111/11}
 Group   2 Type H   : 9s2p1d contracted to 9s2p1d pattern {111111111/11/1}

Atom   0C    basis set group =>   1
Atom   1C    basis set group =>   1
Atom   2C    basis set group =>   1
Atom   3C    basis set group =>   1
Atom   4C    basis set group =>   1
Atom   5C    basis set group =>   1
Atom   6C    basis set group =>   1
Atom   7C    basis set group =>   1
Atom   8C    basis set group =>   1
Atom   9H    basis set group =>   2
Atom  10H    basis set group =>   2
Atom  11C    basis set group =>   1
Atom  12H    basis set group =>   2
Atom  13H    basis set group =>   2
Atom  14C    basis set group =>   1
Atom  15H    basis set group =>   2
Atom  16H    basis set group =>   2
Atom  17C    basis set group =>   1
Atom  18H    basis set group =>   2
Atom  19H    basis set group =>   2
Atom  20C    basis set group =>   1
Atom  21H    basis set group =>   2
Atom  22H    basis set group =>   2
Atom  23C    basis set group =>   1
Atom  24H    basis set group =>   2
Atom  25H    basis set group =>   2
Atom  26C    basis set group =>   1
Atom  27H    basis set group =>   2
Atom  28H    basis set group =>   2
Atom  29C    basis set group =>   1
Atom  30H    basis set group =>   2
Atom  31H    basis set group =>   2
Atom  32C    basis set group =>   1
Atom  33H    basis set group =>   2
Atom  34H    basis set group =>   2
Atom  35C    basis set group =>   1
Atom  36H    basis set group =>   2
Atom  37H    basis set group =>   2
Atom  38C    basis set group =>   1
Atom  39C    basis set group =>   1
Atom  40C    basis set group =>   1
Atom  41C    basis set group =>   1
Atom  42C    basis set group =>   1
Atom  43C    basis set group =>   1
Atom  44H    basis set group =>   2
Atom  45H    basis set group =>   2
Atom  46H    basis set group =>   2
Atom  47H    basis set group =>   2
Atom  48H    basis set group =>   2
---------------------------------
AUXILIARY/C BASIS SET INFORMATION
---------------------------------
There are 2 groups of distinct atoms

 Group   1 Type C   : 14s11p10d2f contracted to 14s11p10d2f pattern {11111111111111/11111111111/1111111111/11}
 Group   2 Type H   : 9s2p1d contracted to 9s2p1d pattern {111111111/11/1}

Atom   0C    basis set group =>   1
Atom   1C    basis set group =>   1
Atom   2C    basis set group =>   1
Atom   3C    basis set group =>   1
Atom   4C    basis set group =>   1
Atom   5C    basis set group =>   1
Atom   6C    basis set group =>   1
Atom   7C    basis set group =>   1
Atom   8C    basis set group =>   1
Atom   9H    basis set group =>   2
Atom  10H    basis set group =>   2
Atom  11C    basis set group =>   1
Atom  12H    basis set group =>   2
Atom  13H    basis set group =>   2
Atom  14C    basis set group =>   1
Atom  15H    basis set group =>   2
Atom  16H    basis set group =>   2
Atom  17C    basis set group =>   1
Atom  18H    basis set group =>   2
Atom  19H    basis set group =>   2
Atom  20C    basis set group =>   1
Atom  21H    basis set group =>   2
Atom  22H    basis set group =>   2
Atom  23C    basis set group =>   1
Atom  24H    basis set group =>   2
Atom  25H    basis set group =>   2
Atom  26C    basis set group =>   1
Atom  27H    basis set group =>   2
Atom  28H    basis set group =>   2
Atom  29C    basis set group =>   1
Atom  30H    basis set group =>   2
Atom  31H    basis set group =>   2
Atom  32C    basis set group =>   1
Atom  33H    basis set group =>   2
Atom  34H    basis set group =>   2
Atom  35C    basis set group =>   1
Atom  36H    basis set group =>   2
Atom  37H    basis set group =>   2
Atom  38C    basis set group =>   1
Atom  39C    basis set group =>   1
Atom  40C    basis set group =>   1
Atom  41C    basis set group =>   1
Atom  42C    basis set group =>   1
Atom  43C    basis set group =>   1
Atom  44H    basis set group =>   2
Atom  45H    basis set group =>   2
Atom  46H    basis set group =>   2
Atom  47H    basis set group =>   2
Atom  48H    basis set group =>   2
----------------------------------
AUXILIARY/JK BASIS SET INFORMATION
----------------------------------
There are 2 groups of distinct atoms

 Group   1 Type C   : 14s11p10d2f contracted to 14s11p10d2f pattern {11111111111111/11111111111/1111111111/11}
 Group   2 Type H   : 9s2p1d contracted to 9s2p1d pattern {111111111/11/1}

Atom   0C    basis set group =>   1
Atom   1C    basis set group =>   1
Atom   2C    basis set group =>   1
Atom   3C    basis set group =>   1
Atom   4C    basis set group =>   1
Atom   5C    basis set group =>   1
Atom   6C    basis set group =>   1
Atom   7C    basis set group =>   1
Atom   8C    basis set group =>   1
Atom   9H    basis set group =>   2
Atom  10H    basis set group =>   2
Atom  11C    basis set group =>   1
Atom  12H    basis set group =>   2
Atom  13H    basis set group =>   2
Atom  14C    basis set group =>   1
Atom  15H    basis set group =>   2
Atom  16H    basis set group =>   2
Atom  17C    basis set group =>   1
Atom  18H    basis set group =>   2
Atom  19H    basis set group =>   2
Atom  20C    basis set group =>   1
Atom  21H    basis set group =>   2
Atom  22H    basis set group =>   2
Atom  23C    basis set group =>   1
Atom  24H    basis set group =>   2
Atom  25H    basis set group =>   2
Atom  26C    basis set group =>   1
Atom  27H    basis set group =>   2
Atom  28H    basis set group =>   2
Atom  29C    basis set group =>   1
Atom  30H    basis set group =>   2
Atom  31H    basis set group =>   2
Atom  32C    basis set group =>   1
Atom  33H    basis set group =>   2
Atom  34H    basis set group =>   2
Atom  35C    basis set group =>   1
Atom  36H    basis set group =>   2
Atom  37H    basis set group =>   2
Atom  38C    basis set group =>   1
Atom  39C    basis set group =>   1
Atom  40C    basis set group =>   1
Atom  41C    basis set group =>   1
Atom  42C    basis set group =>   1
Atom  43C    basis set group =>   1
Atom  44H    basis set group =>   2
Atom  45H    basis set group =>   2
Atom  46H    basis set group =>   2
Atom  47H    basis set group =>   2
Atom  48H    basis set group =>   2


           ************************************************************
           *        Program running with 16 parallel MPI-processes    *
           *              working on a common directory               *
           ************************************************************
------------------------------------------------------------------------------
                           ORCA GTO INTEGRAL CALCULATION
------------------------------------------------------------------------------

                         BASIS SET STATISTICS AND STARTUP INFO

 # of primitive gaussian shells          ...  653
 # of primitive gaussian functions       ...  991
 # of contracted shells                  ...  219
 # of contracted basis functions         ...  461
 Highest angular momentum                ...    2
 Maximum contraction depth               ...    8
 Integral package used                   ... LIBINT
 Integral threshhold            Thresh   ...  1.000e-10
 Primitive cut-off              TCut     ...  1.000e-11


------------------------------ INTEGRAL EVALUATION ----------------------------


 * One electron integrals 
 Pre-screening matrix                    ... done
 Shell pair data                         ... done (   0.009 sec)



           ************************************************************
           *        Program running with 16 parallel MPI-processes    *
           *              working on a common directory               *
           ************************************************************
-------------------------------------------------------------------------------
                                 ORCA SCF
-------------------------------------------------------------------------------

------------
SCF SETTINGS
------------
Hamiltonian:
 Density Functional     Method          .... DFT(GTOs)
 Exchange Functional    Exchange        .... B88
   X-Alpha parameter    XAlpha          ....  0.666667
   Becke's b parameter  XBeta           ....  0.004200
 Correlation Functional Correlation     .... LYP
 LDA part of GGA corr.  LDAOpt          .... VWN-5
 Gradients option       PostSCFGGA      .... off
 Hybrid DFT is turned on
   Fraction HF Exchange ScalHFX         ....  0.200000
   Scaling of DF-GGA-X  ScalDFX         ....  0.720000
   Scaling of DF-GGA-C  ScalDFC         ....  0.810000
   Scaling of DF-LDA-C  ScalLDAC        ....  1.000000
   Perturbative correction              ....  0.000000
   Density functional embedding theory  .... OFF
   NL short-range parameter             ....  4.800000


General Settings:
 Integral files         IntName         .... cc-pVDZ
 Hartree-Fock type      HFTyp           .... UHF
 Total Charge           Charge          ....    0
 Multiplicity           Mult            ....    2
 Number of Electrons    NEL             ....  169
 Basis Dimension        Dim             ....  461
 Nuclear Repulsion      ENuc            ....   1728.4009568823 Eh

Convergence Acceleration:
 DIIS                   CNVDIIS         .... on
   Start iteration      DIISMaxIt       ....    12
   Startup error        DIISStart       ....  0.200000
   # of expansion vecs  DIISMaxEq       ....     5
   Bias factor          DIISBfac        ....   1.050
   Max. coefficient     DIISMaxC        ....  10.000
 Newton-Raphson         CNVNR           .... off
 SOSCF                  CNVSOSCF        .... off
 Level Shifting         CNVShift        .... on
   Level shift para.    LevelShift      ....    0.2500
   Turn off err/grad.   ShiftErr        ....    0.0010
 Zerner damping         CNVZerner       .... off
 Static damping         CNVDamp         .... on
   Fraction old density DampFac         ....    0.7000
   Max. Damping (<1)    DampMax         ....    0.9800
   Min. Damping (>=0)   DampMin         ....    0.0000
   Turn off err/grad.   DampErr         ....    0.1000
 Fernandez-Rico         CNVRico         .... off

SCF Procedure:
 Maximum # iterations   MaxIter         ....   125
 SCF integral mode      SCFMode         .... Direct
   Integral package                     .... LIBINT
 Reset frequency        DirectResetFreq ....    20
 Integral Threshold     Thresh          ....  1.000e-10 Eh
 Primitive CutOff       TCut            ....  1.000e-11 Eh

Convergence Tolerance:
 Convergence Check Mode ConvCheckMode   .... Total+1el-Energy
 Convergence forced     ConvForced      .... 0
 Energy Change          TolE            ....  1.000e-06 Eh
 1-El. energy change                    ....  1.000e-03 Eh
 DIIS Error             TolErr          ....  1.000e-06


Diagonalization of the overlap matrix:
Smallest eigenvalue                        ... 5.178e-05
Time for diagonalization                   ...    0.044 sec
Threshold for overlap eigenvalues          ... 1.000e-08
Number of eigenvalues below threshold      ... 0
Time for construction of square roots      ...    0.045 sec
Total time needed                          ...    0.090 sec

-------------------
DFT GRID GENERATION
-------------------

General Integration Accuracy     IntAcc      ...  4.340
Radial Grid Type                 RadialGrid  ... Gauss-Chebyshev
Angular Grid (max. acc.)         AngularGrid ... Lebedev-110
Angular grid pruning method      GridPruning ... 3 (G Style)
Weight generation scheme         WeightScheme... Becke
Basis function cutoff            BFCut       ...    1.0000e-10
Integration weight cutoff        WCut        ...    1.0000e-14
Grids for H and He will be reduced by one unit

# of grid points (after initial pruning)     ...  59594 (   0.0 sec)
# of grid points (after weights+screening)   ...  53138 (   0.2 sec)
nearest neighbour list constructed           ...    0.0 sec
Grid point re-assignment to atoms done       ...    0.0 sec
Grid point division into batches done        ...    0.1 sec
Reduced shell lists constructed in    0.2 sec

Total number of grid points                  ...    53138
Total number of batches                      ...      856
Average number of points per batch           ...       62
Average number of grid points per atom       ...     1084
Average number of shells per batch           ...    73.02 (33.34%)
Average number of basis functions per batch  ...   145.13 (31.48%)
Average number of large shells per batch     ...    40.67 (55.70%)
Average number of large basis fcns per batch ...    85.04 (58.59%)
Maximum spatial batch extension              ...  16.57, 19.30, 17.61 au
Average spatial batch extension              ...   0.24,  0.27,  0.32 au

Time for grid setup =    0.410 sec

------------------------------
INITIAL GUESS: MODEL POTENTIAL
------------------------------
Loading Hartree-Fock densities                     ... done
Calculating cut-offs                               ... done
Setting up the integral package                    ... done
Initializing the effective Hamiltonian             ... done
Starting the Coulomb interaction                   ... done (   0.3 sec)
Reading the grid                                   ... done
Mapping shells                                     ... done
Starting the XC term evaluation                    ... done (   0.1 sec)
  promolecular density results
     # of electrons  =    169.029339321
     EX              =   -130.643412030
     EC              =     -5.563843805
     EX+EC           =   -136.207255834
Transforming the Hamiltonian                       ... done (   0.0 sec)
Diagonalizing the Hamiltonian                      ... done (   0.0 sec)
Back transforming the eigenvectors                 ... done (   0.0 sec)
Now organizing SCF variables                       ... done
                      ------------------
                      INITIAL GUESS DONE (   1.2 sec)
                      ------------------
--------------
SCF ITERATIONS
--------------
ITER       Energy         Delta-E        Max-DP      RMS-DP      [F,P]     Damp
               ***  Starting incremental Fock matrix formation  ***
  0   -928.2976561922   0.000000000000 0.05617579  0.00081459  0.1743657 0.7000
  1   -928.5393680089  -0.241711816652 0.05834834  0.00068351  0.0918075 0.7000
                               ***Turning on DIIS***
  2   -928.6481764431  -0.108808434247 0.11853772  0.00133517  0.0350218 0.0000
  3   -928.8004240400  -0.152247596851 0.07614254  0.00051710  0.0502496 0.0000
  4   -928.8424164890  -0.041992449026 0.03790092  0.00025458  0.0117010 0.0000
  5   -928.8456512344  -0.003234745378 0.01671126  0.00009577  0.0037843 0.0000
  6   -928.8462529739  -0.000601739513 0.00406290  0.00003029  0.0025378 0.0000
  7   -928.8465143278  -0.000261353880 0.00170049  0.00001925  0.0013627 0.0000
  8   -928.8466686516  -0.000154323818 0.00169184  0.00001633  0.0010773 0.0000
  9   -928.8467707925  -0.000102140958 0.00425307  0.00003559  0.0008392 0.0000
 10   -928.8469002189  -0.000129426358 0.00100305  0.00000651  0.0013846 0.0000
 11   -928.8469116461  -0.000011427237 0.00201160  0.00001339  0.0004897 0.0000
 12   -928.8469197096  -0.000008063423 0.00031537  0.00000312  0.0007096 0.0000
 13   -928.8469212807  -0.000001571115 0.00028667  0.00000215  0.0003112 0.0000
 14   -928.8469216150  -0.000000334376 0.00012366  0.00000107  0.0001964 0.0000
                 **** Energy Check signals convergence ****

               *****************************************************
               *                     SUCCESS                       *
               *           SCF CONVERGED AFTER  15 CYCLES          *
               *****************************************************

Setting up the final grid:

General Integration Accuracy     IntAcc      ...  4.670
Radial Grid Type                 RadialGrid  ... Gauss-Chebyshev
Angular Grid (max. acc.)         AngularGrid ... Lebedev-302
Angular grid pruning method      GridPruning ... 3 (G Style)
Weight generation scheme         WeightScheme... Becke
Basis function cutoff            BFCut       ...    1.0000e-10
Integration weight cutoff        WCut        ...    1.0000e-14
Grids for H and He will be reduced by one unit

# of grid points (after initial pruning)     ... 233938 (   0.0 sec)
# of grid points (after weights+screening)   ... 204839 (   0.6 sec)
nearest neighbour list constructed           ...    0.0 sec
Grid point re-assignment to atoms done       ...    0.0 sec
Grid point division into batches done        ...    0.8 sec
Reduced shell lists constructed in    1.0 sec

Total number of grid points                  ...   204839
Total number of batches                      ...     3225
Average number of points per batch           ...       63
Average number of grid points per atom       ...     4180
Average number of shells per batch           ...    65.68 (29.99%)
Average number of basis functions per batch  ...   131.21 (28.46%)
Average number of large shells per batch     ...    36.30 (55.26%)
Average number of large basis fcns per batch ...    76.42 (58.24%)
Maximum spatial batch extension              ...  17.07, 16.13, 17.32 au
Average spatial batch extension              ...   0.17,  0.18,  0.19 au

Final grid set up in    1.8 sec
Final integration                            ... done (   0.6 sec)
Change in XC energy                          ...     0.002906532
Integrated number of electrons               ...   169.000287469
Previous integrated no of electrons          ...   169.022639424

----------------
TOTAL SCF ENERGY
----------------

Total Energy       :         -928.84401526 Eh          -25275.13062 eV

Components:
Nuclear Repulsion  :         1728.40095688 Eh           47032.18111 eV
Electronic Energy  :        -2657.24497214 Eh          -72307.31172 eV
One Electron Energy:        -4684.03466665 Eh         -127459.06317 eV
Two Electron Energy:         2026.78969451 Eh           55151.75145 eV

Virial components:
Potential Energy   :        -1851.28932545 Eh          -50376.14362 eV
Kinetic Energy     :          922.44531019 Eh           25101.01300 eV
Virial Ratio       :            2.00693668


DFT components:
N(Alpha)           :       85.000144194802 electrons
N(Beta)            :       84.000143273921 electrons
N(Total)           :      169.000287468723 electrons
E(X)               :     -105.613143703010 Eh       
E(C)               :       -6.571840926763 Eh       
E(XC)              :     -112.184984629773 Eh       
DFET-embed. en.    :        0.000000000000 Eh       

---------------
SCF CONVERGENCE
---------------

  Last Energy change         ...   -1.7927e-07  Tolerance :   1.0000e-06
  Last MAX-Density change    ...    8.8032e-05  Tolerance :   1.0000e-05
  Last RMS-Density change    ...    1.0037e-06  Tolerance :   1.0000e-06
  Last DIIS Error            ...    7.4875e-05  Tolerance :   1.0000e-06

             **** THE GBW FILE WAS UPDATED (cc-pVDZ.gbw) ****
             **** DENSITY FILE WAS UPDATED (cc-pVDZ.scfp) ****
             **** ENERGY FILE WAS UPDATED (cc-pVDZ.en.tmp) ****
----------------------
UHF SPIN CONTAMINATION
----------------------

Warning: in a DFT calculation there is little theoretical justification to 
         calculate <S**2> as in Hartree-Fock theory. We will do it anyways
         but you should keep in mind that the values have only limited relevance

Expectation value of <S**2>     :     0.773806
Ideal value S*(S+1) for S=0.5   :     0.750000
Deviation                       :     0.023806

             **** THE GBW FILE WAS UPDATED (cc-pVDZ.gbw) ****
             **** DENSITY FILE WAS UPDATED (cc-pVDZ.scfp) ****
----------------
ORBITAL ENERGIES
----------------
                 SPIN UP ORBITALS
  NO   OCC          E(Eh)            E(eV) 
   0   1.0000     -10.243801      -278.7480 
   1   1.0000     -10.235613      -278.5252 
   2   1.0000     -10.229429      -278.3569 
   3   1.0000     -10.222999      -278.1820 
   4   1.0000     -10.219806      -278.0951 
   5   1.0000     -10.219291      -278.0810 
   6   1.0000     -10.217092      -278.0212 
   7   1.0000     -10.216891      -278.0157 
   8   1.0000     -10.215235      -277.9707 
   9   1.0000     -10.212553      -277.8977 
  10   1.0000     -10.212462      -277.8952 
  11   1.0000     -10.212447      -277.8948 
  12   1.0000     -10.210668      -277.8464 
  13   1.0000     -10.209877      -277.8249 
  14   1.0000     -10.201541      -277.5980 
  15   1.0000     -10.193113      -277.3687 
  16   1.0000     -10.191439      -277.3232 
  17   1.0000     -10.189921      -277.2818 
  18   1.0000     -10.188180      -277.2345 
  19   1.0000     -10.184638      -277.1381 
  20   1.0000     -10.180997      -277.0390 
  21   1.0000     -10.178554      -276.9725 
  22   1.0000     -10.170706      -276.7590 
  23   1.0000     -10.168682      -276.7039 
  24   1.0000      -0.892962       -24.2987 
  25   1.0000      -0.882880       -24.0244 
  26   1.0000      -0.833181       -22.6720 
  27   1.0000      -0.814740       -22.1702 
  28   1.0000      -0.802568       -21.8390 
  29   1.0000      -0.796104       -21.6631 
  30   1.0000      -0.777495       -21.1567 
  31   1.0000      -0.769811       -20.9476 
  32   1.0000      -0.753158       -20.4945 
  33   1.0000      -0.739094       -20.1118 
  34   1.0000      -0.717948       -19.5364 
  35   1.0000      -0.706882       -19.2352 
  36   1.0000      -0.663148       -18.0452 
  37   1.0000      -0.657150       -17.8820 
  38   1.0000      -0.632562       -17.2129 
  39   1.0000      -0.630041       -17.1443 
  40   1.0000      -0.627433       -17.0733 
  41   1.0000      -0.601862       -16.3775 
  42   1.0000      -0.586220       -15.9519 
  43   1.0000      -0.573042       -15.5933 
  44   1.0000      -0.557528       -15.1711 
  45   1.0000      -0.524926       -14.2840 
  46   1.0000      -0.522193       -14.2096 
  47   1.0000      -0.498038       -13.5523 
  48   1.0000      -0.492834       -13.4107 
  49   1.0000      -0.480954       -13.0874 
  50   1.0000      -0.476608       -12.9692 
  51   1.0000      -0.475736       -12.9454 
  52   1.0000      -0.453724       -12.3465 
  53   1.0000      -0.445430       -12.1208 
  54   1.0000      -0.442519       -12.0416 
  55   1.0000      -0.435420       -11.8484 
  56   1.0000      -0.434988       -11.8366 
  57   1.0000      -0.430232       -11.7072 
  58   1.0000      -0.424124       -11.5410 
  59   1.0000      -0.418605       -11.3908 
  60   1.0000      -0.409891       -11.1537 
  61   1.0000      -0.403717       -10.9857 
  62   1.0000      -0.391186       -10.6447 
  63   1.0000      -0.382378       -10.4050 
  64   1.0000      -0.378855       -10.3092 
  65   1.0000      -0.374510       -10.1909 
  66   1.0000      -0.369276       -10.0485 
  67   1.0000      -0.367184        -9.9916 
  68   1.0000      -0.366985        -9.9862 
  69   1.0000      -0.354003        -9.6329 
  70   1.0000      -0.344108        -9.3637 
  71   1.0000      -0.341535        -9.2936 
  72   1.0000      -0.336478        -9.1560 
  73   1.0000      -0.332901        -9.0587 
  74   1.0000      -0.331048        -9.0083 
  75   1.0000      -0.330421        -8.9912 
  76   1.0000      -0.326706        -8.8901 
  77   1.0000      -0.310947        -8.4613 
  78   1.0000      -0.291484        -7.9317 
  79   1.0000      -0.277548        -7.5525 
  80   1.0000      -0.265881        -7.2350 
  81   1.0000      -0.262449        -7.1416 
  82   1.0000      -0.243518        -6.6265 
  83   1.0000      -0.242608        -6.6017 
  84   1.0000      -0.218448        -5.9443 
  85   0.0000      -0.080328        -2.1858 
  86   0.0000      -0.028811        -0.7840 
  87   0.0000      -0.028537        -0.7765 
  88   0.0000      -0.019158        -0.5213 
  89   0.0000       0.023128         0.6293 
  90   0.0000       0.039774         1.0823 
  91   0.0000       0.050701         1.3797 
  92   0.0000       0.053289         1.4501 
  93   0.0000       0.055982         1.5233 
  94   0.0000       0.067347         1.8326 
  95   0.0000       0.069741         1.8978 
  96   0.0000       0.076831         2.0907 
  97   0.0000       0.086341         2.3495 
  98   0.0000       0.086457         2.3526 
  99   0.0000       0.088221         2.4006 
 100   0.0000       0.090399         2.4599 
 101   0.0000       0.090717         2.4685 
 102   0.0000       0.101917         2.7733 
 103   0.0000       0.104765         2.8508 
 104   0.0000       0.118748         3.2313 
 105   0.0000       0.122783         3.3411 
 106   0.0000       0.127376         3.4661 
 107   0.0000       0.132556         3.6070 
 108   0.0000       0.141586         3.8527 
 109   0.0000       0.144382         3.9288 
 110   0.0000       0.144450         3.9307 
 111   0.0000       0.145772         3.9667 
 112   0.0000       0.151903         4.1335 
 113   0.0000       0.152509         4.1500 
 114   0.0000       0.156631         4.2622 
 115   0.0000       0.158670         4.3176 
 116   0.0000       0.167021         4.5449 
 117   0.0000       0.168675         4.5899 
 118   0.0000       0.179033         4.8717 
 119   0.0000       0.189861         5.1664 
 120   0.0000       0.191246         5.2041 
 121   0.0000       0.198655         5.4057 
 122   0.0000       0.205008         5.5785 
 123   0.0000       0.209120         5.6905 
 124   0.0000       0.212248         5.7756 
 125   0.0000       0.230563         6.2739 
 126   0.0000       0.234644         6.3850 
 127   0.0000       0.253154         6.8887 
 128   0.0000       0.259901         7.0723 
 129   0.0000       0.262318         7.1380 
 130   0.0000       0.268653         7.3104 
 131   0.0000       0.276748         7.5307 
 132   0.0000       0.289084         7.8664 
 133   0.0000       0.295791         8.0489 
 134   0.0000       0.311315         8.4713 
 135   0.0000       0.324237         8.8229 
 136   0.0000       0.347058         9.4439 
 137   0.0000       0.352471         9.5912 
 138   0.0000       0.359557         9.7841 
 139   0.0000       0.364729         9.9248 
 140   0.0000       0.386766        10.5244 
 141   0.0000       0.394984        10.7481 
 142   0.0000       0.402860        10.9624 
 143   0.0000       0.403245        10.9729 
 144   0.0000       0.405946        11.0464 
 145   0.0000       0.409305        11.1378 
 146   0.0000       0.413085        11.2406 
 147   0.0000       0.416906        11.3446 
 148   0.0000       0.420571        11.4443 
 149   0.0000       0.432036        11.7563 
 150   0.0000       0.432325        11.7642 
 151   0.0000       0.438257        11.9256 
 152   0.0000       0.450627        12.2622 
 153   0.0000       0.451275        12.2798 
 154   0.0000       0.457075        12.4376 
 155   0.0000       0.465498        12.6669 
 156   0.0000       0.466673        12.6988 
 157   0.0000       0.466833        12.7032 
 158   0.0000       0.477323        12.9886 
 159   0.0000       0.485423        13.2090 
 160   0.0000       0.487406        13.2630 
 161   0.0000       0.491639        13.3782 
 162   0.0000       0.491979        13.3874 
 163   0.0000       0.493258        13.4222 
 164   0.0000       0.497427        13.5357 
 165   0.0000       0.500500        13.6193 
 166   0.0000       0.503876        13.7112 
 167   0.0000       0.504118        13.7178 
 168   0.0000       0.508926        13.8486 
 169   0.0000       0.519332        14.1317 
 170   0.0000       0.527116        14.3435 
 171   0.0000       0.537349        14.6220 
 172   0.0000       0.537619        14.6293 
 173   0.0000       0.562984        15.3196 
 174   0.0000       0.565089        15.3768 
 175   0.0000       0.566003        15.4017 
 176   0.0000       0.567949        15.4547 
 177   0.0000       0.579477        15.7684 
 178   0.0000       0.579589        15.7714 
 179   0.0000       0.585732        15.9386 
 180   0.0000       0.596775        16.2391 
 181   0.0000       0.600760        16.3475 
 182   0.0000       0.609293        16.5797 
 183   0.0000       0.611790        16.6476 
 184   0.0000       0.614241        16.7144 
 185   0.0000       0.617690        16.8082 
 186   0.0000       0.623336        16.9618 
 187   0.0000       0.626943        17.0600 
 188   0.0000       0.628998        17.1159 
 189   0.0000       0.634085        17.2543 
 190   0.0000       0.637467        17.3464 
 191   0.0000       0.642553        17.4847 
 192   0.0000       0.645988        17.5782 
 193   0.0000       0.650051        17.6888 
 194   0.0000       0.651279        17.7222 
 195   0.0000       0.654119        17.7995 
 196   0.0000       0.654584        17.8121 
 197   0.0000       0.656029        17.8515 
 198   0.0000       0.657965        17.9041 
 199   0.0000       0.661441        17.9987 
 200   0.0000       0.665770        18.1165 
 201   0.0000       0.668537        18.1918 
 202   0.0000       0.669217        18.2103 
 203   0.0000       0.669989        18.2313 
 204   0.0000       0.677518        18.4362 
 205   0.0000       0.679662        18.4945 
 206   0.0000       0.684624        18.6296 
 207   0.0000       0.686795        18.6886 
 208   0.0000       0.690952        18.8018 
 209   0.0000       0.696613        18.9558 
 210   0.0000       0.702990        19.1293 
 211   0.0000       0.705268        19.1913 
 212   0.0000       0.710376        19.3303 
 213   0.0000       0.725735        19.7483 
 214   0.0000       0.730133        19.8679 
 215   0.0000       0.732614        19.9354 
 216   0.0000       0.735798        20.0221 
 217   0.0000       0.747667        20.3451 
 218   0.0000       0.753541        20.5049 
 219   0.0000       0.759671        20.6717 
 220   0.0000       0.771226        20.9861 
 221   0.0000       0.776912        21.1408 
 222   0.0000       0.787955        21.4414 
 223   0.0000       0.809002        22.0141 
 224   0.0000       0.817862        22.2552 
 225   0.0000       0.822407        22.3788 
 226   0.0000       0.831007        22.6128 
 227   0.0000       0.835231        22.7278 
 228   0.0000       0.837713        22.7953 
 229   0.0000       0.849210        23.1082 
 230   0.0000       0.861334        23.4381 
 231   0.0000       0.863672        23.5017 
 232   0.0000       0.869526        23.6610 
 233   0.0000       0.881704        23.9924 
 234   0.0000       0.891754        24.2659 
 235   0.0000       0.896357        24.3911 
 236   0.0000       0.900416        24.5016 
 237   0.0000       0.921611        25.0783 
 238   0.0000       0.923429        25.1278 
 239   0.0000       0.930317        25.3152 
 240   0.0000       0.948942        25.8220 
 241   0.0000       0.956567        26.0295 
 242   0.0000       0.963877        26.2284 
 243   0.0000       0.967638        26.3308 
 244   0.0000       0.977558        26.6007 
 245   0.0000       0.982941        26.7472 
 246   0.0000       0.984444        26.7881 
 247   0.0000       0.996388        27.1131 
 248   0.0000       1.008156        27.4333 
 249   0.0000       1.014993        27.6194 
 250   0.0000       1.023433        27.8490 
 251   0.0000       1.026315        27.9274 
 252   0.0000       1.030361        28.0375 
 253   0.0000       1.036656        28.2088 
 254   0.0000       1.040129        28.3034 
 255   0.0000       1.054622        28.6977 
 256   0.0000       1.072387        29.1811 
 257   0.0000       1.075865        29.2758 
 258   0.0000       1.094426        29.7808 
 259   0.0000       1.097709        29.8702 
 260   0.0000       1.103560        30.0294 
 261   0.0000       1.131596        30.7923 
 262   0.0000       1.145179        31.1619 
 263   0.0000       1.156603        31.4728 
 264   0.0000       1.165197        31.7066 
 265   0.0000       1.175893        31.9977 
 266   0.0000       1.184077        32.2204 
 267   0.0000       1.197806        32.5939 
 268   0.0000       1.198395        32.6100 
 269   0.0000       1.199597        32.6427 
 270   0.0000       1.206185        32.8220 
 271   0.0000       1.212147        32.9842 
 272   0.0000       1.212682        32.9988 
 273   0.0000       1.213480        33.0205 
 274   0.0000       1.217020        33.1168 
 275   0.0000       1.220641        33.2153 
 276   0.0000       1.245237        33.8846 
 277   0.0000       1.266817        34.4718 
 278   0.0000       1.275381        34.7049 
 279   0.0000       1.292465        35.1698 
 280   0.0000       1.295617        35.2555 
 281   0.0000       1.304027        35.4844 
 282   0.0000       1.317728        35.8572 
 283   0.0000       1.321867        35.9698 
 284   0.0000       1.336666        36.3725 
 285   0.0000       1.352247        36.7965 
 286   0.0000       1.365792        37.1651 
 287   0.0000       1.370679        37.2981 
 288   0.0000       1.372951        37.3599 
 289   0.0000       1.383719        37.6529 
 290   0.0000       1.399376        38.0790 
 291   0.0000       1.402498        38.1639 
 292   0.0000       1.417617        38.5753 
 293   0.0000       1.421543        38.6821 
 294   0.0000       1.423440        38.7338 
 295   0.0000       1.423745        38.7421 
 296   0.0000       1.454370        39.5754 
 297   0.0000       1.456912        39.6446 
 298   0.0000       1.458574        39.6898 
 299   0.0000       1.461060        39.7575 
 300   0.0000       1.467864        39.9426 
 301   0.0000       1.468899        39.9708 
 302   0.0000       1.478206        40.2240 
 303   0.0000       1.490676        40.5634 
 304   0.0000       1.491309        40.5806 
 305   0.0000       1.502513        40.8855 
 306   0.0000       1.514826        41.2205 
 307   0.0000       1.516543        41.2672 
 308   0.0000       1.531477        41.6736 
 309   0.0000       1.555907        42.3384 
 310   0.0000       1.559729        42.4424 
 311   0.0000       1.562297        42.5123 
 312   0.0000       1.564548        42.5735 
 313   0.0000       1.579458        42.9792 
 314   0.0000       1.585027        43.1308 
 315   0.0000       1.589981        43.2656 
 316   0.0000       1.596354        43.4390 
 317   0.0000       1.612125        43.8681 
 318   0.0000       1.614987        43.9460 
 319   0.0000       1.616038        43.9746 
 320   0.0000       1.616722        43.9932 
 321   0.0000       1.622024        44.1375 
 322   0.0000       1.625096        44.2211 
 323   0.0000       1.627205        44.2785 
 324   0.0000       1.628394        44.3108 
 325   0.0000       1.628970        44.3265 
 326   0.0000       1.635454        44.5030 
 327   0.0000       1.639425        44.6110 
 328   0.0000       1.641413        44.6651 
 329   0.0000       1.644705        44.7547 
 330   0.0000       1.656288        45.0699 
 331   0.0000       1.662508        45.2391 
 332   0.0000       1.664978        45.3064 
 333   0.0000       1.667151        45.3655 
 334   0.0000       1.677786        45.6549 
 335   0.0000       1.678601        45.6771 
 336   0.0000       1.683427        45.8084 
 337   0.0000       1.685927        45.8764 
 338   0.0000       1.687910        45.9304 
 339   0.0000       1.689868        45.9837 
 340   0.0000       1.697545        46.1925 
 341   0.0000       1.701923        46.3117 
 342   0.0000       1.707744        46.4701 
 343   0.0000       1.715666        46.6856 
 344   0.0000       1.718114        46.7522 
 345   0.0000       1.721121        46.8341 
 346   0.0000       1.726782        46.9881 
 347   0.0000       1.727902        47.0186 
 348   0.0000       1.742125        47.4056 
 349   0.0000       1.752271        47.6817 
 350   0.0000       1.754493        47.7422 
 351   0.0000       1.758834        47.8603 
 352   0.0000       1.765523        48.0423 
 353   0.0000       1.773707        48.2650 
 354   0.0000       1.775160        48.3046 
 355   0.0000       1.779389        48.4196 
 356   0.0000       1.788097        48.6566 
 357   0.0000       1.790257        48.7154 
 358   0.0000       1.793384        48.8005 
 359   0.0000       1.811328        49.2887 
 360   0.0000       1.812282        49.3147 
 361   0.0000       1.818632        49.4875 
 362   0.0000       1.821355        49.5616 
 363   0.0000       1.826145        49.6919 
 364   0.0000       1.831007        49.8242 
 365   0.0000       1.835853        49.9561 
 366   0.0000       1.844290        50.1857 
 367   0.0000       1.844997        50.2049 
 368   0.0000       1.845663        50.2231 
 369   0.0000       1.874246        51.0008 
 370   0.0000       1.892961        51.5101 
 371   0.0000       1.899834        51.6971 
 372   0.0000       1.900815        51.7238 
 373   0.0000       1.917535        52.1788 
 374   0.0000       1.918984        52.2182 
 375   0.0000       1.920844        52.2688 
 376   0.0000       1.929687        52.5094 
 377   0.0000       1.949171        53.0396 
 378   0.0000       1.953080        53.1460 
 379   0.0000       1.955844        53.2212 
 380   0.0000       1.962243        53.3953 
 381   0.0000       1.965671        53.4886 
 382   0.0000       1.976123        53.7730 
 383   0.0000       1.977928        53.8222 
 384   0.0000       1.991438        54.1898 
 385   0.0000       2.003753        54.5249 
 386   0.0000       2.015675        54.8493 
 387   0.0000       2.032292        55.3015 
 388   0.0000       2.053115        55.8681 
 389   0.0000       2.059197        56.0336 
 390   0.0000       2.075536        56.4782 
 391   0.0000       2.083833        56.7040 
 392   0.0000       2.084068        56.7104 
 393   0.0000       2.100298        57.1520 
 394   0.0000       2.105144        57.2839 
 395   0.0000       2.150997        58.5316 
 396   0.0000       2.161577        58.8195 
 397   0.0000       2.168390        59.0049 
 398   0.0000       2.169363        59.0314 
 399   0.0000       2.176622        59.2289 
 400   0.0000       2.186793        59.5057 
 401   0.0000       2.193925        59.6997 
 402   0.0000       2.195005        59.7291 
 403   0.0000       2.207533        60.0700 
 404   0.0000       2.213459        60.2313 
 405   0.0000       2.217557        60.3428 
 406   0.0000       2.225084        60.5476 
 407   0.0000       2.251405        61.2639 
 408   0.0000       2.266175        61.6658 
 409   0.0000       2.270024        61.7705 
 410   0.0000       2.282750        62.1168 
 411   0.0000       2.293744        62.4160 
 412   0.0000       2.294093        62.4255 
 413   0.0000       2.310157        62.8626 
 414   0.0000       2.316074        63.0236 
 415   0.0000       2.323937        63.2375 
 416   0.0000       2.331649        63.4474 
 417   0.0000       2.332848        63.4800 
 418   0.0000       2.348222        63.8984 
 419   0.0000       2.368933        64.4620 
 420   0.0000       2.389515        65.0220 
 421   0.0000       2.400287        65.3151 
 422   0.0000       2.403294        65.3969 
 423   0.0000       2.404892        65.4404 
 424   0.0000       2.407352        65.5074 
 425   0.0000       2.409948        65.5780 
 426   0.0000       2.411687        65.6254 
 427   0.0000       2.416414        65.7540 
 428   0.0000       2.420008        65.8518 
 429   0.0000       2.432050        66.1794 
 430   0.0000       2.477755        67.4231 
 431   0.0000       2.479177        67.4618 
 432   0.0000       2.500904        68.0531 
 433   0.0000       2.509344        68.2827 
 434   0.0000       2.528937        68.8159 
 435   0.0000       2.531066        68.8738 
 436   0.0000       2.549398        69.3726 
 437   0.0000       2.573208        70.0205 
 438   0.0000       2.581768        70.2535 
 439   0.0000       2.598610        70.7118 
 440   0.0000       2.607673        70.9584 
 441   0.0000       2.614458        71.1430 
 442   0.0000       2.616511        71.1989 
 443   0.0000       2.685791        73.0841 
 444   0.0000       2.701179        73.5028 
 445   0.0000       2.703237        73.5588 
 446   0.0000       2.705729        73.6266 
 447   0.0000       2.708658        73.7063 
 448   0.0000       2.711920        73.7951 
 449   0.0000       2.719704        74.0069 
 450   0.0000       2.734672        74.4142 
 451   0.0000       2.763509        75.1989 
 452   0.0000       2.813947        76.5714 
 453   0.0000       2.831617        77.0522 
 454   0.0000       2.838758        77.2465 
 455   0.0000       2.853937        77.6596 
 456   0.0000       2.866300        77.9960 
 457   0.0000       3.054658        83.1215 
 458   0.0000       3.073967        83.6469 
 459   0.0000       3.342268        90.9477 
 460   0.0000       3.566435        97.0476 

                 SPIN DOWN ORBITALS
  NO   OCC          E(Eh)            E(eV) 
   0   1.0000     -10.240694      -278.6635 
   1   1.0000     -10.236092      -278.5382 
   2   1.0000     -10.229871      -278.3689 
   3   1.0000     -10.220908      -278.1250 
   4   1.0000     -10.220817      -278.1226 
   5   1.0000     -10.217251      -278.0255 
   6   1.0000     -10.216487      -278.0047 
   7   1.0000     -10.216286      -277.9993 
   8   1.0000     -10.214589      -277.9531 
   9   1.0000     -10.213392      -277.9205 
  10   1.0000     -10.212850      -277.9058 
  11   1.0000     -10.212736      -277.9027 
  12   1.0000     -10.211037      -277.8565 
  13   1.0000     -10.208976      -277.8004 
  14   1.0000     -10.201490      -277.5966 
  15   1.0000     -10.193254      -277.3725 
  16   1.0000     -10.191443      -277.3233 
  17   1.0000     -10.189922      -277.2819 
  18   1.0000     -10.188183      -277.2345 
  19   1.0000     -10.184639      -277.1381 
  20   1.0000     -10.180997      -277.0390 
  21   1.0000     -10.178555      -276.9725 
  22   1.0000     -10.166765      -276.6517 
  23   1.0000     -10.164322      -276.5853 
  24   1.0000      -0.890013       -24.2185 
  25   1.0000      -0.882047       -24.0017 
  26   1.0000      -0.830927       -22.6107 
  27   1.0000      -0.813023       -22.1235 
  28   1.0000      -0.802072       -21.8255 
  29   1.0000      -0.793409       -21.5898 
  30   1.0000      -0.776993       -21.1430 
  31   1.0000      -0.769273       -20.9330 
  32   1.0000      -0.749880       -20.4053 
  33   1.0000      -0.738124       -20.0854 
  34   1.0000      -0.711336       -19.3564 
  35   1.0000      -0.698386       -19.0041 
  36   1.0000      -0.662415       -18.0252 
  37   1.0000      -0.652040       -17.7429 
  38   1.0000      -0.629654       -17.1338 
  39   1.0000      -0.629417       -17.1273 
  40   1.0000      -0.627016       -17.0620 
  41   1.0000      -0.600559       -16.3420 
  42   1.0000      -0.586090       -15.9483 
  43   1.0000      -0.572486       -15.5781 
  44   1.0000      -0.556836       -15.1523 
  45   1.0000      -0.523455       -14.2439 
  46   1.0000      -0.519909       -14.1475 
  47   1.0000      -0.497126       -13.5275 
  48   1.0000      -0.491805       -13.3827 
  49   1.0000      -0.480871       -13.0852 
  50   1.0000      -0.476264       -12.9598 
  51   1.0000      -0.475106       -12.9283 
  52   1.0000      -0.453376       -12.3370 
  53   1.0000      -0.444734       -12.1018 
  54   1.0000      -0.442370       -12.0375 
  55   1.0000      -0.434721       -11.8294 
  56   1.0000      -0.432931       -11.7806 
  57   1.0000      -0.430093       -11.7034 
  58   1.0000      -0.422856       -11.5065 
  59   1.0000      -0.418420       -11.3858 
  60   1.0000      -0.409262       -11.1366 
  61   1.0000      -0.400706       -10.9038 
  62   1.0000      -0.386774       -10.5247 
  63   1.0000      -0.381793       -10.3891 
  64   1.0000      -0.378403       -10.2969 
  65   1.0000      -0.374428       -10.1887 
  66   1.0000      -0.368952       -10.0397 
  67   1.0000      -0.366471        -9.9722 
  68   1.0000      -0.364867        -9.9285 
  69   1.0000      -0.351735        -9.5712 
  70   1.0000      -0.341428        -9.2907 
  71   1.0000      -0.336834        -9.1657 
  72   1.0000      -0.336458        -9.1555 
  73   1.0000      -0.332811        -9.0563 
  74   1.0000      -0.330825        -9.0022 
  75   1.0000      -0.330043        -8.9809 
  76   1.0000      -0.326210        -8.8766 
  77   1.0000      -0.297184        -8.0868 
  78   1.0000      -0.290592        -7.9074 
  79   1.0000      -0.276050        -7.5117 
  80   1.0000      -0.261604        -7.1186 
  81   1.0000      -0.244637        -6.6569 
  82   1.0000      -0.236124        -6.4253 
  83   1.0000      -0.234250        -6.3743 
  84   0.0000      -0.153111        -4.1664 
  85   0.0000      -0.069326        -1.8865 
  86   0.0000      -0.027053        -0.7361 
  87   0.0000      -0.018117        -0.4930 
  88   0.0000      -0.012601        -0.3429 
  89   0.0000       0.023551         0.6408 
  90   0.0000       0.039958         1.0873 
  91   0.0000       0.053341         1.4515 
  92   0.0000       0.056328         1.5328 
  93   0.0000       0.061696         1.6788 
  94   0.0000       0.068751         1.8708 
  95   0.0000       0.071185         1.9370 
  96   0.0000       0.077985         2.1221 
  97   0.0000       0.086651         2.3579 
  98   0.0000       0.087422         2.3789 
  99   0.0000       0.088551         2.4096 
 100   0.0000       0.090722         2.4687 
 101   0.0000       0.091027         2.4770 
 102   0.0000       0.102152         2.7797 
 103   0.0000       0.116097         3.1592 
 104   0.0000       0.118990         3.2379 
 105   0.0000       0.123053         3.3484 
 106   0.0000       0.127560         3.4711 
 107   0.0000       0.132679         3.6104 
 108   0.0000       0.144632         3.9356 
 109   0.0000       0.144667         3.9366 
 110   0.0000       0.145884         3.9697 
 111   0.0000       0.147400         4.0110 
 112   0.0000       0.152567         4.1516 
 113   0.0000       0.152840         4.1590 
 114   0.0000       0.157293         4.2802 
 115   0.0000       0.160549         4.3687 
 116   0.0000       0.168726         4.5913 
 117   0.0000       0.168768         4.5924 
 118   0.0000       0.182909         4.9772 
 119   0.0000       0.191393         5.2081 
 120   0.0000       0.199280         5.4227 
 121   0.0000       0.200299         5.4504 
 122   0.0000       0.205817         5.6006 
 123   0.0000       0.209246         5.6939 
 124   0.0000       0.212805         5.7907 
 125   0.0000       0.230711         6.2780 
 126   0.0000       0.234737         6.3875 
 127   0.0000       0.254009         6.9119 
 128   0.0000       0.261873         7.1259 
 129   0.0000       0.262471         7.1422 
 130   0.0000       0.269381         7.3302 
 131   0.0000       0.277755         7.5581 
 132   0.0000       0.290890         7.9155 
 133   0.0000       0.296439         8.0665 
 134   0.0000       0.315108         8.5745 
 135   0.0000       0.324785         8.8378 
 136   0.0000       0.348874         9.4933 
 137   0.0000       0.353570         9.6211 
 138   0.0000       0.360657         9.8140 
 139   0.0000       0.365908         9.9569 
 140   0.0000       0.388262        10.5652 
 141   0.0000       0.395620        10.7654 
 142   0.0000       0.403326        10.9751 
 143   0.0000       0.405212        11.0264 
 144   0.0000       0.406233        11.0542 
 145   0.0000       0.409509        11.1433 
 146   0.0000       0.413149        11.2424 
 147   0.0000       0.418036        11.3753 
 148   0.0000       0.421395        11.4667 
 149   0.0000       0.433205        11.7881 
 150   0.0000       0.434621        11.8266 
 151   0.0000       0.438796        11.9402 
 152   0.0000       0.452095        12.3021 
 153   0.0000       0.453344        12.3361 
 154   0.0000       0.457469        12.4484 
 155   0.0000       0.466891        12.7048 
 156   0.0000       0.467232        12.7140 
 157   0.0000       0.472115        12.8469 
 158   0.0000       0.477923        13.0050 
 159   0.0000       0.486233        13.2311 
 160   0.0000       0.488273        13.2866 
 161   0.0000       0.492155        13.3922 
 162   0.0000       0.492592        13.4041 
 163   0.0000       0.497583        13.5399 
 164   0.0000       0.498915        13.5762 
 165   0.0000       0.501093        13.6354 
 166   0.0000       0.504567        13.7300 
 167   0.0000       0.507172        13.8008 
 168   0.0000       0.510988        13.9047 
 169   0.0000       0.521005        14.1773 
 170   0.0000       0.533494        14.5171 
 171   0.0000       0.538445        14.6518 
 172   0.0000       0.541136        14.7250 
 173   0.0000       0.563809        15.3420 
 174   0.0000       0.566011        15.4019 
 175   0.0000       0.568393        15.4668 
 176   0.0000       0.574987        15.6462 
 177   0.0000       0.581294        15.8178 
 178   0.0000       0.581881        15.8338 
 179   0.0000       0.586546        15.9607 
 180   0.0000       0.597892        16.2695 
 181   0.0000       0.603325        16.4173 
 182   0.0000       0.612755        16.6739 
 183   0.0000       0.613265        16.6878 
 184   0.0000       0.614711        16.7271 
 185   0.0000       0.619456        16.8563 
 186   0.0000       0.623566        16.9681 
 187   0.0000       0.627695        17.0804 
 188   0.0000       0.629471        17.1288 
 189   0.0000       0.634630        17.2692 
 190   0.0000       0.637628        17.3507 
 191   0.0000       0.643295        17.5049 
 192   0.0000       0.647221        17.6118 
 193   0.0000       0.650166        17.6919 
 194   0.0000       0.652755        17.7624 
 195   0.0000       0.654305        17.8045 
 196   0.0000       0.656070        17.8526 
 197   0.0000       0.658037        17.9061 
 198   0.0000       0.660520        17.9737 
 199   0.0000       0.661499        18.0003 
 200   0.0000       0.666583        18.1387 
 201   0.0000       0.669094        18.2070 
 202   0.0000       0.670324        18.2405 
 203   0.0000       0.670590        18.2477 
 204   0.0000       0.678464        18.4620 
 205   0.0000       0.680068        18.5056 
 206   0.0000       0.685108        18.6427 
 207   0.0000       0.687930        18.7195 
 208   0.0000       0.691880        18.8270 
 209   0.0000       0.697073        18.9683 
 210   0.0000       0.703286        19.1374 
 211   0.0000       0.705874        19.2078 
 212   0.0000       0.710581        19.3359 
 213   0.0000       0.727348        19.7922 
 214   0.0000       0.730687        19.8830 
 215   0.0000       0.733342        19.9552 
 216   0.0000       0.739527        20.1236 
 217   0.0000       0.749887        20.4055 
 218   0.0000       0.758587        20.6422 
 219   0.0000       0.760236        20.6871 
 220   0.0000       0.772483        21.0203 
 221   0.0000       0.778159        21.1748 
 222   0.0000       0.788494        21.4560 
 223   0.0000       0.810708        22.0605 
 224   0.0000       0.820916        22.3382 
 225   0.0000       0.822987        22.3946 
 226   0.0000       0.832248        22.6466 
 227   0.0000       0.836719        22.7683 
 228   0.0000       0.838075        22.8052 
 229   0.0000       0.849497        23.1160 
 230   0.0000       0.863441        23.4954 
 231   0.0000       0.864669        23.5288 
 232   0.0000       0.872248        23.7351 
 233   0.0000       0.882960        24.0266 
 234   0.0000       0.892315        24.2811 
 235   0.0000       0.897988        24.4355 
 236   0.0000       0.902935        24.5701 
 237   0.0000       0.923038        25.1172 
 238   0.0000       0.923695        25.1350 
 239   0.0000       0.932407        25.3721 
 240   0.0000       0.951057        25.8796 
 241   0.0000       0.959132        26.0993 
 242   0.0000       0.964909        26.2565 
 243   0.0000       0.969064        26.3696 
 244   0.0000       0.981069        26.6962 
 245   0.0000       0.986017        26.8309 
 246   0.0000       0.986379        26.8407 
 247   0.0000       0.998433        27.1687 
 248   0.0000       1.012372        27.5480 
 249   0.0000       1.015850        27.6427 
 250   0.0000       1.024470        27.8772 
 251   0.0000       1.029190        28.0057 
 252   0.0000       1.037086        28.2205 
 253   0.0000       1.038216        28.2513 
 254   0.0000       1.041428        28.3387 
 255   0.0000       1.055444        28.7201 
 256   0.0000       1.078705        29.3531 
 257   0.0000       1.079167        29.3656 
 258   0.0000       1.098477        29.8911 
 259   0.0000       1.104502        30.0550 
 260   0.0000       1.107985        30.1498 
 261   0.0000       1.131704        30.7952 
 262   0.0000       1.152434        31.3593 
 263   0.0000       1.157079        31.4857 
 264   0.0000       1.167741        31.7759 
 265   0.0000       1.177783        32.0491 
 266   0.0000       1.185435        32.2573 
 267   0.0000       1.198741        32.6194 
 268   0.0000       1.200168        32.6582 
 269   0.0000       1.204610        32.7791 
 270   0.0000       1.206486        32.8301 
 271   0.0000       1.212310        32.9886 
 272   0.0000       1.213985        33.0342 
 273   0.0000       1.216680        33.1076 
 274   0.0000       1.217199        33.1217 
 275   0.0000       1.221317        33.2337 
 276   0.0000       1.246853        33.9286 
 277   0.0000       1.268351        34.5136 
 278   0.0000       1.276184        34.7267 
 279   0.0000       1.293933        35.2097 
 280   0.0000       1.298481        35.3335 
 281   0.0000       1.305625        35.5279 
 282   0.0000       1.318614        35.8813 
 283   0.0000       1.322557        35.9886 
 284   0.0000       1.337846        36.4046 
 285   0.0000       1.353129        36.8205 
 286   0.0000       1.368590        37.2412 
 287   0.0000       1.373092        37.3637 
 288   0.0000       1.381438        37.5908 
 289   0.0000       1.386115        37.7181 
 290   0.0000       1.401671        38.1414 
 291   0.0000       1.413566        38.4651 
 292   0.0000       1.421533        38.6819 
 293   0.0000       1.423296        38.7298 
 294   0.0000       1.424307        38.7574 
 295   0.0000       1.424474        38.7619 
 296   0.0000       1.454907        39.5900 
 297   0.0000       1.458324        39.6830 
 298   0.0000       1.459643        39.7189 
 299   0.0000       1.462875        39.8069 
 300   0.0000       1.468735        39.9663 
 301   0.0000       1.469973        40.0000 
 302   0.0000       1.481391        40.3107 
 303   0.0000       1.491686        40.5908 
 304   0.0000       1.495368        40.6910 
 305   0.0000       1.503007        40.8989 
 306   0.0000       1.516809        41.2745 
 307   0.0000       1.518293        41.3149 
 308   0.0000       1.532494        41.7013 
 309   0.0000       1.560793        42.4713 
 310   0.0000       1.560933        42.4752 
 311   0.0000       1.564416        42.5699 
 312   0.0000       1.565770        42.6068 
 313   0.0000       1.579527        42.9811 
 314   0.0000       1.585852        43.1532 
 315   0.0000       1.591255        43.3003 
 316   0.0000       1.596797        43.4510 
 317   0.0000       1.613218        43.8979 
 318   0.0000       1.615608        43.9629 
 319   0.0000       1.616692        43.9924 
 320   0.0000       1.617179        44.0057 
 321   0.0000       1.622097        44.1395 
 322   0.0000       1.625314        44.2270 
 323   0.0000       1.627604        44.2894 
 324   0.0000       1.628882        44.3241 
 325   0.0000       1.629539        44.3420 
 326   0.0000       1.635717        44.5101 
 327   0.0000       1.639798        44.6212 
 328   0.0000       1.641414        44.6651 
 329   0.0000       1.644969        44.7619 
 330   0.0000       1.657675        45.1076 
 331   0.0000       1.662866        45.2489 
 332   0.0000       1.665370        45.3170 
 333   0.0000       1.667527        45.3757 
 334   0.0000       1.677984        45.6603 
 335   0.0000       1.679683        45.7065 
 336   0.0000       1.684039        45.8250 
 337   0.0000       1.686679        45.8969 
 338   0.0000       1.688023        45.9334 
 339   0.0000       1.690409        45.9984 
 340   0.0000       1.697621        46.1946 
 341   0.0000       1.703070        46.3429 
 342   0.0000       1.707853        46.4731 
 343   0.0000       1.716013        46.6951 
 344   0.0000       1.719607        46.7929 
 345   0.0000       1.721659        46.8487 
 346   0.0000       1.727414        47.0053 
 347   0.0000       1.728977        47.0478 
 348   0.0000       1.743142        47.4333 
 349   0.0000       1.752817        47.6966 
 350   0.0000       1.755178        47.7608 
 351   0.0000       1.759635        47.8821 
 352   0.0000       1.766161        48.0597 
 353   0.0000       1.775595        48.3164 
 354   0.0000       1.777215        48.3605 
 355   0.0000       1.780482        48.4494 
 356   0.0000       1.789711        48.7005 
 357   0.0000       1.790591        48.7244 
 358   0.0000       1.793981        48.8167 
 359   0.0000       1.812827        49.3295 
[...]
Convergence tolerance          ... 1.000e-06
Integral handling              ... Direct
Number of perturbations        ... 3
Number of operators            ... 2
Orbital ranges used for CP-SCF:
 Operator 0:  Orbitals   0... 84  to  85...460
 Operator 1:  Orbitals   0... 83  to  84...460
DFT calculation                         ... on
Variables per vector in CP-SCF ... 63628
Number of vectors sought       ... 3
     CP-SCF ITERATION   0: 
     CP-SCF ITERATION   1:      0.000000880720

Forming final perturbed densities           ... done
Transforming perturbed density to AO basis  ... done

Using FinalGrid as integration grid:         ... finished setting up the grid
Time for grid setup =    0.162 sec

 Raw HFC matrix (all values in MHz): 
 ------------------------------
                -0.0550               0.0999               0.0003
                 0.0998               0.1753               0.0009
                 0.0003               0.0009              -0.1394

 A(FC)          -0.0063              -0.0063              -0.0063
 A(SD)          -0.0858              -0.1331               0.2189
 A(ORB+DIA)     -0.0001              -0.0000               0.0001    A(PC) =  -0.0000
 A(ORB)         -0.0001              -0.0000               0.0001    A(PC) =   0.0000
 A(DIA)         -0.0000              -0.0000              -0.0000    A(PC) =  -0.0000
             ----------           ----------           ----------
 A(Tot)         -0.0922              -0.1394               0.2126    A(iso)=   -0.0063
 Orientation: 
  X           0.9368058            0.0000673            0.3498499
  Y          -0.3498488            0.0026953            0.9368023
  Z          -0.0008799           -0.9999964            0.0025485

Notes:  (1) The A matrix conforms to the "SAI" spin Hamiltonian convention.
        (2) Tensor is right-handed.

 -----------------------------------------------------------
 Nucleus  44H : A:ISTP=    1 I=  0.5 P=533.5514 MHz/au**3
                Q:ISTP=    2 I=  1.0 Q=  0.0029 barn     
 -----------------------------------------------------------
 Solving for nuclear perturbation:
Forming RHS of the CP-SCF equations         ... 
Using LibInt in CPSCF-CP

Calculating nucleus orbit integrals         ... done

------------------------------------------------------------------------------
                           ORCA CP-SCF CALCULATION
------------------------------------------------------------------------------

Input orbitals are from        ... cc-pVDZ.gbw
Input Perturbation             ... cc-pVDZ.pin.tmp
Wavefunction output            ... cc-pVDZ.pout.tmp
Perturbation mode              ... Imaginary perturbation
Solver                         ... POPLE
Max. number of iterations      ... 64
Convergence tolerance          ... 1.000e-06
Integral handling              ... Direct
Number of perturbations        ... 3
Number of operators            ... 2
Orbital ranges used for CP-SCF:
 Operator 0:  Orbitals   0... 84  to  85...460
 Operator 1:  Orbitals   0... 83  to  84...460
DFT calculation                         ... on
Variables per vector in CP-SCF ... 63628
Number of vectors sought       ... 3
     CP-SCF ITERATION   0: 
     CP-SCF ITERATION   1:      0.000002553677
     CP-SCF ITERATION   2:      0.000000930930

Forming final perturbed densities           ... done
Transforming perturbed density to AO basis  ... done

Using FinalGrid as integration grid:         ... finished setting up the grid
Time for grid setup =    0.151 sec

 Raw HFC matrix (all values in MHz): 
 ------------------------------
                -1.0215              -0.1353               0.0003
                -0.1354              -4.8906              -0.0084
                 0.0003              -0.0084              -3.1563

 A(FC)          -3.0232              -3.0232              -3.0232
 A(SD)           2.0066              -0.1333              -1.8733
 A(ORB+DIA)     -0.0002               0.0002               0.0011    A(PC) =   0.0004
 A(ORB)          0.0000               0.0000               0.0011    A(PC) =   0.0004
 A(DIA)         -0.0002               0.0002               0.0000    A(PC) =  -0.0000
             ----------           ----------           ----------
 A(Tot)         -1.0168              -3.1562              -4.8954    A(iso)=   -3.0228
 Orientation: 
  X           0.9993901            0.0004667            0.0349163
  Y          -0.0349182            0.0048267            0.9993785
  Z           0.0002979           -0.9999882            0.0048401

Notes:  (1) The A matrix conforms to the "SAI" spin Hamiltonian convention.
        (2) Tensor is right-handed.

 -----------------------------------------------------------
 Nucleus  45H : A:ISTP=    1 I=  0.5 P=533.5514 MHz/au**3
                Q:ISTP=    2 I=  1.0 Q=  0.0029 barn     
 -----------------------------------------------------------
 Solving for nuclear perturbation:
Forming RHS of the CP-SCF equations         ... 
Using LibInt in CPSCF-CP

Calculating nucleus orbit integrals         ... done

------------------------------------------------------------------------------
                           ORCA CP-SCF CALCULATION
------------------------------------------------------------------------------

Input orbitals are from        ... cc-pVDZ.gbw
Input Perturbation             ... cc-pVDZ.pin.tmp
Wavefunction output            ... cc-pVDZ.pout.tmp
Perturbation mode              ... Imaginary perturbation
Solver                         ... POPLE
Max. number of iterations      ... 64
Convergence tolerance          ... 1.000e-06
Integral handling              ... Direct
Number of perturbations        ... 3
Number of operators            ... 2
Orbital ranges used for CP-SCF:
 Operator 0:  Orbitals   0... 84  to  85...460
 Operator 1:  Orbitals   0... 83  to  84...460
DFT calculation                         ... on
Variables per vector in CP-SCF ... 63628
Number of vectors sought       ... 3
     CP-SCF ITERATION   0: 
     CP-SCF ITERATION   1:      0.000003026966
     CP-SCF ITERATION   2:      0.000000037568

Forming final perturbed densities           ... done
Transforming perturbed density to AO basis  ... done

Using FinalGrid as integration grid:         ... finished setting up the grid
Time for grid setup =    0.162 sec

 Raw HFC matrix (all values in MHz): 
 ------------------------------
                 1.6879              -0.3405              -0.0012
                -0.3405               1.0979               0.0017
                -0.0012               0.0017               0.7465

 A(FC)           1.1775               1.1775               1.1775
 A(SD)          -0.4309              -0.2354               0.6663
 A(ORB+DIA)     -0.0001               0.0003              -0.0004    A(PC) =  -0.0001
 A(ORB)         -0.0000               0.0003              -0.0004    A(PC) =  -0.0000
 A(DIA)         -0.0001              -0.0000              -0.0001    A(PC) =  -0.0001
             ----------           ----------           ----------
 A(Tot)          0.7465               0.9423               1.8434    A(iso)=    1.1774
 Orientation: 
  X          -0.0006017            0.4154699           -0.9096067
  Y          -0.0052956            0.9095928            0.4154670
  Z           0.9999858            0.0050669            0.0016528

Notes:  (1) The A matrix conforms to the "SAI" spin Hamiltonian convention.
        (2) Tensor is right-handed.

 -----------------------------------------------------------
 Nucleus  46H : A:ISTP=    1 I=  0.5 P=533.5514 MHz/au**3
                Q:ISTP=    2 I=  1.0 Q=  0.0029 barn     
 -----------------------------------------------------------
 Solving for nuclear perturbation:
Forming RHS of the CP-SCF equations         ... 
Using LibInt in CPSCF-CP

Calculating nucleus orbit integrals         ... done

------------------------------------------------------------------------------
                           ORCA CP-SCF CALCULATION
------------------------------------------------------------------------------

Input orbitals are from        ... cc-pVDZ.gbw
Input Perturbation             ... cc-pVDZ.pin.tmp
Wavefunction output            ... cc-pVDZ.pout.tmp
Perturbation mode              ... Imaginary perturbation
Solver                         ... POPLE
Max. number of iterations      ... 64
Convergence tolerance          ... 1.000e-06
Integral handling              ... Direct
Number of perturbations        ... 3
Number of operators            ... 2
Orbital ranges used for CP-SCF:
 Operator 0:  Orbitals   0... 84  to  85...460
 Operator 1:  Orbitals   0... 83  to  84...460
DFT calculation                         ... on
Variables per vector in CP-SCF ... 63628
Number of vectors sought       ... 3
     CP-SCF ITERATION   0: 
     CP-SCF ITERATION   1:      0.000004466124
     CP-SCF ITERATION   2:      0.000000191124

Forming final perturbed densities           ... done
Transforming perturbed density to AO basis  ... done

Using FinalGrid as integration grid:         ... finished setting up the grid
Time for grid setup =    0.178 sec

 Raw HFC matrix (all values in MHz): 
 ------------------------------
                -3.0829               0.7471               0.0037
                 0.7471              -1.6295               0.0067
                 0.0037               0.0067              -3.2642

 A(FC)          -2.6593              -2.6593              -2.6593
 A(SD)           1.3455              -0.6051              -0.7405
 A(ORB+DIA)     -0.0001               0.0001               0.0013    A(PC) =   0.0004
 A(ORB)          0.0001               0.0000               0.0013    A(PC) =   0.0005
 A(DIA)         -0.0003               0.0001              -0.0001    A(PC) =  -0.0001
             ----------           ----------           ----------
 A(Tot)         -1.3139              -3.2642              -3.3985    A(iso)=   -2.6588
 Orientation: 
  X          -0.3890562            0.0041905           -0.9212045
  Y          -0.9212057           -0.0060266            0.3890293
  Z          -0.0039215            0.9999731            0.0062050

Notes:  (1) The A matrix conforms to the "SAI" spin Hamiltonian convention.
        (2) Tensor is right-handed.

 -----------------------------------------------------------
 Nucleus  47H : A:ISTP=    1 I=  0.5 P=533.5514 MHz/au**3
                Q:ISTP=    2 I=  1.0 Q=  0.0029 barn     
 -----------------------------------------------------------
 Solving for nuclear perturbation:
Forming RHS of the CP-SCF equations         ... 
Using LibInt in CPSCF-CP

Calculating nucleus orbit integrals         ... done

------------------------------------------------------------------------------
                           ORCA CP-SCF CALCULATION
------------------------------------------------------------------------------

Input orbitals are from        ... cc-pVDZ.gbw
Input Perturbation             ... cc-pVDZ.pin.tmp
Wavefunction output            ... cc-pVDZ.pout.tmp
Perturbation mode              ... Imaginary perturbation
Solver                         ... POPLE
Max. number of iterations      ... 64
Convergence tolerance          ... 1.000e-06
Integral handling              ... Direct
Number of perturbations        ... 3
Number of operators            ... 2
Orbital ranges used for CP-SCF:
 Operator 0:  Orbitals   0... 84  to  85...460
 Operator 1:  Orbitals   0... 83  to  84...460
DFT calculation                         ... on
Variables per vector in CP-SCF ... 63628
Number of vectors sought       ... 3
     CP-SCF ITERATION   0: 
     CP-SCF ITERATION   1:      0.000004467666
     CP-SCF ITERATION   2:      0.000000195057

Forming final perturbed densities           ... done
Transforming perturbed density to AO basis  ... done

Using FinalGrid as integration grid:         ... finished setting up the grid
Time for grid setup =    0.137 sec

 Raw HFC matrix (all values in MHz): 
 ------------------------------
                -3.1893              -0.6257              -0.0028
                -0.6258              -1.5196               0.0066
                -0.0028               0.0066              -3.2586

 A(FC)          -2.6563              -2.6563              -2.6563
 A(SD)           1.3453              -0.6025              -0.7428
 A(ORB+DIA)     -0.0001               0.0001               0.0013    A(PC) =   0.0004
 A(ORB)          0.0002               0.0000               0.0014    A(PC) =   0.0005
 A(DIA)         -0.0003               0.0001              -0.0001    A(PC) =  -0.0001
             ----------           ----------           ----------
 A(Tot)         -1.3111              -3.2586              -3.3977    A(iso)=   -2.6558
 Orientation: 
  X           0.3160604           -0.0027204           -0.9487352
  Y          -0.9487321           -0.0047485           -0.3160458
  Z          -0.0036452            0.9999850           -0.0040818

Notes:  (1) The A matrix conforms to the "SAI" spin Hamiltonian convention.
        (2) Tensor is right-handed.

 -----------------------------------------------------------
 Nucleus  48H : A:ISTP=    1 I=  0.5 P=533.5514 MHz/au**3
                Q:ISTP=    2 I=  1.0 Q=  0.0029 barn     
 -----------------------------------------------------------
 Solving for nuclear perturbation:
Forming RHS of the CP-SCF equations         ... 
Using LibInt in CPSCF-CP

Calculating nucleus orbit integrals         ... done

------------------------------------------------------------------------------
                           ORCA CP-SCF CALCULATION
------------------------------------------------------------------------------

Input orbitals are from        ... cc-pVDZ.gbw
Input Perturbation             ... cc-pVDZ.pin.tmp
Wavefunction output            ... cc-pVDZ.pout.tmp
Perturbation mode              ... Imaginary perturbation
Solver                         ... POPLE
Max. number of iterations      ... 64
Convergence tolerance          ... 1.000e-06
Integral handling              ... Direct
Number of perturbations        ... 3
Number of operators            ... 2
Orbital ranges used for CP-SCF:
 Operator 0:  Orbitals   0... 84  to  85...460
 Operator 1:  Orbitals   0... 83  to  84...460
DFT calculation                         ... on
Variables per vector in CP-SCF ... 63628
Number of vectors sought       ... 3
     CP-SCF ITERATION   0: 
     CP-SCF ITERATION   1:      0.000003039677
     CP-SCF ITERATION   2:      0.000000989115

Forming final perturbed densities           ... done
Transforming perturbed density to AO basis  ... done

Using FinalGrid as integration grid:         ... finished setting up the grid
Time for grid setup =    0.133 sec

 Raw HFC matrix (all values in MHz): 
 ------------------------------
                 1.7359               0.3012               0.0020
                 0.3011               1.0503               0.0016
                 0.0020               0.0016               0.7450

 A(FC)           1.1772               1.1772               1.1772
 A(SD)          -0.4320              -0.2406               0.6726
 A(ORB+DIA)     -0.0001               0.0003              -0.0004    A(PC) =  -0.0001
 A(ORB)         -0.0000               0.0003              -0.0004    A(PC) =  -0.0000
 A(DIA)         -0.0001              -0.0000              -0.0001    A(PC) =  -0.0001
             ----------           ----------           ----------
 A(Tot)          0.7450               0.9368               1.8494    A(iso)=    1.1771
 Orientation: 
  X          -0.0006043           -0.3526953           -0.9357380
  Y          -0.0048041            0.9357284           -0.3526886
  Z           0.9999883            0.0042822           -0.0022599

Notes:  (1) The A matrix conforms to the "SAI" spin Hamiltonian convention.
        (2) Tensor is right-handed.


------------------------------------------------------------------------------- 
----------------------------------------------------------------------------
                           ORCA EULER ANGLE PROGRAM
----------------------------------------------------------------------------

Only g-tensor available        -->  using g-tensor as reference tensor

Reference tensor               ...  g

g-tensor ordering              ...  |g_min> --> |gx>
                                    |g_mid> --> |gy>
                                    |g_max> --> |gz>

A- and EFG-tensor ordering     ...  the axes |Ax>, |Qx>, |Ay>, etc. are assigned
                                    such that the Euler rotation is minimal. You
                                    can find the respective eigenvalues as Ax,
                                    EFGx, Ay, etc. in the tables below.
                                    The relation of |Ax>, |Ay>,  etc. to Amin, Amid, etc.
                                    (as printed in the ORCA EPR/NMR CALCULATION Output)
                                    is obtained in the detailed printout.

Euler rotation around          ...  z - y - z
   First rotation              -->  by alpha around z
   Second rotation             -->  by beta around y'
   Third rotation              -->  by gamma around z''
   Positive / Negative angle   -->  clockwise / counterclockwise rotation

Plot EFG-tensors                    (-)
Plot HFC-tensors                    (-)
Detailed Printout                   (-)

-------------------------------------------------------------------------
          Euler rotation of hyperfine tensor to g-tensor
-------------------------------------------------------------------------

-------------------------------------------------------------------
 Atom  |   Alpha    Beta    Gamma   |   Ax       Ay       Az 
       |          [degrees]         |           [MHz]         
-------------------------------------------------------------------
  9H       90.5     37.2    -90.5       2.48     3.33     6.46
 10H       91.0     19.8    -91.0      -9.78    -3.39   -10.50
 12H       60.7     14.6    -43.9      10.28    15.05    11.83
 13H      121.0     15.1   -137.8      10.28    15.05    11.84
 15H       78.5     29.3    -64.1      -0.94     0.89    -0.73
 16H      102.9     29.6   -117.1      -0.94     0.89    -0.73
 18H      143.4      7.4   -152.7      -0.38     0.88    -0.29
 19H       40.0      6.7    -30.7      -0.38     0.88    -0.29
 21H       93.2     17.0   -101.0      -0.18     0.38    -0.11
 22H       89.3     16.9    -81.4      -0.18     0.38    -0.11
 24H      -97.4     27.3    112.7      -4.69    -3.08    -3.95
 25H      -84.1     27.0     68.8      -4.69    -3.08    -3.95
 27H      -83.1     25.7     70.4      -0.24     1.43    -0.05
 28H      -98.6     26.0    111.1      -0.24     1.43    -0.05
 30H      -95.7     28.3    105.6      -0.31     0.28    -0.15
 31H      -85.7     28.1     75.8      -0.31     0.28    -0.15
 33H      -91.4     15.0     98.9      -0.21     0.32    -0.15
 34H      -91.5     14.9     83.9      -0.21     0.32    -0.15
 36H       93.0      7.5    -93.0      -0.17     0.30    -0.14
 37H      -91.1     18.9     91.1      -0.14     0.21    -0.09
 44H     -127.1      0.6    127.3      -3.16    -4.90    -1.02
 45H      -90.9     23.0     91.0       0.75     0.94     1.84
 46H      -91.7     21.4     91.8      -3.26    -1.31    -3.40
 47H       90.6     20.0    -90.5      -3.26    -1.31    -3.40
 48H       90.9     22.2    -90.7       0.75     0.94     1.85
-------------------------------------------------------------------


Timings for individual modules:

Sum of individual times         ...     3052.389 sec (=  50.873 min)
GTO integral calculation        ...        1.947 sec (=   0.032 min)   0.1 %
Spin-Orbit-Coupling Matrices    ...       28.536 sec (=   0.476 min)   0.9 %
SCF iterations                  ...      113.197 sec (=   1.887 min)   3.7 %
EPR/NMR calculation             ...     2908.709 sec (=  48.478 min)  95.3 %
                             ****ORCA TERMINATED NORMALLY****
TOTAL RUN TIME: 0 days 0 hours 50 minutes 53 seconds 458 msec
