
                                 *****************
                                 * O   R   C   A *
                                 *****************

                                            #,                                       
                                            ###                                      
                                            ####                                     
                                            #####                                    
                                            ######                                   
                                           ########,                                 
                                     ,,################,,,,,                         
                               ,,#################################,,                 
                          ,,##########################################,,             
                       ,#########################################, ''#####,          
                    ,#############################################,,   '####,        
                  ,##################################################,,,,####,       
                ,###########''''           ''''###############################       
              ,#####''   ,,,,##########,,,,          '''####'''          '####       
            ,##' ,,,,###########################,,,                        '##       
           ' ,,###''''                  '''############,,,                           
         ,,##''                                '''############,,,,        ,,,,,,###''
      ,#''                                            '''#######################'''  
     '                                                          ''''####''''         
             ,#######,   #######,   ,#######,      ##                                
            ,#'     '#,  ##    ##  ,#'     '#,    #''#        ######   ,####,        
            ##       ##  ##   ,#'  ##            #'  '#       #        #'  '#        
            ##       ##  #######   ##           ,######,      #####,   #    #        
            '#,     ,#'  ##    ##  '#,     ,#' ,#      #,         ##   #,  ,#        
             '#######'   ##     ##  '#######'  #'      '#     #####' # '####'        



                  #######################################################
                  #                        -***-                        #
                  #          Department of theory and spectroscopy      #
                  #    Directorship and core code : Frank Neese         #
                  #        Max Planck Institute fuer Kohlenforschung    #
                  #                Kaiser Wilhelm Platz 1               #
                  #                 D-45470 Muelheim/Ruhr               #
                  #                      Germany                        #
                  #                                                     #
                  #                  All rights reserved                #
                  #                        -***-                        #
                  #######################################################


                         Program Version 5.0.4 -  RELEASE  -


 With contributions from (in alphabetic order):
   Daniel Aravena         : Magnetic Suceptibility
   Michael Atanasov       : Ab Initio Ligand Field Theory (pilot matlab implementation)
   Alexander A. Auer      : GIAO ZORA, VPT2 properties, NMR spectrum
   Ute Becker             : Parallelization
   Giovanni Bistoni       : ED, misc. LED, open-shell LED, HFLD
   Martin Brehm           : Molecular dynamics
   Dmytro Bykov           : SCF Hessian
   Vijay G. Chilkuri      : MRCI spin determinant printing, contributions to CSF-ICE
   Dipayan Datta          : RHF DLPNO-CCSD density
   Achintya Kumar Dutta   : EOM-CC, STEOM-CC
   Dmitry Ganyushin       : Spin-Orbit,Spin-Spin,Magnetic field MRCI
   Miquel Garcia          : C-PCM and meta-GGA Hessian, CC/C-PCM, Gaussian charge scheme
   Yang Guo               : DLPNO-NEVPT2, F12-NEVPT2, CIM, IAO-localization
   Andreas Hansen         : Spin unrestricted coupled pair/coupled cluster methods
   Benjamin Helmich-Paris : MC-RPA, TRAH-SCF, COSX integrals
   Lee Huntington         : MR-EOM, pCC
   Robert Izsak           : Overlap fitted RIJCOSX, COSX-SCS-MP3, EOM
   Marcus Kettner         : VPT2
   Christian Kollmar      : KDIIS, OOCD, Brueckner-CCSD(T), CCSD density, CASPT2, CASPT2-K
   Simone Kossmann        : Meta GGA functionals, TD-DFT gradient, OOMP2, MP2 Hessian
   Martin Krupicka        : Initial AUTO-CI
   Lucas Lang             : DCDCAS
   Marvin Lechner         : AUTO-CI (C++ implementation), FIC-MRCC
   Dagmar Lenk            : GEPOL surface, SMD
   Dimitrios Liakos       : Extrapolation schemes; Compound Job, initial MDCI parallelization
   Dimitrios Manganas     : Further ROCIS development; embedding schemes
   Dimitrios Pantazis     : SARC Basis sets
   Anastasios Papadopoulos: AUTO-CI, single reference methods and gradients
   Taras Petrenko         : DFT Hessian,TD-DFT gradient, ASA, ECA, R-Raman, ABS, FL, XAS/XES, NRVS
   Peter Pinski           : DLPNO-MP2, DLPNO-MP2 Gradient
   Christoph Reimann      : Effective Core Potentials
   Marius Retegan         : Local ZFS, SOC
   Christoph Riplinger    : Optimizer, TS searches, QM/MM, DLPNO-CCSD(T), (RO)-DLPNO pert. Triples
   Tobias Risthaus        : Range-separated hybrids, TD-DFT gradient, RPA, STAB
   Michael Roemelt        : Original ROCIS implementation
   Masaaki Saitow         : Open-shell DLPNO-CCSD energy and density
   Barbara Sandhoefer     : DKH picture change effects
   Avijit Sen             : IP-ROCIS
   Kantharuban Sivalingam : CASSCF convergence, NEVPT2, FIC-MRCI
   Bernardo de Souza      : ESD, SOC TD-DFT
   Georgi Stoychev        : AutoAux, RI-MP2 NMR, DLPNO-MP2 response
   Willem Van den Heuvel  : Paramagnetic NMR
   Boris Wezisla          : Elementary symmetry handling
   Frank Wennmohs         : Technical directorship


 We gratefully acknowledge several colleagues who have allowed us to
 interface, adapt or use parts of their codes:
   Stefan Grimme, W. Hujo, H. Kruse, P. Pracht,  : VdW corrections, initial TS optimization,
                  C. Bannwarth, S. Ehlert          DFT functionals, gCP, sTDA/sTD-DF
   Ed Valeev, F. Pavosevic, A. Kumar             : LibInt (2-el integral package), F12 methods
   Garnet Chan, S. Sharma, J. Yang, R. Olivares  : DMRG
   Ulf Ekstrom                                   : XCFun DFT Library
   Mihaly Kallay                                 : mrcc  (arbitrary order and MRCC methods)
   Jiri Pittner, Ondrej Demel                    : Mk-CCSD
   Frank Weinhold                                : gennbo (NPA and NBO analysis)
   Christopher J. Cramer and Donald G. Truhlar   : smd solvation model
   Lars Goerigk                                  : TD-DFT with DH, B97 family of functionals
   V. Asgeirsson, H. Jonsson                     : NEB implementation
   FAccTs GmbH                                   : IRC, NEB, NEB-TS, DLPNO-Multilevel, CI-OPT
                                                   MM, QMMM, 2- and 3-layer-ONIOM, Crystal-QMMM,
                                                   LR-CPCM, SF, NACMEs, symmetry and pop. for TD-DFT,
                                                   nearIR, NL-DFT gradient (VV10), updates on ESD,
                                                   ML-optimized integration grids
   S Lehtola, MJT Oliveira, MAL Marques          : LibXC Library
   Liviu Ungur et al                             : ANISO software


 Your calculation uses the libint2 library for the computation of 2-el integrals
 For citations please refer to: http://libint.valeyev.net

 Your ORCA version has been built with support for libXC version: 5.1.0
 For citations please refer to: https://tddft.org/programs/libxc/

 This ORCA versions uses:
   CBLAS   interface :  Fast vector & matrix operations
   LAPACKE interface :  Fast linear algebra routines
   SCALAPACK package :  Parallel linear algebra routines
   Shared memory     :  Shared parallel matrices
   BLAS/LAPACK       :  OpenBLAS 0.3.15  USE64BITINT DYNAMIC_ARCH NO_AFFINITY SkylakeX SINGLE_THREADED
        Core in use  :  SkylakeX
   Copyright (c) 2011-2014, The OpenBLAS Project




***************************************
The coordinates will be read from file: opt.xyz
***************************************


================================================================================

----- Orbital basis set information -----
Your calculation utilizes the basis: EPR-II
   V. Barone, in Recent Advances in Density Functional Methods, Part 1 (ed. D. P. Chong), World Scientific, Singapore, 1995, p. 287.

----- AuxJ basis set information -----
Your calculation utilizes the AutoAux generation procedure.
  G. L. Stoychev, A. A. Auer, F. Neese, J. Chem. Theory Comput. 13, 554 (2017)

----- AuxC basis set information -----
Your calculation utilizes the AutoAux generation procedure.
  G. L. Stoychev, A. A. Auer, F. Neese, J. Chem. Theory Comput. 13, 554 (2017)

----- AuxJK basis set information -----
Your calculation utilizes the AutoAux generation procedure.
  G. L. Stoychev, A. A. Auer, F. Neese, J. Chem. Theory Comput. 13, 554 (2017)

================================================================================
                                        WARNINGS
                       Please study these warnings very carefully!
================================================================================

WARNING: Old DensityContainer found on disk!
         Will remove this file - 
         If you want to keep old densities, please start your calculation with a different basename. 


WARNING: your system is open-shell and RHF/RKS was chosen
  ===> : WILL SWITCH to UHF/UKS


INFO   : the flag for use of the SHARK integral package has been found!

================================================================================
                                       INPUT FILE
================================================================================
NAME = EPRII.inp
|  1> ! B3LYP EPR-II AUTOAUX
|  2> %pal nprocs 16 end
|  3> *XYZFile 0 2 opt.xyz
|  4> %EPRNMR
|  5>         GTENSOR   TRUE
|  6>         NUCLEI    = ALL H {SHIFT, AISO, ADIP, AORB}
|  7>         ORI       CenterOfElCharge
|  8> END
|  9> 
| 10>                          ****END OF INPUT****
================================================================================

                       ****************************
                       * Single Point Calculation *
                       ****************************

---------------------------------
CARTESIAN COORDINATES (ANGSTROEM)
---------------------------------
  C     -4.099903    0.083492   -0.018353
  C     -2.815946    0.043661   -0.012330
  C      2.806008   -0.004269   -0.008539
  C     -1.423131    0.006681   -0.011521
  C     -0.708303   -1.246812   -0.013959
  C      0.675892   -1.194656   -0.012684
  C      1.390969    0.032616   -0.009322
  C      0.692187    1.284040   -0.006826
  C     -0.689714    1.234894   -0.008082
  H      1.259776   -2.114722   -0.014385
  H     -1.277365    2.152363   -0.006417
  C     -1.482678   -2.545270   -0.017742
  H     -2.162956   -2.531884   -0.888087
  H     -2.164001   -2.536305    0.851848
  C     -0.664773   -3.838900   -0.020463
  H     -0.001060   -3.863836   -0.904705
  H     -0.002550   -3.868472    0.864757
  C     -1.549765   -5.091581   -0.024486
  H     -2.216738   -5.067647    0.856694
  H     -2.214979   -5.063238   -0.906864
  C     -0.747242   -6.394947   -0.026958
  H     -0.098785   -6.468624    0.863263
  H     -0.096713   -6.463963   -0.916039
  C      1.475610    2.580851   -0.003105
  H      2.150780    2.571663    0.872485
  H      2.151902    2.575969   -0.877872
  C      0.660276    3.876516   -0.000466
  H     -0.001813    3.904739   -0.885019
  H     -0.003430    3.900164    0.883007
  C      1.545553    5.128838    0.003581
  H      2.210398    5.101571    0.886923
  H      2.212314    5.105900   -0.878438
  C      0.742544    6.432044    0.005924
  H      0.091762    6.499753    0.894507
  H      0.094086    6.504395   -0.883993
  C      4.030665   -0.051608   -0.009917
  H     -1.409442   -7.275742   -0.030044
  H      1.404248    7.313240    0.009096
  C      5.453353   -0.107226   -0.009647
  C      6.121835   -1.352501   -0.012193
  C      7.514506   -1.401458   -0.011853
  C      8.262259   -0.217737   -0.009063
  C      7.609924    1.021237   -0.006590
  C      6.217754    1.081653   -0.006879
  H      9.353772   -0.260949   -0.008833
  H      8.191473    1.945911   -0.004438
  H      5.533939   -2.272105   -0.014369
  H      5.703998    2.044629   -0.004992
  H      8.021809   -2.368853   -0.013791

----------------------------
CARTESIAN COORDINATES (A.U.)
----------------------------
  NO LB      ZA    FRAG     MASS         X           Y           Z
   0 C     6.0000    0    12.011   -7.747695    0.157777   -0.034681
   1 C     6.0000    0    12.011   -5.321367    0.082508   -0.023300
   2 C     6.0000    0    12.011    5.302587   -0.008067   -0.016136
   3 C     6.0000    0    12.011   -2.689327    0.012626   -0.021772
   4 C     6.0000    0    12.011   -1.338498   -2.356134   -0.026378
   5 C     6.0000    0    12.011    1.277250   -2.257573   -0.023968
   6 C     6.0000    0    12.011    2.628550    0.061636   -0.017615
   7 C     6.0000    0    12.011    1.308044    2.426484   -0.012899
   8 C     6.0000    0    12.011   -1.303370    2.333612   -0.015274
   9 H     1.0000    0     1.008    2.380632   -3.996246   -0.027183
  10 H     1.0000    0     1.008   -2.413870    4.067376   -0.012127
  11 C     6.0000    0    12.011   -2.801855   -4.809864   -0.033528
  12 H     1.0000    0     1.008   -4.087394   -4.784568   -1.678241
  13 H     1.0000    0     1.008   -4.089368   -4.792922    1.609759
  14 C     6.0000    0    12.011   -1.256239   -7.254469   -0.038669
  15 H     1.0000    0     1.008   -0.002004   -7.301591   -1.709645
  16 H     1.0000    0     1.008   -0.004819   -7.310352    1.634154
  17 C     6.0000    0    12.011   -2.928631   -9.621693   -0.046271
  18 H     1.0000    0     1.008   -4.189027   -9.576465    1.618917
  19 H     1.0000    0     1.008   -4.185703   -9.568134   -1.713724
  20 C     6.0000    0    12.011   -1.412082  -12.084699   -0.050944
  21 H     1.0000    0     1.008   -0.186676  -12.223929    1.631331
  22 H     1.0000    0     1.008   -0.182760  -12.215120   -1.731062
  23 C     6.0000    0    12.011    2.788498    4.877102   -0.005869
  24 H     1.0000    0     1.008    4.064385    4.859738    1.648758
  25 H     1.0000    0     1.008    4.066505    4.867877   -1.658937
  26 C     6.0000    0    12.011    1.247740    7.325553   -0.000880
  27 H     1.0000    0     1.008   -0.003427    7.378887   -1.672443
  28 H     1.0000    0     1.008   -0.006481    7.370242    1.668641
  29 C     6.0000    0    12.011    2.920672    9.692100    0.006766
  30 H     1.0000    0     1.008    4.177046    9.640572    1.676042
  31 H     1.0000    0     1.008    4.180668    9.648753   -1.660007
  32 C     6.0000    0    12.011    1.403204   12.154802    0.011194
  33 H     1.0000    0     1.008    0.173404   12.282753    1.690374
  34 H     1.0000    0     1.008    0.177797   12.291525   -1.670505
  35 C     6.0000    0    12.011    7.616852   -0.097524   -0.018740
  36 H     1.0000    0     1.008   -2.663459  -13.749160   -0.056774
  37 H     1.0000    0     1.008    2.653644   13.820020    0.017189
  38 C     6.0000    0    12.011   10.305343   -0.202628   -0.018229
  39 C     6.0000    0    12.011   11.568592   -2.555857   -0.023041
  40 C     6.0000    0    12.011   14.200358   -2.648371   -0.022399
  41 C     6.0000    0    12.011   15.613407   -0.411462   -0.017127
  42 C     6.0000    0    12.011   14.380671    1.929859   -0.012454
  43 C     6.0000    0    12.011   11.749853    2.044027   -0.012999
  44 H     1.0000    0     1.008   17.676068   -0.493123   -0.016692
  45 H     1.0000    0     1.008   15.479640    3.677238   -0.008386
  46 H     1.0000    0     1.008   10.457630   -4.293656   -0.027154
  47 H     1.0000    0     1.008   10.778994    3.863789   -0.009434
  48 H     1.0000    0     1.008   15.159023   -4.476483   -0.026062

--------------------------------
INTERNAL COORDINATES (ANGSTROEM)
--------------------------------
 C      0   0   0     0.000000000000     0.00000000     0.00000000
 C      1   0   0     1.284589265702     0.00000000     0.00000000
 C      2   1   0     5.622159564040   178.69126092     0.00000000
 C      2   1   3     1.393306467235   179.65227083   327.51862601
 C      4   2   1     1.442993883273   121.21551837   222.73457308
 C      5   4   2     1.385177188993   117.53671655   180.01241966
 C      3   2   1     1.415520374158     1.00472520    10.51896560
 C      7   3   6     1.433304942608   120.67155711   180.00251040
 C      8   7   3     1.382775381372   117.14154389   179.98635314
 H      6   5   4     1.089699859879   120.24164121   179.99764177
 H      9   8   7     1.089534381280   120.60315497   180.00627168
 C      5   4   2     1.511841308952   119.49432899     0.00000000
 H     12   5   4     1.104743120331   107.87680572    55.82062536
 H     12   5   4     1.104747614791   107.87550603   304.14905360
 C     12   5   4     1.530507626416   116.88572550   179.98859445
 H     15  12   5     1.105902563797   109.95017923   301.68270487
 H     15  12   5     1.105905796946   109.94886218    58.34142276
 C     15  12   5     1.533765592879   112.45643147   180.01139442
 H     18  15  12     1.105397466238   109.17036193   302.38938945
 H     18  15  12     1.105397471384   109.17092419    57.63473439
 C     18  15  12     1.530625053453   113.13789375   180.01165525
 H     21  18  15     1.103820012046   111.31832012    59.91451649
 H     21  18  15     1.103818579039   111.31786680   300.10869648
 C      8   7   3     1.515085539117   119.68484965     0.00000000
 H     24   8   7     1.105711363744   108.09370501   303.63215986
 H     24   8   7     1.105717523955   108.09186412    56.38210693
 C     24   8   7     1.530856693276   116.68202454   180.00524344
 H     27  24   8     1.105257054054   109.83292962   301.74343574
 H     27  24   8     1.105254637747   109.83506491    58.22504828
 C     27  24   8     1.533637708065   112.56201510   179.98517391
 H     30  27  24     1.105918558839   109.20769736   302.29351001
 H     30  27  24     1.105917187097   109.20681994    57.67887704
 C     30  27  24     1.530743191815   113.10279452   179.98667424
 H     33  30  27     1.103486639694   111.27512830    59.84427318
 H     33  30  27     1.103487301721   111.27567707   300.12528013
 C      3   2   1     1.225571968783   178.27174768   193.54086091
 H     21  18  15     1.101961246509   111.44164475   180.01211336
 H     33  30  27     1.101983520380   111.45612407   179.98418205
 C     36   3   7     1.423774642696   179.92062648   280.85853904
 C     39  36   3     1.413359540444   120.46627745    71.67101810
 C     40  39  36     1.393531182661   120.24078976   180.00300340
 C     41  40  39     1.400120858211   120.26715974     0.00000000
 C     42  41  40     1.400215882953   119.95224590     0.00000000
 C     43  42  41     1.393479491271   120.25218298     0.00000000
 H     42  41  40     1.092368032818   120.01330674   180.00156118
 H     43  42  41     1.092348237933   120.06596006   180.00156057
 H     40  39  36     1.091465535315   119.18205456     0.00000000
 H     44  43  42     1.091454396523   120.56513382   180.00202302
 H     41  40  39     1.092343317309   119.68577979   179.99739793

---------------------------
INTERNAL COORDINATES (A.U.)
---------------------------
 C      0   0   0     0.000000000000     0.00000000     0.00000000
 C      1   0   0     2.427521906753     0.00000000     0.00000000
 C      2   1   0    10.624341857241   178.69126092     0.00000000
 C      2   1   3     2.632967643696   179.65227083   327.51862601
 C      4   2   1     2.726863252309   121.21551837   222.73457308
 C      5   4   2     2.617605534151   117.53671655   180.01241966
 C      3   2   1     2.674945844144     1.00472520    10.51896560
 C      7   3   6     2.708553807925   120.67155711   180.00251040
 C      8   7   3     2.613066775522   117.14154389   179.98635314
 H      6   5   4     2.059234303345   120.24164121   179.99764177
 H      9   8   7     2.058921594110   120.60315497   180.00627168
 C      5   4   2     2.856966031868   119.49432899     0.00000000
 H     12   5   4     2.087661945760   107.87680572    55.82062536
 H     12   5   4     2.087670439058   107.87550603   304.14905360
 C     12   5   4     2.892240259804   116.88572550   179.98859445
 H     15  12   5     2.089852976379   109.95017923   301.68270487
 H     15  12   5     2.089859086144   109.94886218    58.34142276
 C     15  12   5     2.898396924173   112.45643147   180.01139442
 H     18  15  12     2.088898480320   109.17036193   302.38938945
 H     18  15  12     2.088898490044   109.17092419    57.63473439
 C     18  15  12     2.892462164744   113.13789375   180.01165525
 H     21  18  15     2.085917523909   111.31832012    59.91451649
 H     21  18  15     2.085914815918   111.31786680   300.10869648
 C      8   7   3     2.863096738396   119.68484965     0.00000000
 H     24   8   7     2.089491660641   108.09370501   303.63215986
 H     24   8   7     2.089503301752   108.09186412    56.38210693
 C     24   8   7     2.892899900573   116.68202454   180.00524344
 H     27  24   8     2.088633139747   109.83292962   301.74343574
 H     27  24   8     2.088628573588   109.83506491    58.22504828
 C     27  24   8     2.898155256898   112.56201510   179.98517391
 H     30  27  24     2.089883202627   109.20769736   302.29351001
 H     30  27  24     2.089880610411   109.20681994    57.67887704
 C     30  27  24     2.892685413895   113.10279452   179.98667424
 H     33  30  27     2.085287541462   111.27512830    59.84427318
 H     33  30  27     2.085288792513   111.27567707   300.12528013
 C      3   2   1     2.315995378411   178.27174768   193.54086091
 H     21  18  15     2.082404966096   111.44164475   180.01211336
 H     33  30  27     2.082447057613   111.45612407   179.98418205
 C     36   3   7     2.690544151116   179.92062648   280.85853904
 C     39  36   3     2.670862460204   120.46627745    71.67101810
 C     40  39  36     2.633392294308   120.24078976   180.00300340
 C     41  40  39     2.645844976410   120.26715974     0.00000000
 C     42  41  40     2.646024547148   119.95224590     0.00000000
 C     43  42  41     2.633294611738   120.25218298     0.00000000
 H     42  41  40     2.064276419477   120.01330674   180.00156118
 H     43  42  41     2.064239012566   120.06596006   180.00156057
 H     40  39  36     2.062570946359   119.18205456     0.00000000
 H     44  43  42     2.062549897092   120.56513382   180.00202302
 H     41  40  39     2.064229713932   119.68577979   179.99739793

---------------------
BASIS SET INFORMATION
---------------------
There are 2 groups of distinct atoms

 Group   1 Type C   : 10s5p1d contracted to 6s2p1d pattern {511111/41/1}
 Group   2 Type H   : 6s1p contracted to 4s1p pattern {3111/1}

Atom   0C    basis set group =>   1
Atom   1C    basis set group =>   1
Atom   2C    basis set group =>   1
Atom   3C    basis set group =>   1
Atom   4C    basis set group =>   1
Atom   5C    basis set group =>   1
Atom   6C    basis set group =>   1
Atom   7C    basis set group =>   1
Atom   8C    basis set group =>   1
Atom   9H    basis set group =>   2
Atom  10H    basis set group =>   2
Atom  11C    basis set group =>   1
Atom  12H    basis set group =>   2
Atom  13H    basis set group =>   2
Atom  14C    basis set group =>   1
Atom  15H    basis set group =>   2
Atom  16H    basis set group =>   2
Atom  17C    basis set group =>   1
Atom  18H    basis set group =>   2
Atom  19H    basis set group =>   2
Atom  20C    basis set group =>   1
Atom  21H    basis set group =>   2
Atom  22H    basis set group =>   2
Atom  23C    basis set group =>   1
Atom  24H    basis set group =>   2
Atom  25H    basis set group =>   2
Atom  26C    basis set group =>   1
Atom  27H    basis set group =>   2
Atom  28H    basis set group =>   2
Atom  29C    basis set group =>   1
Atom  30H    basis set group =>   2
Atom  31H    basis set group =>   2
Atom  32C    basis set group =>   1
Atom  33H    basis set group =>   2
Atom  34H    basis set group =>   2
Atom  35C    basis set group =>   1
Atom  36H    basis set group =>   2
Atom  37H    basis set group =>   2
Atom  38C    basis set group =>   1
Atom  39C    basis set group =>   1
Atom  40C    basis set group =>   1
Atom  41C    basis set group =>   1
Atom  42C    basis set group =>   1
Atom  43C    basis set group =>   1
Atom  44H    basis set group =>   2
Atom  45H    basis set group =>   2
Atom  46H    basis set group =>   2
Atom  47H    basis set group =>   2
Atom  48H    basis set group =>   2
---------------------------------
AUXILIARY/J BASIS SET INFORMATION
---------------------------------
There are 2 groups of distinct atoms

 Group   1 Type C   : 17s13p12d2f contracted to 17s13p12d2f pattern {11111111111111111/1111111111111/111111111111/11}
 Group   2 Type H   : 15s6p1d contracted to 15s6p1d pattern {111111111111111/111111/1}

Atom   0C    basis set group =>   1
Atom   1C    basis set group =>   1
Atom   2C    basis set group =>   1
Atom   3C    basis set group =>   1
Atom   4C    basis set group =>   1
Atom   5C    basis set group =>   1
Atom   6C    basis set group =>   1
Atom   7C    basis set group =>   1
Atom   8C    basis set group =>   1
Atom   9H    basis set group =>   2
Atom  10H    basis set group =>   2
Atom  11C    basis set group =>   1
Atom  12H    basis set group =>   2
Atom  13H    basis set group =>   2
Atom  14C    basis set group =>   1
Atom  15H    basis set group =>   2
Atom  16H    basis set group =>   2
Atom  17C    basis set group =>   1
Atom  18H    basis set group =>   2
Atom  19H    basis set group =>   2
Atom  20C    basis set group =>   1
Atom  21H    basis set group =>   2
Atom  22H    basis set group =>   2
Atom  23C    basis set group =>   1
Atom  24H    basis set group =>   2
Atom  25H    basis set group =>   2
Atom  26C    basis set group =>   1
Atom  27H    basis set group =>   2
Atom  28H    basis set group =>   2
Atom  29C    basis set group =>   1
Atom  30H    basis set group =>   2
Atom  31H    basis set group =>   2
Atom  32C    basis set group =>   1
Atom  33H    basis set group =>   2
Atom  34H    basis set group =>   2
Atom  35C    basis set group =>   1
Atom  36H    basis set group =>   2
Atom  37H    basis set group =>   2
Atom  38C    basis set group =>   1
Atom  39C    basis set group =>   1
Atom  40C    basis set group =>   1
Atom  41C    basis set group =>   1
Atom  42C    basis set group =>   1
Atom  43C    basis set group =>   1
Atom  44H    basis set group =>   2
Atom  45H    basis set group =>   2
Atom  46H    basis set group =>   2
Atom  47H    basis set group =>   2
Atom  48H    basis set group =>   2
---------------------------------
AUXILIARY/C BASIS SET INFORMATION
---------------------------------
There are 2 groups of distinct atoms

 Group   1 Type C   : 17s13p12d2f contracted to 17s13p12d2f pattern {11111111111111111/1111111111111/111111111111/11}
 Group   2 Type H   : 15s6p1d contracted to 15s6p1d pattern {111111111111111/111111/1}

Atom   0C    basis set group =>   1
Atom   1C    basis set group =>   1
Atom   2C    basis set group =>   1
Atom   3C    basis set group =>   1
Atom   4C    basis set group =>   1
Atom   5C    basis set group =>   1
Atom   6C    basis set group =>   1
Atom   7C    basis set group =>   1
Atom   8C    basis set group =>   1
Atom   9H    basis set group =>   2
Atom  10H    basis set group =>   2
Atom  11C    basis set group =>   1
Atom  12H    basis set group =>   2
Atom  13H    basis set group =>   2
Atom  14C    basis set group =>   1
Atom  15H    basis set group =>   2
Atom  16H    basis set group =>   2
Atom  17C    basis set group =>   1
Atom  18H    basis set group =>   2
Atom  19H    basis set group =>   2
Atom  20C    basis set group =>   1
Atom  21H    basis set group =>   2
Atom  22H    basis set group =>   2
Atom  23C    basis set group =>   1
Atom  24H    basis set group =>   2
Atom  25H    basis set group =>   2
Atom  26C    basis set group =>   1
Atom  27H    basis set group =>   2
Atom  28H    basis set group =>   2
Atom  29C    basis set group =>   1
Atom  30H    basis set group =>   2
Atom  31H    basis set group =>   2
Atom  32C    basis set group =>   1
Atom  33H    basis set group =>   2
Atom  34H    basis set group =>   2
Atom  35C    basis set group =>   1
Atom  36H    basis set group =>   2
Atom  37H    basis set group =>   2
Atom  38C    basis set group =>   1
Atom  39C    basis set group =>   1
Atom  40C    basis set group =>   1
Atom  41C    basis set group =>   1
Atom  42C    basis set group =>   1
Atom  43C    basis set group =>   1
Atom  44H    basis set group =>   2
Atom  45H    basis set group =>   2
Atom  46H    basis set group =>   2
Atom  47H    basis set group =>   2
Atom  48H    basis set group =>   2
----------------------------------
AUXILIARY/JK BASIS SET INFORMATION
----------------------------------
There are 2 groups of distinct atoms

 Group   1 Type C   : 17s13p12d2f contracted to 17s13p12d2f pattern {11111111111111111/1111111111111/111111111111/11}
 Group   2 Type H   : 15s6p1d contracted to 15s6p1d pattern {111111111111111/111111/1}

Atom   0C    basis set group =>   1
Atom   1C    basis set group =>   1
Atom   2C    basis set group =>   1
Atom   3C    basis set group =>   1
Atom   4C    basis set group =>   1
Atom   5C    basis set group =>   1
Atom   6C    basis set group =>   1
Atom   7C    basis set group =>   1
Atom   8C    basis set group =>   1
Atom   9H    basis set group =>   2
Atom  10H    basis set group =>   2
Atom  11C    basis set group =>   1
Atom  12H    basis set group =>   2
Atom  13H    basis set group =>   2
Atom  14C    basis set group =>   1
Atom  15H    basis set group =>   2
Atom  16H    basis set group =>   2
Atom  17C    basis set group =>   1
Atom  18H    basis set group =>   2
Atom  19H    basis set group =>   2
Atom  20C    basis set group =>   1
Atom  21H    basis set group =>   2
Atom  22H    basis set group =>   2
Atom  23C    basis set group =>   1
Atom  24H    basis set group =>   2
Atom  25H    basis set group =>   2
Atom  26C    basis set group =>   1
Atom  27H    basis set group =>   2
Atom  28H    basis set group =>   2
Atom  29C    basis set group =>   1
Atom  30H    basis set group =>   2
Atom  31H    basis set group =>   2
Atom  32C    basis set group =>   1
Atom  33H    basis set group =>   2
Atom  34H    basis set group =>   2
Atom  35C    basis set group =>   1
Atom  36H    basis set group =>   2
Atom  37H    basis set group =>   2
Atom  38C    basis set group =>   1
Atom  39C    basis set group =>   1
Atom  40C    basis set group =>   1
Atom  41C    basis set group =>   1
Atom  42C    basis set group =>   1
Atom  43C    basis set group =>   1
Atom  44H    basis set group =>   2
Atom  45H    basis set group =>   2
Atom  46H    basis set group =>   2
Atom  47H    basis set group =>   2
Atom  48H    basis set group =>   2

Checking for AutoStart:
The File: EPRII.gbw exists
Trying to determine its content:
     ... Fine, the file contains calculation information
     ... Fine, the calculation information was read
     ... Fine, the file contains a basis set
     ... Fine, the basis set was read
     ... Fine, the file contains a geometry
     ... Fine, the geometry was read
     ... Fine, the file contains a set of orbitals
     ... Fine, the orbitals can be read
     => possible old guess file was deleted
     => GBW file was renamed to GES file
     => GES file is set as startup file
     => Guess is set to MORead
     ... now leaving AutoStart



           ************************************************************
           *        Program running with 16 parallel MPI-processes    *
           *              working on a common directory               *
           ************************************************************
------------------------------------------------------------------------------
                           ORCA GTO INTEGRAL CALCULATION
                           -- RI-GTO INTEGRALS CHOSEN --
------------------------------------------------------------------------------
------------------------------------------------------------------------------
                   ___                                                        
                  /   \      - P O W E R E D   B Y -                         
                 /     \                                                     
                 |  |  |   _    _      __       _____    __    __             
                 |  |  |  | |  | |    /  \     |  _  \  |  |  /  |          
                  \  \/   | |  | |   /    \    | | | |  |  | /  /          
                 / \  \   | |__| |  /  /\  \   | |_| |  |  |/  /          
                |  |  |   |  __  | /  /__\  \  |    /   |      \           
                |  |  |   | |  | | |   __   |  |    \   |  |\   \          
                \     /   | |  | | |  |  |  |  | |\  \  |  | \   \       
                 \___/    |_|  |_| |__|  |__|  |_| \__\ |__|  \__/        
                                                                              
                      - O R C A' S   B I G   F R I E N D -                    
                                      &                                       
                       - I N T E G R A L  F E E D E R -                       
                                                                              
 v1 FN, 2020, v2 2021                                                         
------------------------------------------------------------------------------


Reading SHARK input file EPRII.SHARKINP.tmp ... ok
----------------------
SHARK INTEGRAL PACKAGE
----------------------

Number of atoms                             ...     49
Number of basis functions                   ...    583
Number of shells                            ...    341
Maximum angular momentum                    ...      2
Integral batch strategy                     ... SHARK/LIBINT Hybrid
RI-J (if used) integral strategy            ... SPLIT-RIJ (Revised 2003 algorithm where possible)
Printlevel                                  ...      1
Contraction scheme used                     ... SEGMENTED contraction
Coulomb Range Separation                    ... NOT USED
Exchange Range Separation                   ... NOT USED
Finite Nucleus Model                        ... NOT USED
Auxiliary Coulomb fitting basis             ... AVAILABLE
   # of basis functions in Aux-J            ...   4070
   # of shells in Aux-J                     ...   1606
   Maximum angular momentum in Aux-J        ...      3
Auxiliary J/K fitting basis                 ... AVAILABLE
   # of basis functions in Aux-JK           ...   4070
   # of shells in Aux-JK                    ...   1606
   Maximum angular momentum in Aux-JK       ...      3
Auxiliary Correlation fitting basis         ... AVAILABLE
   # of basis functions in Aux-C            ...   4070
   # of shells in Aux-C                     ...   1606
   Maximum angular momentum in Aux-C        ...      3
Auxiliary 'external' fitting basis          ... NOT available
Integral threshold                          ...     1.000000e-10
Primitive cut-off                           ...     1.000000e-11
Primitive pair pre-selection threshold      ...     1.000000e-11

Calculating pre-screening integrals         ... done (  0.0 sec) Dimension = 341
Organizing shell pair data                  ... done (  0.2 sec)
Shell pair information
Total number of shell pairs                 ...     58311
Shell pairs after pre-screening             ...     29659
Total number of primitive shell pairs       ...    156979
Primitive shell pairs kept                  ...     55799
          la=0 lb=0:  13596 shell pairs
          la=1 lb=0:  10218 shell pairs
          la=1 lb=1:   1832 shell pairs
          la=2 lb=0:   2787 shell pairs
          la=2 lb=1:   1064 shell pairs
          la=2 lb=2:    162 shell pairs

Calculating one electron integrals          ... done (  0.0 sec)
Calculating RI/J V-Matrix + Cholesky decomp.... done (  1.2 sec)
Calculating RI/JK V-Matrix + Cholesky decomp... done (  1.1 sec)
Calculating RI/C V-Matrix + Cholesky decomp.... done (  1.0 sec)
Calculating Nuclear repulsion               ... done (  0.0 sec) ENN=   1728.320371376087 Eh

SHARK setup successfully completed in   4.2 seconds

Maximum memory used throughout the entire GTOINT-calculation: 59.6 MB


           ************************************************************
           *        Program running with 16 parallel MPI-processes    *
           *              working on a common directory               *
           ************************************************************
-------------------------------------------------------------------------------
                                 ORCA SCF
-------------------------------------------------------------------------------

------------
SCF SETTINGS
------------
Hamiltonian:
 Density Functional     Method          .... DFT(GTOs)
 Exchange Functional    Exchange        .... B88
   X-Alpha parameter    XAlpha          ....  0.666667
   Becke's b parameter  XBeta           ....  0.004200
 Correlation Functional Correlation     .... LYP
 LDA part of GGA corr.  LDAOpt          .... VWN-5
 Gradients option       PostSCFGGA      .... off
 Hybrid DFT is turned on
   Fraction HF Exchange ScalHFX         ....  0.200000
   Scaling of DF-GGA-X  ScalDFX         ....  0.720000
   Scaling of DF-GGA-C  ScalDFC         ....  0.810000
   Scaling of DF-LDA-C  ScalLDAC        ....  1.000000
   Perturbative correction              ....  0.000000
   Density functional embedding theory  .... OFF
   NL short-range parameter             ....  4.800000
 RI-approximation to the Coulomb term is turned on
   Number of AuxJ basis functions       .... 4070
   RIJ-COSX (HFX calculated with COS-X)).... on


General Settings:
 Integral files         IntName         .... EPRII
 Hartree-Fock type      HFTyp           .... UHF
 Total Charge           Charge          ....    0
 Multiplicity           Mult            ....    2
 Number of Electrons    NEL             ....  169
 Basis Dimension        Dim             ....  583
 Nuclear Repulsion      ENuc            ....   1728.3203713761 Eh

Convergence Acceleration:
 DIIS                   CNVDIIS         .... on
   Start iteration      DIISMaxIt       ....    12
   Startup error        DIISStart       ....  0.200000
   # of expansion vecs  DIISMaxEq       ....     5
   Bias factor          DIISBfac        ....   1.050
   Max. coefficient     DIISMaxC        ....  10.000
 Trust-Rad. Augm. Hess. CNVTRAH         .... auto
   Auto Start mean grad. ratio tolernc. ....  1.125000
   Auto Start start iteration           ....     1
   Auto Start num. interpolation iter.  ....    10
   Max. Number of Micro iterations      ....    16
   Max. Number of Macro iterations      .... Maxiter - #DIIS iter
   Number of Davidson start vectors     ....     2
   Converg. threshold I  (grad. norm)   ....   5.000e-05
   Converg. threshold II (energy diff.) ....   1.000e-06
   Grad. Scal. Fac. for Micro threshold ....   0.100
   Minimum threshold for Micro iter.    ....   0.010
   NR start threshold (gradient norm)   ....   0.001
   Initial trust radius                 ....   0.400
   Minimum AH scaling param. (alpha)    ....   1.000
   Maximum AH scaling param. (alpha)    .... 1000.000
   Orbital update algorithm             .... Taylor
   White noise on init. David. guess    .... on
   Maximum white noise                  ....   0.010
   Quad. conv. algorithm                .... NR
 SOSCF                  CNVSOSCF        .... off
 Level Shifting         CNVShift        .... on
   Level shift para.    LevelShift      ....    0.2500
   Turn off err/grad.   ShiftErr        ....    0.0010
 Zerner damping         CNVZerner       .... off
 Static damping         CNVDamp         .... on
   Fraction old density DampFac         ....    0.7000
   Max. Damping (<1)    DampMax         ....    0.9800
   Min. Damping (>=0)   DampMin         ....    0.0000
   Turn off err/grad.   DampErr         ....    0.1000
 Fernandez-Rico         CNVRico         .... off

SCF Procedure:
 Maximum # iterations   MaxIter         ....   125
 SCF integral mode      SCFMode         .... Direct
   Integral package                     .... SHARK and LIBINT hybrid scheme
 Reset frequency        DirectResetFreq ....    20
 Integral Threshold     Thresh          ....  1.000e-10 Eh
 Primitive CutOff       TCut            ....  1.000e-11 Eh

Convergence Tolerance:
 Convergence Check Mode ConvCheckMode   .... Total+1el-Energy
 Convergence forced     ConvForced      .... 0
 Energy Change          TolE            ....  1.000e-06 Eh
 1-El. energy change                    ....  1.000e-03 Eh
 DIIS Error             TolErr          ....  1.000e-06


Diagonalization of the overlap matrix:
Smallest eigenvalue                        ... 7.297e-05
Time for diagonalization                   ...    0.065 sec
Threshold for overlap eigenvalues          ... 1.000e-08
Number of eigenvalues below threshold      ... 0
Time for construction of square roots      ...    0.062 sec
Total time needed                          ...    0.128 sec

---------------------
INITIAL GUESS: MOREAD
---------------------
Guess MOs are being read from file: EPRII.ges
Input Geometry matches current geometry (good)
Input basis set matches current basis set (good)
MOs were renormalized
MOs were reorthogonalized (Cholesky)
                      ------------------
                      INITIAL GUESS DONE (   0.3 sec)
                      ------------------
-------------------
DFT GRID GENERATION
-------------------

General Integration Accuracy     IntAcc      ... 4.388
Radial Grid Type                 RadialGrid  ... OptM3 with GC (2021)
Angular Grid (max. ang.)         AngularGrid ... 4 (Lebedev-302)
Angular grid pruning method      GridPruning ... 4 (adaptive)
Weight generation scheme         WeightScheme... Becke
Basis function cutoff            BFCut       ... 1.0000e-10
Integration weight cutoff        WCut        ... 1.0000e-14
Angular grids for H and He will be reduced by one unit
Partially contracted basis set               ... off
Rotationally invariant grid construction     ... off

Total number of grid points                  ...   223003
Total number of batches                      ...     3511
Average number of points per batch           ...       63
Average number of grid points per atom       ...     4551
Time for grid setup =    1.520 sec

--------------------
COSX GRID GENERATION
--------------------

GRIDX 1
-------
General Integration Accuracy     IntAcc      ... 3.816
Radial Grid Type                 RadialGrid  ... OptM3 with GC (2021)
Angular Grid (max. ang.)         AngularGrid ... 1 (Lebedev-50)
Angular grid pruning method      GridPruning ... 4 (adaptive)
Weight generation scheme         WeightScheme... Becke
Basis function cutoff            BFCut       ... 1.0000e-10
Integration weight cutoff        WCut        ... 1.0000e-14
Angular grids for H and He will be reduced by one unit
Partially contracted basis set               ... on
Rotationally invariant grid construction     ... off

Total number of grid points                  ...    28396
Total number of batches                      ...      471
Average number of points per batch           ...       60
Average number of grid points per atom       ...      580
UseSFitting                                  ... on

GRIDX 2
-------
General Integration Accuracy     IntAcc      ... 4.020
Radial Grid Type                 RadialGrid  ... OptM3 with GC (2021)
Angular Grid (max. ang.)         AngularGrid ... 2 (Lebedev-110)
Angular grid pruning method      GridPruning ... 4 (adaptive)
Weight generation scheme         WeightScheme... Becke
Basis function cutoff            BFCut       ... 1.0000e-10
Integration weight cutoff        WCut        ... 1.0000e-14
Angular grids for H and He will be reduced by one unit
Partially contracted basis set               ... on
Rotationally invariant grid construction     ... off

Total number of grid points                  ...    60558
Total number of batches                      ...      971
Average number of points per batch           ...       62
Average number of grid points per atom       ...     1236
UseSFitting                                  ... on

GRIDX 3
-------
General Integration Accuracy     IntAcc      ... 4.338
Radial Grid Type                 RadialGrid  ... OptM3 with GC (2021)
Angular Grid (max. ang.)         AngularGrid ... 3 (Lebedev-194)
Angular grid pruning method      GridPruning ... 4 (adaptive)
Weight generation scheme         WeightScheme... Becke
Basis function cutoff            BFCut       ... 1.0000e-10
Integration weight cutoff        WCut        ... 1.0000e-14
Angular grids for H and He will be reduced by one unit
Partially contracted basis set               ... on
Rotationally invariant grid construction     ... off

Total number of grid points                  ...   132523
Total number of batches                      ...     2094
Average number of points per batch           ...       63
Average number of grid points per atom       ...     2705
UseSFitting                                  ... on

Time for X-Grid setup             =    2.773 sec

--------------
SCF ITERATIONS
--------------
ITER       Energy         Delta-E        Max-DP      RMS-DP      [F,P]     Damp
               ***  Starting incremental Fock matrix formation  ***
  0   -928.9187302583   0.000000000000 0.00005673  0.00000044  0.0001436 0.7000
                 **** Energy Check signals convergence ****

               *****************************************************
               *                     SUCCESS                       *
               *           SCF CONVERGED AFTER   1 CYCLES          *
               *****************************************************

Old exchange energy                            =    -26.591813063 Eh
New exchange energy                            =    -26.591796127 Eh
Exchange energy change after final integration =      0.000016936 Eh
Total energy after final integration           =   -928.918713358 Eh
Final COS-X integration done in                =    12.977 sec

----------------
TOTAL SCF ENERGY
----------------

Total Energy       :         -928.91871336 Eh          -25277.16326 eV

Components:
Nuclear Repulsion  :         1728.32037138 Eh           47029.98826 eV
Electronic Energy  :        -2657.23908473 Eh          -72307.15152 eV
One Electron Energy:        -4683.64265239 Eh         -127448.39592 eV
Two Electron Energy:         2026.40356765 Eh           55141.24440 eV
Max COSX asymmetry :            0.00000341 Eh               0.00009 eV

Virial components:
Potential Energy   :        -1850.45961040 Eh          -50353.56592 eV
Kinetic Energy     :          921.54089704 Eh           25076.40267 eV
Virial Ratio       :            2.00800596


DFT components:
N(Alpha)           :       85.000179070673 electrons
N(Beta)            :       84.000186401530 electrons
N(Total)           :      169.000365472204 electrons
E(X)               :     -105.501154382648 Eh       
E(C)               :       -6.573199918096 Eh       
E(XC)              :     -112.074354300744 Eh       
DFET-embed. en.    :        0.000000000000 Eh       

---------------
SCF CONVERGENCE
---------------

  Last Energy change         ...   -3.5105e-08  Tolerance :   1.0000e-06
  Last MAX-Density change    ...    2.0939e-05  Tolerance :   1.0000e-05
  Last RMS-Density change    ...    1.6782e-07  Tolerance :   1.0000e-06
  Last DIIS Error            ...    5.1964e-05  Tolerance :   1.0000e-06

             **** THE GBW FILE WAS UPDATED (EPRII.gbw) ****
             **** DENSITY EPRII.scfp WAS UPDATED ****
             **** ENERGY FILE WAS UPDATED (EPRII.en.tmp) ****
----------------------
UHF SPIN CONTAMINATION
----------------------

Warning: in a DFT calculation there is little theoretical justification to 
         calculate <S**2> as in Hartree-Fock theory. We will do it anyways
         but you should keep in mind that the values have only limited relevance

Expectation value of <S**2>     :     0.773414
Ideal value S*(S+1) for S=0.5   :     0.750000
Deviation                       :     0.023414

             **** THE GBW FILE WAS UPDATED (EPRII.gbw) ****
             **** DENSITY EPRII.scfp WAS UPDATED ****
----------------
ORBITAL ENERGIES
----------------
                 SPIN UP ORBITALS
  NO   OCC          E(Eh)            E(eV) 
   0   1.0000     -10.254635      -279.0428 
   1   1.0000     -10.247893      -278.8593 
   2   1.0000     -10.242040      -278.7001 
   3   1.0000     -10.233424      -278.4656 
   4   1.0000     -10.233292      -278.4620 
   5   1.0000     -10.229943      -278.3709 
   6   1.0000     -10.226261      -278.2707 
   7   1.0000     -10.226109      -278.2666 
   8   1.0000     -10.225692      -278.2552 
   9   1.0000     -10.225167      -278.2410 
  10   1.0000     -10.222296      -278.1628 
  11   1.0000     -10.222171      -278.1594 
  12   1.0000     -10.218842      -278.0688 
  13   1.0000     -10.217588      -278.0347 
  14   1.0000     -10.203163      -277.6422 
  15   1.0000     -10.194546      -277.4077 
  16   1.0000     -10.192459      -277.3509 
  17   1.0000     -10.190807      -277.3060 
  18   1.0000     -10.189100      -277.2595 
  19   1.0000     -10.186259      -277.1822 
  20   1.0000     -10.185198      -277.1533 
  21   1.0000     -10.183999      -277.1207 
  22   1.0000     -10.178654      -276.9752 
  23   1.0000     -10.176092      -276.9055 
  24   1.0000      -0.893710       -24.3191 
  25   1.0000      -0.883938       -24.0532 
  26   1.0000      -0.833539       -22.6817 
  27   1.0000      -0.815207       -22.1829 
  28   1.0000      -0.800960       -21.7952 
  29   1.0000      -0.797427       -21.6991 
  30   1.0000      -0.776391       -21.1267 
  31   1.0000      -0.771151       -20.9841 
  32   1.0000      -0.754791       -20.5389 
  33   1.0000      -0.738234       -20.0884 
  34   1.0000      -0.719716       -19.5845 
  35   1.0000      -0.706480       -19.2243 
  36   1.0000      -0.662629       -18.0310 
  37   1.0000      -0.658872       -17.9288 
  38   1.0000      -0.634134       -17.2557 
  39   1.0000      -0.629672       -17.1342 
  40   1.0000      -0.629067       -17.1178 
  41   1.0000      -0.602208       -16.3869 
  42   1.0000      -0.585562       -15.9340 
  43   1.0000      -0.572879       -15.5888 
  44   1.0000      -0.559724       -15.2309 
  45   1.0000      -0.526136       -14.3169 
  46   1.0000      -0.523432       -14.2433 
  47   1.0000      -0.500166       -13.6102 
  48   1.0000      -0.493157       -13.4195 
  49   1.0000      -0.481019       -13.0892 
  50   1.0000      -0.477093       -12.9824 
  51   1.0000      -0.475606       -12.9419 
  52   1.0000      -0.455898       -12.4056 
  53   1.0000      -0.446910       -12.1610 
  54   1.0000      -0.444717       -12.1014 
  55   1.0000      -0.435409       -11.8481 
  56   1.0000      -0.434779       -11.8309 
  57   1.0000      -0.429532       -11.6882 
  58   1.0000      -0.424419       -11.5490 
  59   1.0000      -0.418079       -11.3765 
  60   1.0000      -0.410034       -11.1576 
  61   1.0000      -0.404630       -11.0105 
  62   1.0000      -0.391944       -10.6653 
  63   1.0000      -0.382824       -10.4172 
  64   1.0000      -0.380978       -10.3669 
  65   1.0000      -0.374107       -10.1800 
  66   1.0000      -0.371312       -10.1039 
  67   1.0000      -0.367764       -10.0074 
  68   1.0000      -0.367241        -9.9931 
  69   1.0000      -0.354733        -9.6528 
  70   1.0000      -0.345354        -9.3976 
  71   1.0000      -0.340603        -9.2683 
  72   1.0000      -0.335788        -9.1373 
  73   1.0000      -0.332184        -9.0392 
  74   1.0000      -0.330759        -9.0004 
  75   1.0000      -0.329490        -8.9659 
  76   1.0000      -0.326231        -8.8772 
  77   1.0000      -0.312723        -8.5096 
  78   1.0000      -0.293517        -7.9870 
  79   1.0000      -0.279049        -7.5933 
  80   1.0000      -0.267286        -7.2732 
  81   1.0000      -0.264317        -7.1924 
  82   1.0000      -0.250106        -6.8057 
  83   1.0000      -0.246293        -6.7020 
  84   1.0000      -0.221064        -6.0155 
  85   0.0000      -0.083387        -2.2691 
  86   0.0000      -0.033524        -0.9122 
  87   0.0000      -0.032897        -0.8952 
  88   0.0000      -0.022303        -0.6069 
  89   0.0000       0.001076         0.0293 
  90   0.0000       0.014321         0.3897 
  91   0.0000       0.016084         0.4377 
  92   0.0000       0.022139         0.6024 
  93   0.0000       0.025153         0.6844 
  94   0.0000       0.028271         0.7693 
  95   0.0000       0.030613         0.8330 
  96   0.0000       0.041914         1.1405 
  97   0.0000       0.044751         1.2177 
  98   0.0000       0.048248         1.3129 
  99   0.0000       0.049543         1.3481 
 100   0.0000       0.057079         1.5532 
 101   0.0000       0.059190         1.6106 
 102   0.0000       0.067484         1.8363 
 103   0.0000       0.070046         1.9060 
 104   0.0000       0.075201         2.0463 
 105   0.0000       0.076482         2.0812 
 106   0.0000       0.094985         2.5847 
 107   0.0000       0.096263         2.6195 
 108   0.0000       0.097166         2.6440 
 109   0.0000       0.108150         2.9429 
 110   0.0000       0.115405         3.1403 
 111   0.0000       0.122132         3.3234 
 112   0.0000       0.135965         3.6998 
 113   0.0000       0.136209         3.7064 
 114   0.0000       0.143493         3.9046 
 115   0.0000       0.148416         4.0386 
 116   0.0000       0.155927         4.2430 
 117   0.0000       0.164222         4.4687 
 118   0.0000       0.169491         4.6121 
 119   0.0000       0.169963         4.6249 
 120   0.0000       0.177329         4.8254 
 121   0.0000       0.182394         4.9632 
 122   0.0000       0.183456         4.9921 
 123   0.0000       0.192492         5.2380 
 124   0.0000       0.194497         5.2925 
 125   0.0000       0.195741         5.3264 
 126   0.0000       0.197892         5.3849 
 127   0.0000       0.200199         5.4477 
 128   0.0000       0.203181         5.5288 
 129   0.0000       0.207657         5.6506 
 130   0.0000       0.210427         5.7260 
 131   0.0000       0.210781         5.7357 
 132   0.0000       0.210890         5.7386 
 133   0.0000       0.223259         6.0752 
 134   0.0000       0.229828         6.2539 
 135   0.0000       0.231328         6.2948 
 136   0.0000       0.233902         6.3648 
 137   0.0000       0.239996         6.5306 
 138   0.0000       0.243323         6.6211 
 139   0.0000       0.246773         6.7150 
 140   0.0000       0.247552         6.7362 
 141   0.0000       0.252018         6.8577 
 142   0.0000       0.256673         6.9844 
 143   0.0000       0.264153         7.1880 
 144   0.0000       0.264822         7.2062 
 145   0.0000       0.265718         7.2305 
 146   0.0000       0.276671         7.5286 
 147   0.0000       0.277765         7.5584 
 148   0.0000       0.278157         7.5690 
 149   0.0000       0.279571         7.6075 
 150   0.0000       0.280047         7.6205 
 151   0.0000       0.288996         7.8640 
 152   0.0000       0.291248         7.9253 
 153   0.0000       0.291801         7.9403 
 154   0.0000       0.294940         8.0257 
 155   0.0000       0.297962         8.1080 
 156   0.0000       0.301590         8.2067 
 157   0.0000       0.303258         8.2521 
 158   0.0000       0.303997         8.2722 
 159   0.0000       0.307726         8.3736 
 160   0.0000       0.311399         8.4736 
 161   0.0000       0.313808         8.5392 
 162   0.0000       0.316873         8.6226 
 163   0.0000       0.325938         8.8692 
 164   0.0000       0.328314         8.9339 
 165   0.0000       0.331221         9.0130 
 166   0.0000       0.334098         9.0913 
 167   0.0000       0.335128         9.1193 
 168   0.0000       0.341351         9.2886 
 169   0.0000       0.348795         9.4912 
 170   0.0000       0.356357         9.6970 
 171   0.0000       0.364096         9.9076 
 172   0.0000       0.364618         9.9218 
 173   0.0000       0.367905        10.0112 
 174   0.0000       0.369359        10.0508 
 175   0.0000       0.372849        10.1457 
 176   0.0000       0.382998        10.4219 
 177   0.0000       0.390676        10.6308 
 178   0.0000       0.398854        10.8534 
 179   0.0000       0.400557        10.8997 
 180   0.0000       0.405379        11.0309 
 181   0.0000       0.408802        11.1241 
 182   0.0000       0.410105        11.1595 
 183   0.0000       0.412799        11.2328 
 184   0.0000       0.416586        11.3359 
 185   0.0000       0.418924        11.3995 
 186   0.0000       0.424597        11.5539 
 187   0.0000       0.430912        11.7257 
 188   0.0000       0.431893        11.7524 
 189   0.0000       0.436156        11.8684 
 190   0.0000       0.437478        11.9044 
 191   0.0000       0.442534        12.0420 
 192   0.0000       0.446712        12.1556 
 193   0.0000       0.452825        12.3220 
 194   0.0000       0.458180        12.4677 
 195   0.0000       0.461363        12.5543 
 196   0.0000       0.464817        12.6483 
 197   0.0000       0.467945        12.7334 
 198   0.0000       0.470589        12.8054 
 199   0.0000       0.481376        13.0989 
 200   0.0000       0.484723        13.1900 
 201   0.0000       0.489975        13.3329 
 202   0.0000       0.495808        13.4916 
 203   0.0000       0.502805        13.6820 
 204   0.0000       0.504354        13.7242 
 205   0.0000       0.512682        13.9508 
 206   0.0000       0.512793        13.9538 
 207   0.0000       0.522115        14.2075 
 208   0.0000       0.527584        14.3563 
 209   0.0000       0.533371        14.5138 
 210   0.0000       0.541159        14.7257 
 211   0.0000       0.542801        14.7704 
 212   0.0000       0.542843        14.7715 
 213   0.0000       0.557536        15.1713 
 214   0.0000       0.565479        15.3875 
 215   0.0000       0.573518        15.6062 
 216   0.0000       0.582316        15.8456 
 217   0.0000       0.585305        15.9270 
 218   0.0000       0.587028        15.9738 
 219   0.0000       0.593843        16.1593 
 220   0.0000       0.598841        16.2953 
 221   0.0000       0.615029        16.7358 
 222   0.0000       0.622680        16.9440 
 223   0.0000       0.632594        17.2138 
 224   0.0000       0.646934        17.6040 
 225   0.0000       0.648108        17.6359 
 226   0.0000       0.651585        17.7305 
 227   0.0000       0.659984        17.9591 
 228   0.0000       0.662501        18.0276 
 229   0.0000       0.669502        18.2181 
 230   0.0000       0.694597        18.9009 
 231   0.0000       0.698720        19.0131 
 232   0.0000       0.710551        19.3351 
 233   0.0000       0.740906        20.1611 
 234   0.0000       0.757525        20.6133 
 235   0.0000       0.759726        20.6732 
 236   0.0000       0.771000        20.9800 
 237   0.0000       0.780043        21.2261 
 238   0.0000       0.789932        21.4951 
 239   0.0000       0.801701        21.8154 
 240   0.0000       0.813067        22.1247 
 241   0.0000       0.823813        22.4171 
 242   0.0000       0.833573        22.6827 
 243   0.0000       0.839960        22.8565 
 244   0.0000       0.840513        22.8715 
 245   0.0000       0.843976        22.9658 
 246   0.0000       0.850900        23.1542 
 247   0.0000       0.853821        23.2337 
 248   0.0000       0.859843        23.3975 
 249   0.0000       0.866625        23.5821 
 250   0.0000       0.874048        23.7840 
 251   0.0000       0.881065        23.9750 
 252   0.0000       0.886895        24.1336 
 253   0.0000       0.889216        24.1968 
 254   0.0000       0.897081        24.4108 
 255   0.0000       0.903236        24.5783 
 256   0.0000       0.904449        24.6113 
 257   0.0000       0.910665        24.7805 
 258   0.0000       0.917535        24.9674 
 259   0.0000       0.920794        25.0561 
 260   0.0000       0.925669        25.1887 
 261   0.0000       0.926119        25.2010 
 262   0.0000       0.928736        25.2722 
 263   0.0000       0.936365        25.4798 
 264   0.0000       0.939805        25.5734 
 265   0.0000       0.948955        25.8224 
 266   0.0000       0.955211        25.9926 
 267   0.0000       0.960115        26.1261 
 268   0.0000       0.965122        26.2623 
 269   0.0000       0.968266        26.3479 
 270   0.0000       0.974309        26.5123 
 271   0.0000       0.976992        26.5853 
 272   0.0000       0.977214        26.5914 
 273   0.0000       0.982456        26.7340 
 274   0.0000       0.986518        26.8445 
 275   0.0000       0.993211        27.0266 
 276   0.0000       0.997422        27.1412 
 277   0.0000       1.008409        27.4402 
 278   0.0000       1.010477        27.4965 
 279   0.0000       1.012526        27.5522 
 280   0.0000       1.018373        27.7113 
 281   0.0000       1.026862        27.9423 
 282   0.0000       1.028058        27.9749 
 283   0.0000       1.039092        28.2751 
 284   0.0000       1.039608        28.2892 
 285   0.0000       1.054875        28.7046 
 286   0.0000       1.058713        28.8090 
 287   0.0000       1.069138        29.0927 
 288   0.0000       1.076876        29.3033 
 289   0.0000       1.088062        29.6077 
 290   0.0000       1.093468        29.7548 
 291   0.0000       1.097125        29.8543 
 292   0.0000       1.103820        30.0365 
 293   0.0000       1.105485        30.0818 
 294   0.0000       1.115571        30.3562 
 295   0.0000       1.121139        30.5077 
 296   0.0000       1.123727        30.5782 
 297   0.0000       1.146042        31.1854 
 298   0.0000       1.151412        31.3315 
 299   0.0000       1.167414        31.7670 
 300   0.0000       1.168809        31.8049 
 301   0.0000       1.171347        31.8740 
 302   0.0000       1.179398        32.0930 
 303   0.0000       1.180107        32.1123 
 304   0.0000       1.195039        32.5187 
 305   0.0000       1.200760        32.6743 
 306   0.0000       1.206564        32.8323 
 307   0.0000       1.213767        33.0283 
 308   0.0000       1.226568        33.3766 
 309   0.0000       1.237295        33.6685 
 310   0.0000       1.243058        33.8253 
 311   0.0000       1.247991        33.9596 
 312   0.0000       1.263369        34.3780 
 313   0.0000       1.265024        34.4231 
 314   0.0000       1.282244        34.8916 
 315   0.0000       1.294334        35.2206 
 316   0.0000       1.297153        35.2973 
 317   0.0000       1.306879        35.5620 
 318   0.0000       1.311004        35.6742 
 319   0.0000       1.318169        35.8692 
 320   0.0000       1.327394        36.1202 
 321   0.0000       1.337195        36.3869 
 322   0.0000       1.338037        36.4098 
 323   0.0000       1.343226        36.5510 
 324   0.0000       1.359593        36.9964 
 325   0.0000       1.371366        37.3168 
 326   0.0000       1.383731        37.6532 
 327   0.0000       1.384471        37.6734 
 328   0.0000       1.399075        38.0708 
 329   0.0000       1.403187        38.1827 
 330   0.0000       1.407545        38.3013 
 331   0.0000       1.421261        38.6745 
 332   0.0000       1.423844        38.7448 
 333   0.0000       1.424067        38.7508 
 334   0.0000       1.428855        38.8811 
 335   0.0000       1.431163        38.9439 
 336   0.0000       1.443224        39.2721 
 337   0.0000       1.449859        39.4527 
 338   0.0000       1.451244        39.4903 
 339   0.0000       1.454576        39.5810 
 340   0.0000       1.474150        40.1137 
 341   0.0000       1.483990        40.3814 
 342   0.0000       1.485852        40.4321 
 343   0.0000       1.493367        40.6366 
 344   0.0000       1.503482        40.9118 
 345   0.0000       1.507104        41.0104 
 346   0.0000       1.511928        41.1417 
 347   0.0000       1.536040        41.7978 
 348   0.0000       1.536247        41.8034 
 349   0.0000       1.546293        42.0768 
 350   0.0000       1.548163        42.1277 
 351   0.0000       1.550138        42.1814 
 352   0.0000       1.556096        42.3435 
 353   0.0000       1.571755        42.7696 
 354   0.0000       1.574538        42.8453 
 355   0.0000       1.585072        43.1320 
 356   0.0000       1.585522        43.1443 
 357   0.0000       1.592503        43.3342 
 358   0.0000       1.595318        43.4108 
 359   0.0000       1.601009        43.5657 
 360   0.0000       1.606755        43.7220 
 361   0.0000       1.611409        43.8487 
 362   0.0000       1.612764        43.8855 
 363   0.0000       1.620180        44.0873 
 364   0.0000       1.621183        44.1146 
 365   0.0000       1.627883        44.2969 
 366   0.0000       1.633292        44.4441 
 367   0.0000       1.638925        44.5974 
 368   0.0000       1.645102        44.7655 
 369   0.0000       1.656451        45.0743 
 370   0.0000       1.664082        45.2820 
 371   0.0000       1.670884        45.4671 
 372   0.0000       1.671670        45.4884 
 373   0.0000       1.677575        45.6491 
 374   0.0000       1.680402        45.7261 
 375   0.0000       1.689585        45.9760 
 376   0.0000       1.699235        46.2385 
 377   0.0000       1.699609        46.2487 
 378   0.0000       1.708023        46.4777 
 379   0.0000       1.714614        46.6570 
 380   0.0000       1.727413        47.0053 
 381   0.0000       1.735293        47.2197 
 382   0.0000       1.738895        47.3177 
 383   0.0000       1.748232        47.5718 
 384   0.0000       1.751917        47.6721 
 385   0.0000       1.755674        47.7743 
 386   0.0000       1.756481        47.7963 
 387   0.0000       1.766853        48.0785 
 388   0.0000       1.773028        48.2465 
 389   0.0000       1.778017        48.3823 
 390   0.0000       1.778077        48.3839 
 391   0.0000       1.790040        48.7095 
 392   0.0000       1.797307        48.9072 
 393   0.0000       1.801993        49.0347 
 394   0.0000       1.821114        49.5550 
 395   0.0000       1.831338        49.8332 
 396   0.0000       1.835385        49.9434 
 397   0.0000       1.836747        49.9804 
 398   0.0000       1.844845        50.2008 
 399   0.0000       1.858910        50.5835 
 400   0.0000       1.869314        50.8666 
 401   0.0000       1.898643        51.6647 
 402   0.0000       1.906137        51.8686 
 403   0.0000       1.910787        51.9952 
 404   0.0000       1.923199        52.3329 
 405   0.0000       1.932154        52.5766 
 406   0.0000       1.933982        52.6263 
 407   0.0000       1.937469        52.7212 
 408   0.0000       1.942940        52.8701 
 409   0.0000       1.949788        53.0564 
 410   0.0000       1.956582        53.2413 
 411   0.0000       1.999382        54.4060 
 412   0.0000       2.001553        54.4650 
 413   0.0000       2.014043        54.8049 
 414   0.0000       2.025170        55.1077 
 415   0.0000       2.032263        55.3007 
 416   0.0000       2.056216        55.9525 
 417   0.0000       2.060628        56.0725 
 418   0.0000       2.079505        56.5862 
 419   0.0000       2.092081        56.9284 
 420   0.0000       2.111255        57.4502 
 421   0.0000       2.112355        57.4801 
 422   0.0000       2.131202        57.9929 
 423   0.0000       2.133946        58.0676 
 424   0.0000       2.144282        58.3489 
 425   0.0000       2.154371        58.6234 
 426   0.0000       2.175561        59.2000 
 427   0.0000       2.185858        59.4802 
 428   0.0000       2.208628        60.0998 
 429   0.0000       2.228456        60.6394 
 430   0.0000       2.230446        60.6935 
 431   0.0000       2.234372        60.8003 
 432   0.0000       2.245575        61.1052 
 433   0.0000       2.246872        61.1405 
 434   0.0000       2.255134        61.3653 
 435   0.0000       2.280767        62.0628 
 436   0.0000       2.298150        62.5358 
 437   0.0000       2.304933        62.7204 
 438   0.0000       2.307643        62.7942 
 439   0.0000       2.317012        63.0491 
 440   0.0000       2.320335        63.1395 
 441   0.0000       2.336450        63.5780 
 442   0.0000       2.342000        63.7291 
 443   0.0000       2.345456        63.8231 
 444   0.0000       2.380583        64.7789 
 445   0.0000       2.386185        64.9314 
 446   0.0000       2.394543        65.1588 
 447   0.0000       2.408688        65.5437 
 448   0.0000       2.410525        65.5937 
 449   0.0000       2.416810        65.7647 
 450   0.0000       2.431973        66.1773 
 451   0.0000       2.444839        66.5275 
 452   0.0000       2.446057        66.5606 
 453   0.0000       2.456103        66.8340 
 454   0.0000       2.457903        66.8829 
 455   0.0000       2.469142        67.1888 
 456   0.0000       2.474104        67.3238 
 457   0.0000       2.485008        67.6205 
 458   0.0000       2.489986        67.7560 
 459   0.0000       2.502270        68.0902 
 460   0.0000       2.509504        68.2871 
 461   0.0000       2.514264        68.4166 
 462   0.0000       2.517654        68.5088 
 463   0.0000       2.536992        69.0351 
 464   0.0000       2.547086        69.3097 
 465   0.0000       2.555250        69.5319 
 466   0.0000       2.563772        69.7638 
 467   0.0000       2.572495        70.0011 
 468   0.0000       2.589316        70.4589 
 469   0.0000       2.604115        70.8616 
 470   0.0000       2.606314        70.9214 
 471   0.0000       2.614484        71.1437 
 472   0.0000       2.614688        71.1493 
 473   0.0000       2.626912        71.4819 
 474   0.0000       2.678303        72.8803 
 475   0.0000       2.710312        73.7514 
 476   0.0000       2.738493        74.5182 
 477   0.0000       2.749602        74.8205 
 478   0.0000       2.775478        75.5246 
 479   0.0000       2.803854        76.2968 
 480   0.0000       2.827000        76.9266 
 481   0.0000       2.925385        79.6038 
 482   0.0000       3.045853        82.8819 
 483   0.0000       3.243513        88.2605 
 484   0.0000       3.412643        92.8627 
 485   0.0000       4.976959       135.4299 
 486   0.0000       4.981739       135.5600 
 487   0.0000       4.992850       135.8624 
 488   0.0000       5.001093       136.0867 
 489   0.0000       5.006734       136.2402 
 490   0.0000       5.008002       136.2747 
 491   0.0000       5.014806       136.4598 
 492   0.0000       5.025763       136.7580 
 493   0.0000       5.030768       136.8941 
 494   0.0000       5.038225       137.0971 
 495   0.0000       5.043404       137.2380 
 496   0.0000       5.074170       138.0752 
 497   0.0000       5.079162       138.2110 
 498   0.0000       5.157983       140.3558 
 499   0.0000       5.182902       141.0339 
 500   0.0000       5.214077       141.8822 
 501   0.0000       5.228816       142.2833 
 502   0.0000       5.231538       142.3574 
 503   0.0000       5.247593       142.7943 
 504   0.0000       5.266363       143.3050 
 505   0.0000       5.282694       143.7494 
 506   0.0000       5.295539       144.0990 
 507   0.0000       5.298290       144.1738 
 508   0.0000       5.301457       144.2600 
 509   0.0000       5.305879       144.3803 
 510   0.0000       5.350899       145.6054 
 511   0.0000       5.358967       145.8249 
 512   0.0000       5.364745       145.9821 
 513   0.0000       5.402768       147.0168 
 514   0.0000       5.434549       147.8816 
 515   0.0000       5.447781       148.2417 
 516   0.0000       5.464762       148.7037 
 517   0.0000       5.484697       149.2462 
 518   0.0000       5.547699       150.9606 
 519   0.0000       5.559822       151.2905 
 520   0.0000       5.576335       151.7398 
 521   0.0000       5.606475       152.5599 
 522   0.0000       5.627636       153.1358 
 523   0.0000       5.642615       153.5434 
 524   0.0000       5.662390       154.0815 
 525   0.0000       5.725104       155.7880 
 526   0.0000       5.735028       156.0580 
 527   0.0000       5.775911       157.1705 
 528   0.0000       5.823174       158.4566 
 529   0.0000       5.847443       159.1170 
 530   0.0000       5.868044       159.6776 
 531   0.0000       5.934292       161.4803 
 532   0.0000       6.150483       167.3631 
 533   0.0000       6.295057       171.2972 
 534   0.0000      29.582240       804.9737 
 535   0.0000      29.712044       808.5058 
 536   0.0000      29.794268       810.7432 
 537   0.0000      29.798890       810.8690 
 538   0.0000      29.826345       811.6161 
 539   0.0000      29.841589       812.0309 
 540   0.0000      29.915673       814.0469 
 541   0.0000      29.945966       814.8712 
 542   0.0000      29.973975       815.6333 
 543   0.0000      29.995957       816.2315 
 544   0.0000      30.025835       817.0445 
 545   0.0000      30.055818       817.8604 
 546   0.0000      30.068229       818.1981 
 547   0.0000      30.094670       818.9176 
 548   0.0000      30.108841       819.3032 
 549   0.0000      30.120560       819.6221 
 550   0.0000      30.154153       820.5362 
 551   0.0000      30.204837       821.9154 
 552   0.0000      30.233744       822.7020 
 553   0.0000      30.245949       823.0341 
 554   0.0000      30.268157       823.6384 
 555   0.0000      30.299503       824.4914 
 556   0.0000      30.455566       828.7381 
 557   0.0000      30.522418       830.5572 
 558   0.0000      36.604973       996.0720 
 559   0.0000      36.609538       996.1962 
 560   0.0000      36.619742       996.4738 
 561   0.0000      36.625164       996.6214 
 562   0.0000      36.631794       996.8018 
 563   0.0000      36.636219       996.9222 
 564   0.0000      36.651802       997.3463 
 565   0.0000      36.657123       997.4910 
 566   0.0000      36.663460       997.6635 
 567   0.0000      36.667876       997.7836 
 568   0.0000      36.687805       998.3259 
 569   0.0000      36.700306       998.6661 
 570   0.0000      36.771212      1000.5956 
 571   0.0000      36.808398      1001.6074 
 572   0.0000      36.820929      1001.9484 
 573   0.0000      36.848948      1002.7109 
 574   0.0000      36.859700      1003.0034 
 575   0.0000      36.873496      1003.3788 
 576   0.0000      36.878822      1003.5238 
 577   0.0000      36.922574      1004.7143 
 578   0.0000      36.926700      1004.8266 
 579   0.0000      36.932037      1004.9718 
 580   0.0000      36.990538      1006.5637 
 581   0.0000      37.019567      1007.3536 
 582   0.0000      37.024936      1007.4997 

                 SPIN DOWN ORBITALS
  NO   OCC          E(Eh)            E(eV) 
   0   1.0000     -10.251565      -278.9593 
   1   1.0000     -10.248358      -278.8720 
   2   1.0000     -10.242331      -278.7080 
   3   1.0000     -10.231378      -278.4100 
   4   1.0000     -10.231269      -278.4070 
   5   1.0000     -10.230908      -278.3972 
   6   1.0000     -10.226616      -278.2804 
   7   1.0000     -10.225667      -278.2545 
   8   1.0000     -10.225515      -278.2504 
   9   1.0000     -10.224532      -278.2237 
  10   1.0000     -10.222583      -278.1706 
  11   1.0000     -10.222447      -278.1669 
  12   1.0000     -10.218721      -278.0655 
  13   1.0000     -10.217228      -278.0249 
  14   1.0000     -10.203114      -277.6408 
  15   1.0000     -10.194678      -277.4113 
  16   1.0000     -10.192463      -277.3510 
  17   1.0000     -10.190808      -277.3060 
  18   1.0000     -10.189103      -277.2596 
  19   1.0000     -10.185199      -277.1534 
  20   1.0000     -10.182594      -277.0825 
  21   1.0000     -10.179678      -277.0031 
  22   1.0000     -10.178653      -276.9752 
  23   1.0000     -10.176093      -276.9056 
  24   1.0000      -0.890697       -24.2371 
  25   1.0000      -0.883085       -24.0300 
  26   1.0000      -0.831008       -22.6129 
  27   1.0000      -0.813615       -22.1396 
  28   1.0000      -0.800473       -21.7820 
  29   1.0000      -0.794672       -21.6241 
  30   1.0000      -0.775940       -21.1144 
  31   1.0000      -0.770610       -20.9694 
  32   1.0000      -0.751280       -20.4434 
  33   1.0000      -0.737394       -20.0655 
  34   1.0000      -0.711092       -19.3498 
  35   1.0000      -0.700108       -19.0509 
  36   1.0000      -0.661815       -18.0089 
  37   1.0000      -0.653864       -17.7925 
  38   1.0000      -0.631223       -17.1764 
  39   1.0000      -0.629120       -17.1192 
  40   1.0000      -0.628622       -17.1057 
  41   1.0000      -0.600906       -16.3515 
  42   1.0000      -0.585431       -15.9304 
  43   1.0000      -0.572365       -15.5748 
  44   1.0000      -0.559033       -15.2121 
  45   1.0000      -0.524406       -14.2698 
  46   1.0000      -0.521384       -14.1876 
  47   1.0000      -0.499242       -13.5851 
  48   1.0000      -0.492079       -13.3901 
  49   1.0000      -0.480914       -13.0863 
  50   1.0000      -0.476738       -12.9727 
  51   1.0000      -0.474944       -12.9239 
  52   1.0000      -0.455534       -12.3957 
  53   1.0000      -0.446136       -12.1400 
  54   1.0000      -0.444560       -12.0971 
  55   1.0000      -0.434106       -11.8126 
  56   1.0000      -0.433268       -11.7898 
  57   1.0000      -0.429387       -11.6842 
  58   1.0000      -0.423117       -11.5136 
  59   1.0000      -0.417899       -11.3716 
  60   1.0000      -0.409398       -11.1403 
  61   1.0000      -0.401568       -10.9272 
  62   1.0000      -0.387415       -10.5421 
  63   1.0000      -0.382206       -10.4004 
  64   1.0000      -0.380505       -10.3541 
  65   1.0000      -0.374031       -10.1779 
  66   1.0000      -0.371039       -10.0965 
  67   1.0000      -0.366674        -9.9777 
  68   1.0000      -0.365254        -9.9391 
  69   1.0000      -0.352398        -9.5892 
  70   1.0000      -0.340497        -9.2654 
  71   1.0000      -0.337959        -9.1963 
  72   1.0000      -0.335761        -9.1365 
  73   1.0000      -0.332099        -9.0369 
  74   1.0000      -0.330579        -8.9955 
  75   1.0000      -0.329122        -8.9559 
  76   1.0000      -0.325813        -8.8658 
  77   1.0000      -0.298864        -8.1325 
  78   1.0000      -0.292588        -7.9617 
  79   1.0000      -0.277545        -7.5524 
  80   1.0000      -0.262697        -7.1483 
  81   1.0000      -0.246716        -6.7135 
  82   1.0000      -0.240731        -6.5506 
  83   1.0000      -0.239669        -6.5217 
  84   0.0000      -0.156410        -4.2561 
  85   0.0000      -0.072398        -1.9701 
  86   0.0000      -0.032074        -0.8728 
  87   0.0000      -0.022447        -0.6108 
  88   0.0000      -0.015633        -0.4254 
  89   0.0000       0.001193         0.0325 
  90   0.0000       0.014295         0.3890 
  91   0.0000       0.016289         0.4433 
  92   0.0000       0.022413         0.6099 
  93   0.0000       0.025201         0.6857 
  94   0.0000       0.028331         0.7709 
  95   0.0000       0.030900         0.8408 
  96   0.0000       0.042012         1.1432 
  97   0.0000       0.044772         1.2183 
  98   0.0000       0.049782         1.3547 
[...]
  Y          -0.0024303            0.9079939            0.4189763
  Z           0.9999969            0.0023921            0.0006165

Notes:  (1) The A matrix conforms to the "SAI" spin Hamiltonian convention.
        (2) Tensor is right-handed.

 -----------------------------------------------------------
 Nucleus  46H : A:ISTP=    1 I=  0.5 P=533.5514 MHz/au**3
                Q:ISTP=    2 I=  1.0 Q=  0.0029 barn     
 -----------------------------------------------------------
 Solving for nuclear perturbation:
Forming RHS of the CP-SCF equations         ... 
Calc. nucleus orbit integrals (SHARK)       ... done

------------------------------------------------------------------------------
                           ORCA CP-SCF CALCULATION
------------------------------------------------------------------------------

Input orbitals are from        ... EPRII.gbw
Input Perturbation             ... EPRII.pin.tmp
Wavefunction output            ... EPRII.pout.tmp
Perturbation mode              ... Imaginary perturbation
Solver                         ... POPLE
Max. number of iterations      ... 64
Convergence tolerance          ... 1.000e-03
Integral handling              ... Direct
DFT GridXC                     ... 1
COSX GridX                     ... 1
COSX IntAccX                   ... 3.067
COSX Algorithm                 ... Auto
Number of perturbations        ... 3
Number of operators            ... 2
Orbital ranges used for CP-SCF:
 Operator 0:  Orbitals   0... 84  to  85...582
 Operator 1:  Orbitals   0... 83  to  84...582
Variables per perturbation     ... 84246
DFT calculation                         ... on
XC functional terms                     ... off
Hybrid DFT                              ... on
   Exchange mixing (SCF)                ...  0.200
   Exchange mixing (CP-SCF)             ...  0.200
   GGA exch. scaling(SCF)               ...  0.720
   GGA exch. scaling (CP-SCF)           ...  0.720
   GGA corr. scaling (SCF)              ...  0.810
   GGA corr. scaling (CP-SCF)           ...  0.810

CP-SCF GRID
-----------

General Integration Accuracy     IntAcc      ... 3.467
Radial Grid Type                 RadialGrid  ... OptM3 with GC (2021)
Angular Grid (max. ang.)         AngularGrid ... 1 (Lebedev-50)
Angular grid pruning method      GridPruning ... 4 (adaptive)
Weight generation scheme         WeightScheme... Becke
Basis function cutoff            BFCut       ... 1.0000e-10
Integration weight cutoff        WCut        ... 1.0000e-14
Angular grids for H and He will be reduced by one unit
Partially contracted basis set               ... off
Rotationally invariant grid construction     ... off

Total number of grid points                  ...    31842
Total number of batches                      ...      519
Average number of points per batch           ...       61
Average number of grid points per atom       ...      650

CP-SCF GRIDX
------------

General Integration Accuracy     IntAcc      ... 3.067
Radial Grid Type                 RadialGrid  ... OptM3 with GC (2021)
Angular Grid (max. ang.)         AngularGrid ... 1 (Lebedev-50)
Angular grid pruning method      GridPruning ... 4 (adaptive)
Weight generation scheme         WeightScheme... Becke
Basis function cutoff            BFCut       ... 1.0000e-10
Integration weight cutoff        WCut        ... 1.0000e-14
Angular grids for H and He will be reduced by one unit
Partially contracted basis set               ... on
Rotationally invariant grid construction     ... off

Total number of grid points                  ...    14941
Total number of batches                      ...      262
Average number of points per batch           ...       57
Average number of grid points per atom       ...      305

Memory available               ... 849.7 MB
Memory needed per perturbation ...  20.0 MB
Perturbations treated per batch... 3
Number of batches              ... 1
     CP-SCF ITERATION   0:   4.6171e-02 (   2.3 sec   0/  3 done)
     CP-SCF ITERATION   1:   2.1393e-03 (   2.2 sec   0/  3 done)
     CP-SCF ITERATION   2:   4.1941e-04 (   2.2 sec   3/  3 done)
                    *** THE CP-SCF HAS CONVERGED ***

Forming final perturbed densities           ... done
Transforming perturbed density to AO basis  ... done

 Raw HFC matrix (all values in MHz): 
 -----------------------------------
                -3.3392               0.7641               0.0019
                 0.7639              -1.8787               0.0039
                 0.0019               0.0039              -3.5479

 A(FC)          -2.9224              -2.9224              -2.9224
 A(SD)           1.3702              -0.6254              -0.7448
 A(ORB+DIA)      0.0002              -0.0001               0.0014    A(PC) =   0.0005
 A(ORB)         -0.0001               0.0000               0.0013    A(PC) =   0.0004
 A(DIA)          0.0003              -0.0001               0.0001    A(PC) =   0.0001
             ----------           ----------           ----------
 A(Tot)         -1.5520              -3.5479              -3.6658    A(iso)=   -2.9219
 Orientation: 
  X           0.3931106            0.0010679            0.9194906
  Y           0.9194887           -0.0027963           -0.3931065
  Z           0.0021513            0.9999955           -0.0020812

Notes:  (1) The A matrix conforms to the "SAI" spin Hamiltonian convention.
        (2) Tensor is right-handed.

 -----------------------------------------------------------
 Nucleus  47H : A:ISTP=    1 I=  0.5 P=533.5514 MHz/au**3
                Q:ISTP=    2 I=  1.0 Q=  0.0029 barn     
 -----------------------------------------------------------
 Solving for nuclear perturbation:
Forming RHS of the CP-SCF equations         ... 
Calc. nucleus orbit integrals (SHARK)       ... done

------------------------------------------------------------------------------
                           ORCA CP-SCF CALCULATION
------------------------------------------------------------------------------

Input orbitals are from        ... EPRII.gbw
Input Perturbation             ... EPRII.pin.tmp
Wavefunction output            ... EPRII.pout.tmp
Perturbation mode              ... Imaginary perturbation
Solver                         ... POPLE
Max. number of iterations      ... 64
Convergence tolerance          ... 1.000e-03
Integral handling              ... Direct
DFT GridXC                     ... 1
COSX GridX                     ... 1
COSX IntAccX                   ... 3.067
COSX Algorithm                 ... Auto
Number of perturbations        ... 3
Number of operators            ... 2
Orbital ranges used for CP-SCF:
 Operator 0:  Orbitals   0... 84  to  85...582
 Operator 1:  Orbitals   0... 83  to  84...582
Variables per perturbation     ... 84246
DFT calculation                         ... on
XC functional terms                     ... off
Hybrid DFT                              ... on
   Exchange mixing (SCF)                ...  0.200
   Exchange mixing (CP-SCF)             ...  0.200
   GGA exch. scaling(SCF)               ...  0.720
   GGA exch. scaling (CP-SCF)           ...  0.720
   GGA corr. scaling (SCF)              ...  0.810
   GGA corr. scaling (CP-SCF)           ...  0.810

CP-SCF GRID
-----------

General Integration Accuracy     IntAcc      ... 3.467
Radial Grid Type                 RadialGrid  ... OptM3 with GC (2021)
Angular Grid (max. ang.)         AngularGrid ... 1 (Lebedev-50)
Angular grid pruning method      GridPruning ... 4 (adaptive)
Weight generation scheme         WeightScheme... Becke
Basis function cutoff            BFCut       ... 1.0000e-10
Integration weight cutoff        WCut        ... 1.0000e-14
Angular grids for H and He will be reduced by one unit
Partially contracted basis set               ... off
Rotationally invariant grid construction     ... off

Total number of grid points                  ...    31842
Total number of batches                      ...      519
Average number of points per batch           ...       61
Average number of grid points per atom       ...      650

CP-SCF GRIDX
------------

General Integration Accuracy     IntAcc      ... 3.067
Radial Grid Type                 RadialGrid  ... OptM3 with GC (2021)
Angular Grid (max. ang.)         AngularGrid ... 1 (Lebedev-50)
Angular grid pruning method      GridPruning ... 4 (adaptive)
Weight generation scheme         WeightScheme... Becke
Basis function cutoff            BFCut       ... 1.0000e-10
Integration weight cutoff        WCut        ... 1.0000e-14
Angular grids for H and He will be reduced by one unit
Partially contracted basis set               ... on
Rotationally invariant grid construction     ... off

Total number of grid points                  ...    14941
Total number of batches                      ...      262
Average number of points per batch           ...       57
Average number of grid points per atom       ...      305

Memory available               ... 849.0 MB
Memory needed per perturbation ...  20.0 MB
Perturbations treated per batch... 3
Number of batches              ... 1
     CP-SCF ITERATION   0:   4.6241e-02 (   2.2 sec   0/  3 done)
     CP-SCF ITERATION   1:   2.1351e-03 (   2.2 sec   0/  3 done)
     CP-SCF ITERATION   2:   4.1626e-04 (   2.2 sec   3/  3 done)
                    *** THE CP-SCF HAS CONVERGED ***

Forming final perturbed densities           ... done
Transforming perturbed density to AO basis  ... done

 Raw HFC matrix (all values in MHz): 
 -----------------------------------
                -3.4605              -0.6261              -0.0011
                -0.6261              -1.7524               0.0039
                -0.0011               0.0039              -3.5405

 A(FC)          -2.9183              -2.9183              -2.9183
 A(SD)           1.3706              -0.6221              -0.7485
 A(ORB+DIA)      0.0002              -0.0001               0.0015    A(PC) =   0.0005
 A(ORB)         -0.0001               0.0000               0.0014    A(PC) =   0.0005
 A(DIA)          0.0003              -0.0001               0.0001    A(PC) =   0.0001
             ----------           ----------           ----------
 A(Tot)         -1.5475              -3.5405              -3.6654    A(iso)=   -2.9178
 Orientation: 
  X          -0.3110410            0.0016025            0.9503951
  Y           0.9503943           -0.0016133            0.3110434
  Z           0.0020318            0.9999974           -0.0010212

Notes:  (1) The A matrix conforms to the "SAI" spin Hamiltonian convention.
        (2) Tensor is right-handed.

 -----------------------------------------------------------
 Nucleus  48H : A:ISTP=    1 I=  0.5 P=533.5514 MHz/au**3
                Q:ISTP=    2 I=  1.0 Q=  0.0029 barn     
 -----------------------------------------------------------
 Solving for nuclear perturbation:
Forming RHS of the CP-SCF equations         ... 
Calc. nucleus orbit integrals (SHARK)       ... done

------------------------------------------------------------------------------
                           ORCA CP-SCF CALCULATION
------------------------------------------------------------------------------

Input orbitals are from        ... EPRII.gbw
Input Perturbation             ... EPRII.pin.tmp
Wavefunction output            ... EPRII.pout.tmp
Perturbation mode              ... Imaginary perturbation
Solver                         ... POPLE
Max. number of iterations      ... 64
Convergence tolerance          ... 1.000e-03
Integral handling              ... Direct
DFT GridXC                     ... 1
COSX GridX                     ... 1
COSX IntAccX                   ... 3.067
COSX Algorithm                 ... Auto
Number of perturbations        ... 3
Number of operators            ... 2
Orbital ranges used for CP-SCF:
 Operator 0:  Orbitals   0... 84  to  85...582
 Operator 1:  Orbitals   0... 83  to  84...582
Variables per perturbation     ... 84246
DFT calculation                         ... on
XC functional terms                     ... off
Hybrid DFT                              ... on
   Exchange mixing (SCF)                ...  0.200
   Exchange mixing (CP-SCF)             ...  0.200
   GGA exch. scaling(SCF)               ...  0.720
   GGA exch. scaling (CP-SCF)           ...  0.720
   GGA corr. scaling (SCF)              ...  0.810
   GGA corr. scaling (CP-SCF)           ...  0.810

CP-SCF GRID
-----------

General Integration Accuracy     IntAcc      ... 3.467
Radial Grid Type                 RadialGrid  ... OptM3 with GC (2021)
Angular Grid (max. ang.)         AngularGrid ... 1 (Lebedev-50)
Angular grid pruning method      GridPruning ... 4 (adaptive)
Weight generation scheme         WeightScheme... Becke
Basis function cutoff            BFCut       ... 1.0000e-10
Integration weight cutoff        WCut        ... 1.0000e-14
Angular grids for H and He will be reduced by one unit
Partially contracted basis set               ... off
Rotationally invariant grid construction     ... off

Total number of grid points                  ...    31842
Total number of batches                      ...      519
Average number of points per batch           ...       61
Average number of grid points per atom       ...      650

CP-SCF GRIDX
------------

General Integration Accuracy     IntAcc      ... 3.067
Radial Grid Type                 RadialGrid  ... OptM3 with GC (2021)
Angular Grid (max. ang.)         AngularGrid ... 1 (Lebedev-50)
Angular grid pruning method      GridPruning ... 4 (adaptive)
Weight generation scheme         WeightScheme... Becke
Basis function cutoff            BFCut       ... 1.0000e-10
Integration weight cutoff        WCut        ... 1.0000e-14
Angular grids for H and He will be reduced by one unit
Partially contracted basis set               ... on
Rotationally invariant grid construction     ... off

Total number of grid points                  ...    14941
Total number of batches                      ...      262
Average number of points per batch           ...       57
Average number of grid points per atom       ...      305

Memory available               ... 848.3 MB
Memory needed per perturbation ...  20.0 MB
Perturbations treated per batch... 3
Number of batches              ... 1
     CP-SCF ITERATION   0:   4.1979e-02 (   2.3 sec   0/  3 done)
     CP-SCF ITERATION   1:   1.7593e-03 (   2.4 sec   1/  3 done)
     CP-SCF ITERATION   2:   9.7788e-05 (   1.9 sec   3/  3 done)
                    *** THE CP-SCF HAS CONVERGED ***

Forming final perturbed densities           ... done
Transforming perturbed density to AO basis  ... done

 Raw HFC matrix (all values in MHz): 
 -----------------------------------
                 1.8375               0.2947               0.0010
                 0.2946               1.1504               0.0007
                 0.0010               0.0007               0.8437

 A(FC)           1.2772               1.2772               1.2772
 A(SD)          -0.4335              -0.2361               0.6696
 A(ORB+DIA)      0.0000               0.0002              -0.0003    A(PC) =  -0.0000
 A(ORB)         -0.0000               0.0002              -0.0004    A(PC) =  -0.0001
 A(DIA)          0.0001               0.0000               0.0001    A(PC) =   0.0001
             ----------           ----------           ----------
 A(Tot)          0.8437               1.0413               1.9465    A(iso)=    1.2772
 Orientation: 
  X          -0.0004292           -0.3471865           -0.9377960
  Y          -0.0018397            0.9377948           -0.3471852
  Z           0.9999982            0.0015762           -0.0010412

Notes:  (1) The A matrix conforms to the "SAI" spin Hamiltonian convention.
        (2) Tensor is right-handed.


--------------------------------------------------------------------------------
----------------------------------------------------------------------------
                           ORCA EULER ANGLE PROGRAM
----------------------------------------------------------------------------

Only g-tensor available        -->  using g-tensor as reference tensor

Reference tensor               ...  g

g-tensor ordering              ...  |g_min> --> |gx>
                                    |g_mid> --> |gy>
                                    |g_max> --> |gz>

A- and EFG-tensor ordering     ...  the axes |Ax>, |Qx>, |Ay>, etc. are assigned
                                    such that the Euler rotation is minimal. You
                                    can find the respective eigenvalues as Ax,
                                    EFGx, Ay, etc. in the tables below.
                                    The relation of |Ax>, |Ay>,  etc. to Amin, Amid, etc.
                                    (as printed in the ORCA EPR/NMR CALCULATION Output)
                                    is obtained in the detailed printout.

Euler rotation around          ...  z - y - z
   First rotation              -->  by alpha around z
   Second rotation             -->  by beta around y'
   Third rotation              -->  by gamma around z''
   Positive / Negative angle   -->  clockwise / counterclockwise rotation

Plot EFG-tensors                    (-)
Plot HFC-tensors                    (-)
Detailed Printout                   (-)

-------------------------------------------------------------------------
          Euler rotation of hyperfine tensor to g-tensor
-------------------------------------------------------------------------

-------------------------------------------------------------------
 Atom  |   Alpha    Beta    Gamma   |   Ax       Ay       Az 
       |          [degrees]         |           [MHz]         
-------------------------------------------------------------------
  9H       90.5     36.8    -90.4       2.73     3.60     6.68
 10H       91.0     18.5    -91.0     -10.34    -3.93   -10.96
 12H       54.1     14.4    -37.4      13.05    17.78    14.66
 13H      127.3     14.9   -143.9      13.05    17.78    14.67
 15H       77.0     28.3    -62.8      -0.98     0.85    -0.76
 16H      104.3     28.6   -118.3      -0.98     0.85    -0.76
 18H      146.7      6.0   -155.9      -0.38     0.87    -0.29
 19H       36.8      5.4    -27.5      -0.38     0.87    -0.29
 21H       93.3     15.9   -101.1      -0.17     0.39    -0.11
 22H       89.1     15.8    -81.2      -0.17     0.39    -0.11
 24H      -96.7     27.5    112.2      -5.16    -3.52    -4.43
 25H      -84.7     27.2     69.2      -5.16    -3.52    -4.42
 27H      -83.8     26.2     71.1      -0.14     1.51     0.06
 28H      -97.7     26.4    110.3      -0.14     1.51     0.06
 30H      -95.1     28.5    104.9      -0.32     0.28    -0.16
 31H      -86.3     28.3     76.4      -0.32     0.28    -0.16
 33H      -91.0     15.6     98.6      -0.21     0.32    -0.14
 34H      -91.5     15.5     83.9      -0.21     0.32    -0.14
 36H       93.2      6.5    -93.2      -0.18     0.29    -0.14
 37H      -91.0     19.5     91.0      -0.14     0.21    -0.09
 44H     -101.2      1.7    101.3      -3.43    -5.18    -1.25
 45H      -90.8     24.2     90.7       0.84     1.05     1.94
 46H      -91.0     22.6     91.0      -3.55    -1.55    -3.67
 47H       91.3     18.7    -91.3      -3.54    -1.55    -3.67
 48H       90.9     20.9    -90.8       0.84     1.04     1.95
-------------------------------------------------------------------


Maximum memory used throughout the entire EPRNMR-calculation: 249.1 MB

Timings for individual modules:

Sum of individual times         ...     5468.536 sec (=  91.142 min)
GTO integral calculation        ...        6.706 sec (=   0.112 min)   0.1 %
Spin-Orbit-Coupling Matrices    ...       15.054 sec (=   0.251 min)   0.3 %
SCF iterations                  ...       40.975 sec (=   0.683 min)   0.7 %
EPR/NMR calculation             ...     5405.802 sec (=  90.097 min)  98.9 %
                             ****ORCA TERMINATED NORMALLY****
TOTAL RUN TIME: 0 days 1 hours 31 minutes 13 seconds 726 msec
