
                                 *****************
                                 * O   R   C   A *
                                 *****************

                                            #,                                       
                                            ###                                      
                                            ####                                     
                                            #####                                    
                                            ######                                   
                                           ########,                                 
                                     ,,################,,,,,                         
                               ,,#################################,,                 
                          ,,##########################################,,             
                       ,#########################################, ''#####,          
                    ,#############################################,,   '####,        
                  ,##################################################,,,,####,       
                ,###########''''           ''''###############################       
              ,#####''   ,,,,##########,,,,          '''####'''          '####       
            ,##' ,,,,###########################,,,                        '##       
           ' ,,###''''                  '''############,,,                           
         ,,##''                                '''############,,,,        ,,,,,,###''
      ,#''                                            '''#######################'''  
     '                                                          ''''####''''         
             ,#######,   #######,   ,#######,      ##                                
            ,#'     '#,  ##    ##  ,#'     '#,    #''#        ######   ,####,        
            ##       ##  ##   ,#'  ##            #'  '#       #        #'  '#        
            ##       ##  #######   ##           ,######,      #####,   #    #        
            '#,     ,#'  ##    ##  '#,     ,#' ,#      #,         ##   #,  ,#        
             '#######'   ##     ##  '#######'  #'      '#     #####' # '####'        



                  #######################################################
                  #                        -***-                        #
                  #          Department of theory and spectroscopy      #
                  #    Directorship and core code : Frank Neese         #
                  #        Max Planck Institute fuer Kohlenforschung    #
                  #                Kaiser Wilhelm Platz 1               #
                  #                 D-45470 Muelheim/Ruhr               #
                  #                      Germany                        #
                  #                                                     #
                  #                  All rights reserved                #
                  #                        -***-                        #
                  #######################################################


                         Program Version 5.0.4 -  RELEASE  -


 With contributions from (in alphabetic order):
   Daniel Aravena         : Magnetic Suceptibility
   Michael Atanasov       : Ab Initio Ligand Field Theory (pilot matlab implementation)
   Alexander A. Auer      : GIAO ZORA, VPT2 properties, NMR spectrum
   Ute Becker             : Parallelization
   Giovanni Bistoni       : ED, misc. LED, open-shell LED, HFLD
   Martin Brehm           : Molecular dynamics
   Dmytro Bykov           : SCF Hessian
   Vijay G. Chilkuri      : MRCI spin determinant printing, contributions to CSF-ICE
   Dipayan Datta          : RHF DLPNO-CCSD density
   Achintya Kumar Dutta   : EOM-CC, STEOM-CC
   Dmitry Ganyushin       : Spin-Orbit,Spin-Spin,Magnetic field MRCI
   Miquel Garcia          : C-PCM and meta-GGA Hessian, CC/C-PCM, Gaussian charge scheme
   Yang Guo               : DLPNO-NEVPT2, F12-NEVPT2, CIM, IAO-localization
   Andreas Hansen         : Spin unrestricted coupled pair/coupled cluster methods
   Benjamin Helmich-Paris : MC-RPA, TRAH-SCF, COSX integrals
   Lee Huntington         : MR-EOM, pCC
   Robert Izsak           : Overlap fitted RIJCOSX, COSX-SCS-MP3, EOM
   Marcus Kettner         : VPT2
   Christian Kollmar      : KDIIS, OOCD, Brueckner-CCSD(T), CCSD density, CASPT2, CASPT2-K
   Simone Kossmann        : Meta GGA functionals, TD-DFT gradient, OOMP2, MP2 Hessian
   Martin Krupicka        : Initial AUTO-CI
   Lucas Lang             : DCDCAS
   Marvin Lechner         : AUTO-CI (C++ implementation), FIC-MRCC
   Dagmar Lenk            : GEPOL surface, SMD
   Dimitrios Liakos       : Extrapolation schemes; Compound Job, initial MDCI parallelization
   Dimitrios Manganas     : Further ROCIS development; embedding schemes
   Dimitrios Pantazis     : SARC Basis sets
   Anastasios Papadopoulos: AUTO-CI, single reference methods and gradients
   Taras Petrenko         : DFT Hessian,TD-DFT gradient, ASA, ECA, R-Raman, ABS, FL, XAS/XES, NRVS
   Peter Pinski           : DLPNO-MP2, DLPNO-MP2 Gradient
   Christoph Reimann      : Effective Core Potentials
   Marius Retegan         : Local ZFS, SOC
   Christoph Riplinger    : Optimizer, TS searches, QM/MM, DLPNO-CCSD(T), (RO)-DLPNO pert. Triples
   Tobias Risthaus        : Range-separated hybrids, TD-DFT gradient, RPA, STAB
   Michael Roemelt        : Original ROCIS implementation
   Masaaki Saitow         : Open-shell DLPNO-CCSD energy and density
   Barbara Sandhoefer     : DKH picture change effects
   Avijit Sen             : IP-ROCIS
   Kantharuban Sivalingam : CASSCF convergence, NEVPT2, FIC-MRCI
   Bernardo de Souza      : ESD, SOC TD-DFT
   Georgi Stoychev        : AutoAux, RI-MP2 NMR, DLPNO-MP2 response
   Willem Van den Heuvel  : Paramagnetic NMR
   Boris Wezisla          : Elementary symmetry handling
   Frank Wennmohs         : Technical directorship


 We gratefully acknowledge several colleagues who have allowed us to
 interface, adapt or use parts of their codes:
   Stefan Grimme, W. Hujo, H. Kruse, P. Pracht,  : VdW corrections, initial TS optimization,
                  C. Bannwarth, S. Ehlert          DFT functionals, gCP, sTDA/sTD-DF
   Ed Valeev, F. Pavosevic, A. Kumar             : LibInt (2-el integral package), F12 methods
   Garnet Chan, S. Sharma, J. Yang, R. Olivares  : DMRG
   Ulf Ekstrom                                   : XCFun DFT Library
   Mihaly Kallay                                 : mrcc  (arbitrary order and MRCC methods)
   Jiri Pittner, Ondrej Demel                    : Mk-CCSD
   Frank Weinhold                                : gennbo (NPA and NBO analysis)
   Christopher J. Cramer and Donald G. Truhlar   : smd solvation model
   Lars Goerigk                                  : TD-DFT with DH, B97 family of functionals
   V. Asgeirsson, H. Jonsson                     : NEB implementation
   FAccTs GmbH                                   : IRC, NEB, NEB-TS, DLPNO-Multilevel, CI-OPT
                                                   MM, QMMM, 2- and 3-layer-ONIOM, Crystal-QMMM,
                                                   LR-CPCM, SF, NACMEs, symmetry and pop. for TD-DFT,
                                                   nearIR, NL-DFT gradient (VV10), updates on ESD,
                                                   ML-optimized integration grids
   S Lehtola, MJT Oliveira, MAL Marques          : LibXC Library
   Liviu Ungur et al                             : ANISO software


 Your calculation uses the libint2 library for the computation of 2-el integrals
 For citations please refer to: http://libint.valeyev.net

 Your ORCA version has been built with support for libXC version: 5.1.0
 For citations please refer to: https://tddft.org/programs/libxc/

 This ORCA versions uses:
   CBLAS   interface :  Fast vector & matrix operations
   LAPACKE interface :  Fast linear algebra routines
   SCALAPACK package :  Parallel linear algebra routines
   Shared memory     :  Shared parallel matrices
   BLAS/LAPACK       :  OpenBLAS 0.3.15  USE64BITINT DYNAMIC_ARCH NO_AFFINITY SkylakeX SINGLE_THREADED
        Core in use  :  SkylakeX
   Copyright (c) 2011-2014, The OpenBLAS Project




***************************************
The coordinates will be read from file: opt.xyz
***************************************


================================================================================

----- Orbital basis set information -----
Your calculation utilizes the basis: EPR-II
   V. Barone, in Recent Advances in Density Functional Methods, Part 1 (ed. D. P. Chong), World Scientific, Singapore, 1995, p. 287.

----- AuxJ basis set information -----
Your calculation utilizes the AutoAux generation procedure.
  G. L. Stoychev, A. A. Auer, F. Neese, J. Chem. Theory Comput. 13, 554 (2017)

----- AuxC basis set information -----
Your calculation utilizes the AutoAux generation procedure.
  G. L. Stoychev, A. A. Auer, F. Neese, J. Chem. Theory Comput. 13, 554 (2017)

----- AuxJK basis set information -----
Your calculation utilizes the AutoAux generation procedure.
  G. L. Stoychev, A. A. Auer, F. Neese, J. Chem. Theory Comput. 13, 554 (2017)

================================================================================
                                        WARNINGS
                       Please study these warnings very carefully!
================================================================================

WARNING: Old DensityContainer found on disk!
         Will remove this file - 
         If you want to keep old densities, please start your calculation with a different basename. 


WARNING: your system is open-shell and RHF/RKS was chosen
  ===> : WILL SWITCH to UHF/UKS


INFO   : the flag for use of the SHARK integral package has been found!

================================================================================
                                       INPUT FILE
================================================================================
NAME = EPRII.inp
|  1> ! B3LYP EPR-II AUTOAUX
|  2> %pal nprocs 16 end
|  3> *XYZFile 0 2 opt.xyz
|  4> %EPRNMR
|  5>         GTENSOR   TRUE
|  6>         NUCLEI    = ALL H {SHIFT, AISO, ADIP, AORB}
|  7> END
|  8> 
|  9>                          ****END OF INPUT****
================================================================================

                       ****************************
                       * Single Point Calculation *
                       ****************************

---------------------------------
CARTESIAN COORDINATES (ANGSTROEM)
---------------------------------
  C     -4.099903    0.083492   -0.018353
  C     -2.815946    0.043661   -0.012330
  C      2.806008   -0.004269   -0.008539
  C     -1.423131    0.006681   -0.011521
  C     -0.708303   -1.246812   -0.013959
  C      0.675892   -1.194656   -0.012684
  C      1.390969    0.032616   -0.009322
  C      0.692187    1.284040   -0.006826
  C     -0.689714    1.234894   -0.008082
  H      1.259776   -2.114722   -0.014385
  H     -1.277365    2.152363   -0.006417
  C     -1.482678   -2.545270   -0.017742
  H     -2.162956   -2.531884   -0.888087
  H     -2.164001   -2.536305    0.851848
  C     -0.664773   -3.838900   -0.020463
  H     -0.001060   -3.863836   -0.904705
  H     -0.002550   -3.868472    0.864757
  C     -1.549765   -5.091581   -0.024486
  H     -2.216738   -5.067647    0.856694
  H     -2.214979   -5.063238   -0.906864
  C     -0.747242   -6.394947   -0.026958
  H     -0.098785   -6.468624    0.863263
  H     -0.096713   -6.463963   -0.916039
  C      1.475610    2.580851   -0.003105
  H      2.150780    2.571663    0.872485
  H      2.151902    2.575969   -0.877872
  C      0.660276    3.876516   -0.000466
  H     -0.001813    3.904739   -0.885019
  H     -0.003430    3.900164    0.883007
  C      1.545553    5.128838    0.003581
  H      2.210398    5.101571    0.886923
  H      2.212314    5.105900   -0.878438
  C      0.742544    6.432044    0.005924
  H      0.091762    6.499753    0.894507
  H      0.094086    6.504395   -0.883993
  C      4.030665   -0.051608   -0.009917
  H     -1.409442   -7.275742   -0.030044
  H      1.404248    7.313240    0.009096
  C      5.453353   -0.107226   -0.009647
  C      6.121835   -1.352501   -0.012193
  C      7.514506   -1.401458   -0.011853
  C      8.262259   -0.217737   -0.009063
  C      7.609924    1.021237   -0.006590
  C      6.217754    1.081653   -0.006879
  H      9.353772   -0.260949   -0.008833
  H      8.191473    1.945911   -0.004438
  H      5.533939   -2.272105   -0.014369
  H      5.703998    2.044629   -0.004992
  H      8.021809   -2.368853   -0.013791

----------------------------
CARTESIAN COORDINATES (A.U.)
----------------------------
  NO LB      ZA    FRAG     MASS         X           Y           Z
   0 C     6.0000    0    12.011   -7.747695    0.157777   -0.034681
   1 C     6.0000    0    12.011   -5.321367    0.082508   -0.023300
   2 C     6.0000    0    12.011    5.302587   -0.008067   -0.016136
   3 C     6.0000    0    12.011   -2.689327    0.012626   -0.021772
   4 C     6.0000    0    12.011   -1.338498   -2.356134   -0.026378
   5 C     6.0000    0    12.011    1.277250   -2.257573   -0.023968
   6 C     6.0000    0    12.011    2.628550    0.061636   -0.017615
   7 C     6.0000    0    12.011    1.308044    2.426484   -0.012899
   8 C     6.0000    0    12.011   -1.303370    2.333612   -0.015274
   9 H     1.0000    0     1.008    2.380632   -3.996246   -0.027183
  10 H     1.0000    0     1.008   -2.413870    4.067376   -0.012127
  11 C     6.0000    0    12.011   -2.801855   -4.809864   -0.033528
  12 H     1.0000    0     1.008   -4.087394   -4.784568   -1.678241
  13 H     1.0000    0     1.008   -4.089368   -4.792922    1.609759
  14 C     6.0000    0    12.011   -1.256239   -7.254469   -0.038669
  15 H     1.0000    0     1.008   -0.002004   -7.301591   -1.709645
  16 H     1.0000    0     1.008   -0.004819   -7.310352    1.634154
  17 C     6.0000    0    12.011   -2.928631   -9.621693   -0.046271
  18 H     1.0000    0     1.008   -4.189027   -9.576465    1.618917
  19 H     1.0000    0     1.008   -4.185703   -9.568134   -1.713724
  20 C     6.0000    0    12.011   -1.412082  -12.084699   -0.050944
  21 H     1.0000    0     1.008   -0.186676  -12.223929    1.631331
  22 H     1.0000    0     1.008   -0.182760  -12.215120   -1.731062
  23 C     6.0000    0    12.011    2.788498    4.877102   -0.005869
  24 H     1.0000    0     1.008    4.064385    4.859738    1.648758
  25 H     1.0000    0     1.008    4.066505    4.867877   -1.658937
  26 C     6.0000    0    12.011    1.247740    7.325553   -0.000880
  27 H     1.0000    0     1.008   -0.003427    7.378887   -1.672443
  28 H     1.0000    0     1.008   -0.006481    7.370242    1.668641
  29 C     6.0000    0    12.011    2.920672    9.692100    0.006766
  30 H     1.0000    0     1.008    4.177046    9.640572    1.676042
  31 H     1.0000    0     1.008    4.180668    9.648753   -1.660007
  32 C     6.0000    0    12.011    1.403204   12.154802    0.011194
  33 H     1.0000    0     1.008    0.173404   12.282753    1.690374
  34 H     1.0000    0     1.008    0.177797   12.291525   -1.670505
  35 C     6.0000    0    12.011    7.616852   -0.097524   -0.018740
  36 H     1.0000    0     1.008   -2.663459  -13.749160   -0.056774
  37 H     1.0000    0     1.008    2.653644   13.820020    0.017189
  38 C     6.0000    0    12.011   10.305343   -0.202628   -0.018229
  39 C     6.0000    0    12.011   11.568592   -2.555857   -0.023041
  40 C     6.0000    0    12.011   14.200358   -2.648371   -0.022399
  41 C     6.0000    0    12.011   15.613407   -0.411462   -0.017127
  42 C     6.0000    0    12.011   14.380671    1.929859   -0.012454
  43 C     6.0000    0    12.011   11.749853    2.044027   -0.012999
  44 H     1.0000    0     1.008   17.676068   -0.493123   -0.016692
  45 H     1.0000    0     1.008   15.479640    3.677238   -0.008386
  46 H     1.0000    0     1.008   10.457630   -4.293656   -0.027154
  47 H     1.0000    0     1.008   10.778994    3.863789   -0.009434
  48 H     1.0000    0     1.008   15.159023   -4.476483   -0.026062

--------------------------------
INTERNAL COORDINATES (ANGSTROEM)
--------------------------------
 C      0   0   0     0.000000000000     0.00000000     0.00000000
 C      1   0   0     1.284589265702     0.00000000     0.00000000
 C      2   1   0     5.622159564040   178.69126092     0.00000000
 C      2   1   3     1.393306467235   179.65227083   327.51862601
 C      4   2   1     1.442993883273   121.21551837   222.73457308
 C      5   4   2     1.385177188993   117.53671655   180.01241966
 C      3   2   1     1.415520374158     1.00472520    10.51896560
 C      7   3   6     1.433304942608   120.67155711   180.00251040
 C      8   7   3     1.382775381372   117.14154389   179.98635314
 H      6   5   4     1.089699859879   120.24164121   179.99764177
 H      9   8   7     1.089534381280   120.60315497   180.00627168
 C      5   4   2     1.511841308952   119.49432899     0.00000000
 H     12   5   4     1.104743120331   107.87680572    55.82062536
 H     12   5   4     1.104747614791   107.87550603   304.14905360
 C     12   5   4     1.530507626416   116.88572550   179.98859445
 H     15  12   5     1.105902563797   109.95017923   301.68270487
 H     15  12   5     1.105905796946   109.94886218    58.34142276
 C     15  12   5     1.533765592879   112.45643147   180.01139442
 H     18  15  12     1.105397466238   109.17036193   302.38938945
 H     18  15  12     1.105397471384   109.17092419    57.63473439
 C     18  15  12     1.530625053453   113.13789375   180.01165525
 H     21  18  15     1.103820012046   111.31832012    59.91451649
 H     21  18  15     1.103818579039   111.31786680   300.10869648
 C      8   7   3     1.515085539117   119.68484965     0.00000000
 H     24   8   7     1.105711363744   108.09370501   303.63215986
 H     24   8   7     1.105717523955   108.09186412    56.38210693
 C     24   8   7     1.530856693276   116.68202454   180.00524344
 H     27  24   8     1.105257054054   109.83292962   301.74343574
 H     27  24   8     1.105254637747   109.83506491    58.22504828
 C     27  24   8     1.533637708065   112.56201510   179.98517391
 H     30  27  24     1.105918558839   109.20769736   302.29351001
 H     30  27  24     1.105917187097   109.20681994    57.67887704
 C     30  27  24     1.530743191815   113.10279452   179.98667424
 H     33  30  27     1.103486639694   111.27512830    59.84427318
 H     33  30  27     1.103487301721   111.27567707   300.12528013
 C      3   2   1     1.225571968783   178.27174768   193.54086091
 H     21  18  15     1.101961246509   111.44164475   180.01211336
 H     33  30  27     1.101983520380   111.45612407   179.98418205
 C     36   3   7     1.423774642696   179.92062648   280.85853904
 C     39  36   3     1.413359540444   120.46627745    71.67101810
 C     40  39  36     1.393531182661   120.24078976   180.00300340
 C     41  40  39     1.400120858211   120.26715974     0.00000000
 C     42  41  40     1.400215882953   119.95224590     0.00000000
 C     43  42  41     1.393479491271   120.25218298     0.00000000
 H     42  41  40     1.092368032818   120.01330674   180.00156118
 H     43  42  41     1.092348237933   120.06596006   180.00156057
 H     40  39  36     1.091465535315   119.18205456     0.00000000
 H     44  43  42     1.091454396523   120.56513382   180.00202302
 H     41  40  39     1.092343317309   119.68577979   179.99739793

---------------------------
INTERNAL COORDINATES (A.U.)
---------------------------
 C      0   0   0     0.000000000000     0.00000000     0.00000000
 C      1   0   0     2.427521906753     0.00000000     0.00000000
 C      2   1   0    10.624341857241   178.69126092     0.00000000
 C      2   1   3     2.632967643696   179.65227083   327.51862601
 C      4   2   1     2.726863252309   121.21551837   222.73457308
 C      5   4   2     2.617605534151   117.53671655   180.01241966
 C      3   2   1     2.674945844144     1.00472520    10.51896560
 C      7   3   6     2.708553807925   120.67155711   180.00251040
 C      8   7   3     2.613066775522   117.14154389   179.98635314
 H      6   5   4     2.059234303345   120.24164121   179.99764177
 H      9   8   7     2.058921594110   120.60315497   180.00627168
 C      5   4   2     2.856966031868   119.49432899     0.00000000
 H     12   5   4     2.087661945760   107.87680572    55.82062536
 H     12   5   4     2.087670439058   107.87550603   304.14905360
 C     12   5   4     2.892240259804   116.88572550   179.98859445
 H     15  12   5     2.089852976379   109.95017923   301.68270487
 H     15  12   5     2.089859086144   109.94886218    58.34142276
 C     15  12   5     2.898396924173   112.45643147   180.01139442
 H     18  15  12     2.088898480320   109.17036193   302.38938945
 H     18  15  12     2.088898490044   109.17092419    57.63473439
 C     18  15  12     2.892462164744   113.13789375   180.01165525
 H     21  18  15     2.085917523909   111.31832012    59.91451649
 H     21  18  15     2.085914815918   111.31786680   300.10869648
 C      8   7   3     2.863096738396   119.68484965     0.00000000
 H     24   8   7     2.089491660641   108.09370501   303.63215986
 H     24   8   7     2.089503301752   108.09186412    56.38210693
 C     24   8   7     2.892899900573   116.68202454   180.00524344
 H     27  24   8     2.088633139747   109.83292962   301.74343574
 H     27  24   8     2.088628573588   109.83506491    58.22504828
 C     27  24   8     2.898155256898   112.56201510   179.98517391
 H     30  27  24     2.089883202627   109.20769736   302.29351001
 H     30  27  24     2.089880610411   109.20681994    57.67887704
 C     30  27  24     2.892685413895   113.10279452   179.98667424
 H     33  30  27     2.085287541462   111.27512830    59.84427318
 H     33  30  27     2.085288792513   111.27567707   300.12528013
 C      3   2   1     2.315995378411   178.27174768   193.54086091
 H     21  18  15     2.082404966096   111.44164475   180.01211336
 H     33  30  27     2.082447057613   111.45612407   179.98418205
 C     36   3   7     2.690544151116   179.92062648   280.85853904
 C     39  36   3     2.670862460204   120.46627745    71.67101810
 C     40  39  36     2.633392294308   120.24078976   180.00300340
 C     41  40  39     2.645844976410   120.26715974     0.00000000
 C     42  41  40     2.646024547148   119.95224590     0.00000000
 C     43  42  41     2.633294611738   120.25218298     0.00000000
 H     42  41  40     2.064276419477   120.01330674   180.00156118
 H     43  42  41     2.064239012566   120.06596006   180.00156057
 H     40  39  36     2.062570946359   119.18205456     0.00000000
 H     44  43  42     2.062549897092   120.56513382   180.00202302
 H     41  40  39     2.064229713932   119.68577979   179.99739793

---------------------
BASIS SET INFORMATION
---------------------
There are 2 groups of distinct atoms

 Group   1 Type C   : 10s5p1d contracted to 6s2p1d pattern {511111/41/1}
 Group   2 Type H   : 6s1p contracted to 4s1p pattern {3111/1}

Atom   0C    basis set group =>   1
Atom   1C    basis set group =>   1
Atom   2C    basis set group =>   1
Atom   3C    basis set group =>   1
Atom   4C    basis set group =>   1
Atom   5C    basis set group =>   1
Atom   6C    basis set group =>   1
Atom   7C    basis set group =>   1
Atom   8C    basis set group =>   1
Atom   9H    basis set group =>   2
Atom  10H    basis set group =>   2
Atom  11C    basis set group =>   1
Atom  12H    basis set group =>   2
Atom  13H    basis set group =>   2
Atom  14C    basis set group =>   1
Atom  15H    basis set group =>   2
Atom  16H    basis set group =>   2
Atom  17C    basis set group =>   1
Atom  18H    basis set group =>   2
Atom  19H    basis set group =>   2
Atom  20C    basis set group =>   1
Atom  21H    basis set group =>   2
Atom  22H    basis set group =>   2
Atom  23C    basis set group =>   1
Atom  24H    basis set group =>   2
Atom  25H    basis set group =>   2
Atom  26C    basis set group =>   1
Atom  27H    basis set group =>   2
Atom  28H    basis set group =>   2
Atom  29C    basis set group =>   1
Atom  30H    basis set group =>   2
Atom  31H    basis set group =>   2
Atom  32C    basis set group =>   1
Atom  33H    basis set group =>   2
Atom  34H    basis set group =>   2
Atom  35C    basis set group =>   1
Atom  36H    basis set group =>   2
Atom  37H    basis set group =>   2
Atom  38C    basis set group =>   1
Atom  39C    basis set group =>   1
Atom  40C    basis set group =>   1
Atom  41C    basis set group =>   1
Atom  42C    basis set group =>   1
Atom  43C    basis set group =>   1
Atom  44H    basis set group =>   2
Atom  45H    basis set group =>   2
Atom  46H    basis set group =>   2
Atom  47H    basis set group =>   2
Atom  48H    basis set group =>   2
---------------------------------
AUXILIARY/J BASIS SET INFORMATION
---------------------------------
There are 2 groups of distinct atoms

 Group   1 Type C   : 17s13p12d2f contracted to 17s13p12d2f pattern {11111111111111111/1111111111111/111111111111/11}
 Group   2 Type H   : 15s6p1d contracted to 15s6p1d pattern {111111111111111/111111/1}

Atom   0C    basis set group =>   1
Atom   1C    basis set group =>   1
Atom   2C    basis set group =>   1
Atom   3C    basis set group =>   1
Atom   4C    basis set group =>   1
Atom   5C    basis set group =>   1
Atom   6C    basis set group =>   1
Atom   7C    basis set group =>   1
Atom   8C    basis set group =>   1
Atom   9H    basis set group =>   2
Atom  10H    basis set group =>   2
Atom  11C    basis set group =>   1
Atom  12H    basis set group =>   2
Atom  13H    basis set group =>   2
Atom  14C    basis set group =>   1
Atom  15H    basis set group =>   2
Atom  16H    basis set group =>   2
Atom  17C    basis set group =>   1
Atom  18H    basis set group =>   2
Atom  19H    basis set group =>   2
Atom  20C    basis set group =>   1
Atom  21H    basis set group =>   2
Atom  22H    basis set group =>   2
Atom  23C    basis set group =>   1
Atom  24H    basis set group =>   2
Atom  25H    basis set group =>   2
Atom  26C    basis set group =>   1
Atom  27H    basis set group =>   2
Atom  28H    basis set group =>   2
Atom  29C    basis set group =>   1
Atom  30H    basis set group =>   2
Atom  31H    basis set group =>   2
Atom  32C    basis set group =>   1
Atom  33H    basis set group =>   2
Atom  34H    basis set group =>   2
Atom  35C    basis set group =>   1
Atom  36H    basis set group =>   2
Atom  37H    basis set group =>   2
Atom  38C    basis set group =>   1
Atom  39C    basis set group =>   1
Atom  40C    basis set group =>   1
Atom  41C    basis set group =>   1
Atom  42C    basis set group =>   1
Atom  43C    basis set group =>   1
Atom  44H    basis set group =>   2
Atom  45H    basis set group =>   2
Atom  46H    basis set group =>   2
Atom  47H    basis set group =>   2
Atom  48H    basis set group =>   2
---------------------------------
AUXILIARY/C BASIS SET INFORMATION
---------------------------------
There are 2 groups of distinct atoms

 Group   1 Type C   : 17s13p12d2f contracted to 17s13p12d2f pattern {11111111111111111/1111111111111/111111111111/11}
 Group   2 Type H   : 15s6p1d contracted to 15s6p1d pattern {111111111111111/111111/1}

Atom   0C    basis set group =>   1
Atom   1C    basis set group =>   1
Atom   2C    basis set group =>   1
Atom   3C    basis set group =>   1
Atom   4C    basis set group =>   1
Atom   5C    basis set group =>   1
Atom   6C    basis set group =>   1
Atom   7C    basis set group =>   1
Atom   8C    basis set group =>   1
Atom   9H    basis set group =>   2
Atom  10H    basis set group =>   2
Atom  11C    basis set group =>   1
Atom  12H    basis set group =>   2
Atom  13H    basis set group =>   2
Atom  14C    basis set group =>   1
Atom  15H    basis set group =>   2
Atom  16H    basis set group =>   2
Atom  17C    basis set group =>   1
Atom  18H    basis set group =>   2
Atom  19H    basis set group =>   2
Atom  20C    basis set group =>   1
Atom  21H    basis set group =>   2
Atom  22H    basis set group =>   2
Atom  23C    basis set group =>   1
Atom  24H    basis set group =>   2
Atom  25H    basis set group =>   2
Atom  26C    basis set group =>   1
Atom  27H    basis set group =>   2
Atom  28H    basis set group =>   2
Atom  29C    basis set group =>   1
Atom  30H    basis set group =>   2
Atom  31H    basis set group =>   2
Atom  32C    basis set group =>   1
Atom  33H    basis set group =>   2
Atom  34H    basis set group =>   2
Atom  35C    basis set group =>   1
Atom  36H    basis set group =>   2
Atom  37H    basis set group =>   2
Atom  38C    basis set group =>   1
Atom  39C    basis set group =>   1
Atom  40C    basis set group =>   1
Atom  41C    basis set group =>   1
Atom  42C    basis set group =>   1
Atom  43C    basis set group =>   1
Atom  44H    basis set group =>   2
Atom  45H    basis set group =>   2
Atom  46H    basis set group =>   2
Atom  47H    basis set group =>   2
Atom  48H    basis set group =>   2
----------------------------------
AUXILIARY/JK BASIS SET INFORMATION
----------------------------------
There are 2 groups of distinct atoms

 Group   1 Type C   : 17s13p12d2f contracted to 17s13p12d2f pattern {11111111111111111/1111111111111/111111111111/11}
 Group   2 Type H   : 15s6p1d contracted to 15s6p1d pattern {111111111111111/111111/1}

Atom   0C    basis set group =>   1
Atom   1C    basis set group =>   1
Atom   2C    basis set group =>   1
Atom   3C    basis set group =>   1
Atom   4C    basis set group =>   1
Atom   5C    basis set group =>   1
Atom   6C    basis set group =>   1
Atom   7C    basis set group =>   1
Atom   8C    basis set group =>   1
Atom   9H    basis set group =>   2
Atom  10H    basis set group =>   2
Atom  11C    basis set group =>   1
Atom  12H    basis set group =>   2
Atom  13H    basis set group =>   2
Atom  14C    basis set group =>   1
Atom  15H    basis set group =>   2
Atom  16H    basis set group =>   2
Atom  17C    basis set group =>   1
Atom  18H    basis set group =>   2
Atom  19H    basis set group =>   2
Atom  20C    basis set group =>   1
Atom  21H    basis set group =>   2
Atom  22H    basis set group =>   2
Atom  23C    basis set group =>   1
Atom  24H    basis set group =>   2
Atom  25H    basis set group =>   2
Atom  26C    basis set group =>   1
Atom  27H    basis set group =>   2
Atom  28H    basis set group =>   2
Atom  29C    basis set group =>   1
Atom  30H    basis set group =>   2
Atom  31H    basis set group =>   2
Atom  32C    basis set group =>   1
Atom  33H    basis set group =>   2
Atom  34H    basis set group =>   2
Atom  35C    basis set group =>   1
Atom  36H    basis set group =>   2
Atom  37H    basis set group =>   2
Atom  38C    basis set group =>   1
Atom  39C    basis set group =>   1
Atom  40C    basis set group =>   1
Atom  41C    basis set group =>   1
Atom  42C    basis set group =>   1
Atom  43C    basis set group =>   1
Atom  44H    basis set group =>   2
Atom  45H    basis set group =>   2
Atom  46H    basis set group =>   2
Atom  47H    basis set group =>   2
Atom  48H    basis set group =>   2

Checking for AutoStart:
The File: EPRII.gbw exists
Trying to determine its content:
     ... Fine, the file contains calculation information
     ... Fine, the calculation information was read
     ... Fine, the file contains a basis set
     ... Fine, the basis set was read
     ... Fine, the file contains a geometry
     ... Fine, the geometry was read
     ... Fine, the file contains a set of orbitals
     ... Fine, the orbitals can be read
     => possible old guess file was deleted
     => GBW file was renamed to GES file
     => GES file is set as startup file
     => Guess is set to MORead
     ... now leaving AutoStart



           ************************************************************
           *        Program running with 16 parallel MPI-processes    *
           *              working on a common directory               *
           ************************************************************
------------------------------------------------------------------------------
                           ORCA GTO INTEGRAL CALCULATION
                           -- RI-GTO INTEGRALS CHOSEN --
------------------------------------------------------------------------------
------------------------------------------------------------------------------
                   ___                                                        
                  /   \      - P O W E R E D   B Y -                         
                 /     \                                                     
                 |  |  |   _    _      __       _____    __    __             
                 |  |  |  | |  | |    /  \     |  _  \  |  |  /  |          
                  \  \/   | |  | |   /    \    | | | |  |  | /  /          
                 / \  \   | |__| |  /  /\  \   | |_| |  |  |/  /          
                |  |  |   |  __  | /  /__\  \  |    /   |      \           
                |  |  |   | |  | | |   __   |  |    \   |  |\   \          
                \     /   | |  | | |  |  |  |  | |\  \  |  | \   \       
                 \___/    |_|  |_| |__|  |__|  |_| \__\ |__|  \__/        
                                                                              
                      - O R C A' S   B I G   F R I E N D -                    
                                      &                                       
                       - I N T E G R A L  F E E D E R -                       
                                                                              
 v1 FN, 2020, v2 2021                                                         
------------------------------------------------------------------------------


Reading SHARK input file EPRII.SHARKINP.tmp ... ok
----------------------
SHARK INTEGRAL PACKAGE
----------------------

Number of atoms                             ...     49
Number of basis functions                   ...    583
Number of shells                            ...    341
Maximum angular momentum                    ...      2
Integral batch strategy                     ... SHARK/LIBINT Hybrid
RI-J (if used) integral strategy            ... SPLIT-RIJ (Revised 2003 algorithm where possible)
Printlevel                                  ...      1
Contraction scheme used                     ... SEGMENTED contraction
Coulomb Range Separation                    ... NOT USED
Exchange Range Separation                   ... NOT USED
Finite Nucleus Model                        ... NOT USED
Auxiliary Coulomb fitting basis             ... AVAILABLE
   # of basis functions in Aux-J            ...   4070
   # of shells in Aux-J                     ...   1606
   Maximum angular momentum in Aux-J        ...      3
Auxiliary J/K fitting basis                 ... AVAILABLE
   # of basis functions in Aux-JK           ...   4070
   # of shells in Aux-JK                    ...   1606
   Maximum angular momentum in Aux-JK       ...      3
Auxiliary Correlation fitting basis         ... AVAILABLE
   # of basis functions in Aux-C            ...   4070
   # of shells in Aux-C                     ...   1606
   Maximum angular momentum in Aux-C        ...      3
Auxiliary 'external' fitting basis          ... NOT available
Integral threshold                          ...     1.000000e-10
Primitive cut-off                           ...     1.000000e-11
Primitive pair pre-selection threshold      ...     1.000000e-11

Calculating pre-screening integrals         ... done (  0.0 sec) Dimension = 341
Organizing shell pair data                  ... done (  0.2 sec)
Shell pair information
Total number of shell pairs                 ...     58311
Shell pairs after pre-screening             ...     29659
Total number of primitive shell pairs       ...    156979
Primitive shell pairs kept                  ...     55799
          la=0 lb=0:  13596 shell pairs
          la=1 lb=0:  10218 shell pairs
          la=1 lb=1:   1832 shell pairs
          la=2 lb=0:   2787 shell pairs
          la=2 lb=1:   1064 shell pairs
          la=2 lb=2:    162 shell pairs

Calculating one electron integrals          ... done (  0.0 sec)
Calculating RI/J V-Matrix + Cholesky decomp.... done (  1.0 sec)
Calculating RI/JK V-Matrix + Cholesky decomp... done (  1.0 sec)
Calculating RI/C V-Matrix + Cholesky decomp.... done (  1.0 sec)
Calculating Nuclear repulsion               ... done (  0.0 sec) ENN=   1728.320371376087 Eh

SHARK setup successfully completed in   3.6 seconds

Maximum memory used throughout the entire GTOINT-calculation: 59.6 MB


           ************************************************************
           *        Program running with 16 parallel MPI-processes    *
           *              working on a common directory               *
           ************************************************************
-------------------------------------------------------------------------------
                                 ORCA SCF
-------------------------------------------------------------------------------

------------
SCF SETTINGS
------------
Hamiltonian:
 Density Functional     Method          .... DFT(GTOs)
 Exchange Functional    Exchange        .... B88
   X-Alpha parameter    XAlpha          ....  0.666667
   Becke's b parameter  XBeta           ....  0.004200
 Correlation Functional Correlation     .... LYP
 LDA part of GGA corr.  LDAOpt          .... VWN-5
 Gradients option       PostSCFGGA      .... off
 Hybrid DFT is turned on
   Fraction HF Exchange ScalHFX         ....  0.200000
   Scaling of DF-GGA-X  ScalDFX         ....  0.720000
   Scaling of DF-GGA-C  ScalDFC         ....  0.810000
   Scaling of DF-LDA-C  ScalLDAC        ....  1.000000
   Perturbative correction              ....  0.000000
   Density functional embedding theory  .... OFF
   NL short-range parameter             ....  4.800000
 RI-approximation to the Coulomb term is turned on
   Number of AuxJ basis functions       .... 4070
   RIJ-COSX (HFX calculated with COS-X)).... on


General Settings:
 Integral files         IntName         .... EPRII
 Hartree-Fock type      HFTyp           .... UHF
 Total Charge           Charge          ....    0
 Multiplicity           Mult            ....    2
 Number of Electrons    NEL             ....  169
 Basis Dimension        Dim             ....  583
 Nuclear Repulsion      ENuc            ....   1728.3203713761 Eh

Convergence Acceleration:
 DIIS                   CNVDIIS         .... on
   Start iteration      DIISMaxIt       ....    12
   Startup error        DIISStart       ....  0.200000
   # of expansion vecs  DIISMaxEq       ....     5
   Bias factor          DIISBfac        ....   1.050
   Max. coefficient     DIISMaxC        ....  10.000
 Trust-Rad. Augm. Hess. CNVTRAH         .... auto
   Auto Start mean grad. ratio tolernc. ....  1.125000
   Auto Start start iteration           ....     1
   Auto Start num. interpolation iter.  ....    10
   Max. Number of Micro iterations      ....    16
   Max. Number of Macro iterations      .... Maxiter - #DIIS iter
   Number of Davidson start vectors     ....     2
   Converg. threshold I  (grad. norm)   ....   5.000e-05
   Converg. threshold II (energy diff.) ....   1.000e-06
   Grad. Scal. Fac. for Micro threshold ....   0.100
   Minimum threshold for Micro iter.    ....   0.010
   NR start threshold (gradient norm)   ....   0.001
   Initial trust radius                 ....   0.400
   Minimum AH scaling param. (alpha)    ....   1.000
   Maximum AH scaling param. (alpha)    .... 1000.000
   Orbital update algorithm             .... Taylor
   White noise on init. David. guess    .... on
   Maximum white noise                  ....   0.010
   Quad. conv. algorithm                .... NR
 SOSCF                  CNVSOSCF        .... off
 Level Shifting         CNVShift        .... on
   Level shift para.    LevelShift      ....    0.2500
   Turn off err/grad.   ShiftErr        ....    0.0010
 Zerner damping         CNVZerner       .... off
 Static damping         CNVDamp         .... on
   Fraction old density DampFac         ....    0.7000
   Max. Damping (<1)    DampMax         ....    0.9800
   Min. Damping (>=0)   DampMin         ....    0.0000
   Turn off err/grad.   DampErr         ....    0.1000
 Fernandez-Rico         CNVRico         .... off

SCF Procedure:
 Maximum # iterations   MaxIter         ....   125
 SCF integral mode      SCFMode         .... Direct
   Integral package                     .... SHARK and LIBINT hybrid scheme
 Reset frequency        DirectResetFreq ....    20
 Integral Threshold     Thresh          ....  1.000e-10 Eh
 Primitive CutOff       TCut            ....  1.000e-11 Eh

Convergence Tolerance:
 Convergence Check Mode ConvCheckMode   .... Total+1el-Energy
 Convergence forced     ConvForced      .... 0
 Energy Change          TolE            ....  1.000e-06 Eh
 1-El. energy change                    ....  1.000e-03 Eh
 DIIS Error             TolErr          ....  1.000e-06


Diagonalization of the overlap matrix:
Smallest eigenvalue                        ... 7.297e-05
Time for diagonalization                   ...    0.088 sec
Threshold for overlap eigenvalues          ... 1.000e-08
Number of eigenvalues below threshold      ... 0
Time for construction of square roots      ...    0.063 sec
Total time needed                          ...    0.153 sec

---------------------
INITIAL GUESS: MOREAD
---------------------
Guess MOs are being read from file: EPRII.ges
Input Geometry matches current geometry (good)
Input basis set matches current basis set (good)
MOs were renormalized
MOs were reorthogonalized (Cholesky)
                      ------------------
                      INITIAL GUESS DONE (   0.3 sec)
                      ------------------
-------------------
DFT GRID GENERATION
-------------------

General Integration Accuracy     IntAcc      ... 4.388
Radial Grid Type                 RadialGrid  ... OptM3 with GC (2021)
Angular Grid (max. ang.)         AngularGrid ... 4 (Lebedev-302)
Angular grid pruning method      GridPruning ... 4 (adaptive)
Weight generation scheme         WeightScheme... Becke
Basis function cutoff            BFCut       ... 1.0000e-10
Integration weight cutoff        WCut        ... 1.0000e-14
Angular grids for H and He will be reduced by one unit
Partially contracted basis set               ... off
Rotationally invariant grid construction     ... off

Total number of grid points                  ...   223003
Total number of batches                      ...     3511
Average number of points per batch           ...       63
Average number of grid points per atom       ...     4551
Time for grid setup =    1.532 sec

--------------------
COSX GRID GENERATION
--------------------

GRIDX 1
-------
General Integration Accuracy     IntAcc      ... 3.816
Radial Grid Type                 RadialGrid  ... OptM3 with GC (2021)
Angular Grid (max. ang.)         AngularGrid ... 1 (Lebedev-50)
Angular grid pruning method      GridPruning ... 4 (adaptive)
Weight generation scheme         WeightScheme... Becke
Basis function cutoff            BFCut       ... 1.0000e-10
Integration weight cutoff        WCut        ... 1.0000e-14
Angular grids for H and He will be reduced by one unit
Partially contracted basis set               ... on
Rotationally invariant grid construction     ... off

Total number of grid points                  ...    28396
Total number of batches                      ...      471
Average number of points per batch           ...       60
Average number of grid points per atom       ...      580
UseSFitting                                  ... on

GRIDX 2
-------
General Integration Accuracy     IntAcc      ... 4.020
Radial Grid Type                 RadialGrid  ... OptM3 with GC (2021)
Angular Grid (max. ang.)         AngularGrid ... 2 (Lebedev-110)
Angular grid pruning method      GridPruning ... 4 (adaptive)
Weight generation scheme         WeightScheme... Becke
Basis function cutoff            BFCut       ... 1.0000e-10
Integration weight cutoff        WCut        ... 1.0000e-14
Angular grids for H and He will be reduced by one unit
Partially contracted basis set               ... on
Rotationally invariant grid construction     ... off

Total number of grid points                  ...    60558
Total number of batches                      ...      971
Average number of points per batch           ...       62
Average number of grid points per atom       ...     1236
UseSFitting                                  ... on

GRIDX 3
-------
General Integration Accuracy     IntAcc      ... 4.338
Radial Grid Type                 RadialGrid  ... OptM3 with GC (2021)
Angular Grid (max. ang.)         AngularGrid ... 3 (Lebedev-194)
Angular grid pruning method      GridPruning ... 4 (adaptive)
Weight generation scheme         WeightScheme... Becke
Basis function cutoff            BFCut       ... 1.0000e-10
Integration weight cutoff        WCut        ... 1.0000e-14
Angular grids for H and He will be reduced by one unit
Partially contracted basis set               ... on
Rotationally invariant grid construction     ... off

Total number of grid points                  ...   132523
Total number of batches                      ...     2094
Average number of points per batch           ...       63
Average number of grid points per atom       ...     2705
UseSFitting                                  ... on

Time for X-Grid setup             =    2.669 sec

--------------
SCF ITERATIONS
--------------
ITER       Energy         Delta-E        Max-DP      RMS-DP      [F,P]     Damp
               ***  Starting incremental Fock matrix formation  ***
  0   -928.9187302722   0.000000000000 0.00004800  0.00000038  0.0001145 0.7000
                 **** Energy Check signals convergence ****

               *****************************************************
               *                     SUCCESS                       *
               *           SCF CONVERGED AFTER   1 CYCLES          *
               *****************************************************

Old exchange energy                            =    -26.591811599 Eh
New exchange energy                            =    -26.591794708 Eh
Exchange energy change after final integration =      0.000016891 Eh
Total energy after final integration           =   -928.918713373 Eh
Final COS-X integration done in                =    10.231 sec

----------------
TOTAL SCF ENERGY
----------------

Total Energy       :         -928.91871337 Eh          -25277.16326 eV

Components:
Nuclear Repulsion  :         1728.32037138 Eh           47029.98826 eV
Electronic Energy  :        -2657.23908475 Eh          -72307.15152 eV
One Electron Energy:        -4683.64380017 Eh         -127448.42716 eV
Two Electron Energy:         2026.40471543 Eh           55141.27563 eV
Max COSX asymmetry :            0.00000341 Eh               0.00009 eV

Virial components:
Potential Energy   :        -1850.45961746 Eh          -50353.56612 eV
Kinetic Energy     :          921.54090409 Eh           25076.40286 eV
Virial Ratio       :            2.00800595


DFT components:
N(Alpha)           :       85.000179073524 electrons
N(Beta)            :       84.000186406520 electrons
N(Total)           :      169.000365480044 electrons
E(X)               :     -105.501151122112 Eh       
E(C)               :       -6.573200217086 Eh       
E(XC)              :     -112.074351339198 Eh       
DFET-embed. en.    :        0.000000000000 Eh       

---------------
SCF CONVERGENCE
---------------

  Last Energy change         ...    8.6675e-09  Tolerance :   1.0000e-06
  Last MAX-Density change    ...    1.6518e-05  Tolerance :   1.0000e-05
  Last RMS-Density change    ...    1.4434e-07  Tolerance :   1.0000e-06
  Last DIIS Error            ...    4.8021e-05  Tolerance :   1.0000e-06

             **** THE GBW FILE WAS UPDATED (EPRII.gbw) ****
             **** DENSITY EPRII.scfp WAS UPDATED ****
             **** ENERGY FILE WAS UPDATED (EPRII.en.tmp) ****
----------------------
UHF SPIN CONTAMINATION
----------------------

Warning: in a DFT calculation there is little theoretical justification to 
         calculate <S**2> as in Hartree-Fock theory. We will do it anyways
         but you should keep in mind that the values have only limited relevance

Expectation value of <S**2>     :     0.773420
Ideal value S*(S+1) for S=0.5   :     0.750000
Deviation                       :     0.023420

             **** THE GBW FILE WAS UPDATED (EPRII.gbw) ****
             **** DENSITY EPRII.scfp WAS UPDATED ****
----------------
ORBITAL ENERGIES
----------------
                 SPIN UP ORBITALS
  NO   OCC          E(Eh)            E(eV) 
   0   1.0000     -10.255150      -279.0568 
   1   1.0000     -10.247749      -278.8554 
   2   1.0000     -10.242080      -278.7012 
   3   1.0000     -10.233399      -278.4650 
   4   1.0000     -10.232912      -278.4517 
   5   1.0000     -10.230358      -278.3822 
   6   1.0000     -10.226208      -278.2693 
   7   1.0000     -10.226158      -278.2679 
   8   1.0000     -10.226059      -278.2652 
   9   1.0000     -10.225141      -278.2402 
  10   1.0000     -10.222265      -278.1620 
  11   1.0000     -10.222148      -278.1588 
  12   1.0000     -10.218701      -278.0650 
  13   1.0000     -10.217845      -278.0417 
  14   1.0000     -10.203283      -277.6454 
  15   1.0000     -10.194456      -277.4053 
  16   1.0000     -10.192430      -277.3501 
  17   1.0000     -10.190802      -277.3058 
  18   1.0000     -10.189111      -277.2598 
  19   1.0000     -10.185917      -277.1729 
  20   1.0000     -10.185206      -277.1535 
  21   1.0000     -10.183937      -277.1190 
  22   1.0000     -10.178649      -276.9751 
  23   1.0000     -10.176115      -276.9062 
  24   1.0000      -0.893859       -24.3231 
  25   1.0000      -0.883882       -24.0517 
  26   1.0000      -0.833620       -22.6840 
  27   1.0000      -0.815252       -22.1841 
  28   1.0000      -0.800958       -21.7952 
  29   1.0000      -0.797409       -21.6986 
  30   1.0000      -0.776435       -21.1279 
  31   1.0000      -0.771116       -20.9831 
  32   1.0000      -0.754794       -20.5390 
  33   1.0000      -0.738267       -20.0893 
  34   1.0000      -0.719676       -19.5834 
  35   1.0000      -0.706511       -19.2251 
  36   1.0000      -0.662674       -18.0323 
  37   1.0000      -0.658882       -17.9291 
  38   1.0000      -0.634123       -17.2554 
  39   1.0000      -0.629697       -17.1349 
  40   1.0000      -0.629027       -17.1167 
  41   1.0000      -0.602265       -16.3885 
  42   1.0000      -0.585570       -15.9342 
  43   1.0000      -0.572910       -15.5897 
  44   1.0000      -0.559687       -15.2299 
  45   1.0000      -0.526261       -14.3203 
  46   1.0000      -0.523449       -14.2438 
  47   1.0000      -0.500140       -13.6095 
  48   1.0000      -0.493259       -13.4223 
  49   1.0000      -0.481053       -13.0901 
  50   1.0000      -0.477045       -12.9811 
  51   1.0000      -0.475601       -12.9418 
  52   1.0000      -0.455859       -12.4046 
  53   1.0000      -0.446973       -12.1628 
  54   1.0000      -0.444688       -12.1006 
  55   1.0000      -0.435473       -11.8498 
  56   1.0000      -0.434836       -11.8325 
  57   1.0000      -0.429549       -11.6886 
  58   1.0000      -0.424425       -11.5492 
  59   1.0000      -0.418100       -11.3771 
  60   1.0000      -0.410083       -11.1589 
  61   1.0000      -0.404607       -11.0099 
  62   1.0000      -0.391989       -10.6666 
  63   1.0000      -0.382869       -10.4184 
  64   1.0000      -0.380947       -10.3661 
  65   1.0000      -0.374141       -10.1809 
  66   1.0000      -0.371283       -10.1031 
  67   1.0000      -0.367783       -10.0079 
  68   1.0000      -0.367261        -9.9937 
  69   1.0000      -0.354786        -9.6542 
  70   1.0000      -0.345340        -9.3972 
  71   1.0000      -0.340623        -9.2688 
  72   1.0000      -0.335799        -9.1375 
  73   1.0000      -0.332210        -9.0399 
  74   1.0000      -0.330763        -9.0005 
  75   1.0000      -0.329495        -8.9660 
  76   1.0000      -0.326233        -8.8772 
  77   1.0000      -0.312717        -8.5095 
  78   1.0000      -0.293568        -7.9884 
  79   1.0000      -0.279018        -7.5925 
  80   1.0000      -0.267327        -7.2743 
  81   1.0000      -0.264333        -7.1929 
  82   1.0000      -0.250067        -6.8047 
  83   1.0000      -0.246177        -6.6988 
  84   1.0000      -0.221083        -6.0160 
  85   0.0000      -0.083430        -2.2703 
  86   0.0000      -0.033493        -0.9114 
  87   0.0000      -0.032903        -0.8953 
  88   0.0000      -0.022399        -0.6095 
  89   0.0000       0.001063         0.0289 
  90   0.0000       0.014298         0.3891 
  91   0.0000       0.016075         0.4374 
  92   0.0000       0.022089         0.6011 
  93   0.0000       0.025153         0.6844 
  94   0.0000       0.028259         0.7690 
  95   0.0000       0.030611         0.8330 
  96   0.0000       0.041917         1.1406 
  97   0.0000       0.044746         1.2176 
  98   0.0000       0.048238         1.3126 
  99   0.0000       0.049546         1.3482 
 100   0.0000       0.057079         1.5532 
 101   0.0000       0.059244         1.6121 
 102   0.0000       0.067492         1.8365 
 103   0.0000       0.070052         1.9062 
 104   0.0000       0.075200         2.0463 
 105   0.0000       0.076494         2.0815 
 106   0.0000       0.094973         2.5844 
 107   0.0000       0.096257         2.6193 
 108   0.0000       0.097143         2.6434 
 109   0.0000       0.108141         2.9427 
 110   0.0000       0.115398         3.1402 
 111   0.0000       0.122115         3.3229 
 112   0.0000       0.135983         3.7003 
 113   0.0000       0.136219         3.7067 
 114   0.0000       0.143473         3.9041 
 115   0.0000       0.148389         4.0379 
 116   0.0000       0.155895         4.2421 
 117   0.0000       0.164221         4.4687 
 118   0.0000       0.169473         4.6116 
 119   0.0000       0.169953         4.6247 
 120   0.0000       0.177284         4.8241 
 121   0.0000       0.182382         4.9629 
 122   0.0000       0.183431         4.9914 
 123   0.0000       0.192477         5.2376 
 124   0.0000       0.194492         5.2924 
 125   0.0000       0.195735         5.3262 
 126   0.0000       0.197856         5.3839 
 127   0.0000       0.200180         5.4472 
 128   0.0000       0.203141         5.5277 
 129   0.0000       0.207658         5.6507 
 130   0.0000       0.210439         5.7263 
 131   0.0000       0.210768         5.7353 
 132   0.0000       0.210899         5.7388 
 133   0.0000       0.223263         6.0753 
 134   0.0000       0.229821         6.2538 
 135   0.0000       0.231311         6.2943 
 136   0.0000       0.233920         6.3653 
 137   0.0000       0.239981         6.5302 
 138   0.0000       0.243316         6.6210 
 139   0.0000       0.246758         6.7146 
 140   0.0000       0.247537         6.7358 
 141   0.0000       0.252010         6.8575 
 142   0.0000       0.256661         6.9841 
 143   0.0000       0.264131         7.1874 
 144   0.0000       0.264798         7.2055 
 145   0.0000       0.265715         7.2305 
 146   0.0000       0.276655         7.5282 
 147   0.0000       0.277755         7.5581 
 148   0.0000       0.278162         7.5692 
 149   0.0000       0.279584         7.6079 
 150   0.0000       0.280048         7.6205 
 151   0.0000       0.288976         7.8634 
 152   0.0000       0.291229         7.9247 
 153   0.0000       0.291779         7.9397 
 154   0.0000       0.294926         8.0254 
 155   0.0000       0.297960         8.1079 
 156   0.0000       0.301573         8.2062 
 157   0.0000       0.303260         8.2521 
 158   0.0000       0.303980         8.2717 
 159   0.0000       0.307723         8.3736 
 160   0.0000       0.311397         8.4736 
 161   0.0000       0.313794         8.5388 
 162   0.0000       0.316878         8.6227 
 163   0.0000       0.325912         8.8685 
 164   0.0000       0.328335         8.9344 
 165   0.0000       0.331227         9.0132 
 166   0.0000       0.334089         9.0910 
 167   0.0000       0.335101         9.1186 
 168   0.0000       0.341336         9.2882 
 169   0.0000       0.348786         9.4909 
 170   0.0000       0.356343         9.6966 
 171   0.0000       0.364089         9.9074 
 172   0.0000       0.364592         9.9211 
 173   0.0000       0.367903        10.0111 
 174   0.0000       0.369338        10.0502 
 175   0.0000       0.372812        10.1447 
 176   0.0000       0.382965        10.4210 
 177   0.0000       0.390650        10.6301 
 178   0.0000       0.398846        10.8531 
 179   0.0000       0.400573        10.9002 
 180   0.0000       0.405367        11.0306 
 181   0.0000       0.408762        11.1230 
 182   0.0000       0.410102        11.1594 
 183   0.0000       0.412786        11.2325 
 184   0.0000       0.416566        11.3353 
 185   0.0000       0.418925        11.3995 
 186   0.0000       0.424579        11.5534 
 187   0.0000       0.430882        11.7249 
 188   0.0000       0.431887        11.7522 
 189   0.0000       0.436165        11.8687 
 190   0.0000       0.437448        11.9036 
 191   0.0000       0.442537        12.0420 
 192   0.0000       0.446695        12.1552 
 193   0.0000       0.452819        12.3218 
 194   0.0000       0.458178        12.4677 
 195   0.0000       0.461386        12.5550 
 196   0.0000       0.464804        12.6480 
 197   0.0000       0.467928        12.7330 
 198   0.0000       0.470581        12.8052 
 199   0.0000       0.481361        13.0985 
 200   0.0000       0.484767        13.1912 
 201   0.0000       0.489950        13.3322 
 202   0.0000       0.495808        13.4916 
 203   0.0000       0.502814        13.6823 
 204   0.0000       0.504337        13.7237 
 205   0.0000       0.512660        13.9502 
 206   0.0000       0.512826        13.9547 
 207   0.0000       0.522106        14.2072 
 208   0.0000       0.527555        14.3555 
 209   0.0000       0.533352        14.5132 
 210   0.0000       0.541148        14.7254 
 211   0.0000       0.542766        14.7694 
 212   0.0000       0.542806        14.7705 
 213   0.0000       0.557519        15.1709 
 214   0.0000       0.565485        15.3876 
 215   0.0000       0.573503        15.6058 
 216   0.0000       0.582311        15.8455 
 217   0.0000       0.585292        15.9266 
 218   0.0000       0.586976        15.9724 
 219   0.0000       0.593819        16.1586 
 220   0.0000       0.598806        16.2943 
 221   0.0000       0.615020        16.7355 
 222   0.0000       0.622634        16.9427 
 223   0.0000       0.632568        17.2131 
 224   0.0000       0.646871        17.6023 
 225   0.0000       0.648103        17.6358 
 226   0.0000       0.651591        17.7307 
 227   0.0000       0.659949        17.9581 
 228   0.0000       0.662466        18.0266 
 229   0.0000       0.669489        18.2177 
 230   0.0000       0.694564        18.9000 
 231   0.0000       0.698695        19.0125 
 232   0.0000       0.710580        19.3359 
 233   0.0000       0.740890        20.1606 
 234   0.0000       0.757513        20.6130 
 235   0.0000       0.759712        20.6728 
 236   0.0000       0.770992        20.9798 
 237   0.0000       0.780000        21.2249 
 238   0.0000       0.789914        21.4947 
 239   0.0000       0.801717        21.8158 
 240   0.0000       0.813018        22.1233 
 241   0.0000       0.823803        22.4168 
 242   0.0000       0.833562        22.6824 
 243   0.0000       0.839952        22.8563 
 244   0.0000       0.840505        22.8713 
 245   0.0000       0.843967        22.9655 
 246   0.0000       0.850895        23.1540 
 247   0.0000       0.853794        23.2329 
 248   0.0000       0.859831        23.3972 
 249   0.0000       0.866642        23.5825 
 250   0.0000       0.874037        23.7837 
 251   0.0000       0.881111        23.9763 
 252   0.0000       0.886886        24.1334 
 253   0.0000       0.889213        24.1967 
 254   0.0000       0.897035        24.4096 
 255   0.0000       0.903169        24.5765 
 256   0.0000       0.904436        24.6110 
 257   0.0000       0.910663        24.7804 
 258   0.0000       0.917528        24.9672 
 259   0.0000       0.920793        25.0561 
 260   0.0000       0.925664        25.1886 
 261   0.0000       0.926119        25.2010 
 262   0.0000       0.928733        25.2721 
 263   0.0000       0.936328        25.4788 
 264   0.0000       0.939813        25.5736 
 265   0.0000       0.948969        25.8228 
 266   0.0000       0.955212        25.9927 
 267   0.0000       0.960068        26.1248 
 268   0.0000       0.965102        26.2618 
 269   0.0000       0.968248        26.3474 
 270   0.0000       0.974295        26.5119 
 271   0.0000       0.977005        26.5857 
 272   0.0000       0.977223        26.5916 
 273   0.0000       0.982459        26.7341 
 274   0.0000       0.986504        26.8441 
 275   0.0000       0.993213        27.0267 
 276   0.0000       0.997408        27.1409 
 277   0.0000       1.008399        27.4399 
 278   0.0000       1.010502        27.4972 
 279   0.0000       1.012514        27.5519 
 280   0.0000       1.018355        27.7109 
 281   0.0000       1.026846        27.9419 
 282   0.0000       1.028042        27.9745 
 283   0.0000       1.039071        28.2746 
 284   0.0000       1.039619        28.2895 
 285   0.0000       1.054869        28.7045 
 286   0.0000       1.058702        28.8087 
 287   0.0000       1.069157        29.0932 
 288   0.0000       1.076884        29.3035 
 289   0.0000       1.088065        29.6077 
 290   0.0000       1.093453        29.7544 
 291   0.0000       1.097100        29.8536 
 292   0.0000       1.103834        30.0369 
 293   0.0000       1.105497        30.0821 
 294   0.0000       1.115558        30.3559 
 295   0.0000       1.121119        30.5072 
 296   0.0000       1.123728        30.5782 
 297   0.0000       1.146043        31.1854 
 298   0.0000       1.151356        31.3300 
 299   0.0000       1.167393        31.7664 
 300   0.0000       1.168831        31.8055 
 301   0.0000       1.171339        31.8737 
 302   0.0000       1.179375        32.0924 
 303   0.0000       1.180072        32.1114 
 304   0.0000       1.195031        32.5185 
 305   0.0000       1.200754        32.6742 
 306   0.0000       1.206550        32.8319 
 307   0.0000       1.213729        33.0272 
 308   0.0000       1.226536        33.3757 
 309   0.0000       1.237259        33.6675 
 310   0.0000       1.243021        33.8243 
 311   0.0000       1.247945        33.9583 
 312   0.0000       1.263362        34.3778 
 313   0.0000       1.264974        34.4217 
 314   0.0000       1.282217        34.8909 
 315   0.0000       1.294351        35.2211 
 316   0.0000       1.297169        35.2978 
 317   0.0000       1.306887        35.5622 
 318   0.0000       1.310988        35.6738 
 319   0.0000       1.318155        35.8688 
 320   0.0000       1.327345        36.1189 
 321   0.0000       1.337170        36.3862 
 322   0.0000       1.338048        36.4101 
 323   0.0000       1.343220        36.5509 
 324   0.0000       1.359562        36.9956 
 325   0.0000       1.371345        37.3162 
 326   0.0000       1.383696        37.6523 
 327   0.0000       1.384465        37.6732 
 328   0.0000       1.399083        38.0710 
 329   0.0000       1.403236        38.1840 
 330   0.0000       1.407488        38.2997 
 331   0.0000       1.421263        38.6745 
 332   0.0000       1.423856        38.7451 
 333   0.0000       1.424064        38.7507 
 334   0.0000       1.428801        38.8797 
 335   0.0000       1.431173        38.9442 
 336   0.0000       1.443215        39.2719 
 337   0.0000       1.449856        39.4526 
 338   0.0000       1.451213        39.4895 
 339   0.0000       1.454569        39.5808 
 340   0.0000       1.474118        40.1128 
 341   0.0000       1.483998        40.3816 
 342   0.0000       1.485851        40.4321 
 343   0.0000       1.493382        40.6370 
 344   0.0000       1.503476        40.9117 
 345   0.0000       1.507050        41.0089 
 346   0.0000       1.511901        41.1409 
 347   0.0000       1.536040        41.7978 
 348   0.0000       1.536249        41.8035 
 349   0.0000       1.546269        42.0761 
 350   0.0000       1.548133        42.1268 
 351   0.0000       1.550116        42.1808 
 352   0.0000       1.556090        42.3434 
 353   0.0000       1.571768        42.7700 
 354   0.0000       1.574514        42.8447 
 355   0.0000       1.585071        43.1320 
 356   0.0000       1.585500        43.1437 
 357   0.0000       1.592518        43.3346 
 358   0.0000       1.595311        43.4106 
 359   0.0000       1.600975        43.5648 
 360   0.0000       1.606746        43.7218 
 361   0.0000       1.611384        43.8480 
 362   0.0000       1.612749        43.8851 
 363   0.0000       1.620200        44.0879 
 364   0.0000       1.621177        44.1145 
 365   0.0000       1.627878        44.2968 
 366   0.0000       1.633285        44.4439 
 367   0.0000       1.638924        44.5974 
 368   0.0000       1.645102        44.7655 
 369   0.0000       1.656430        45.0737 
 370   0.0000       1.664100        45.2825 
 371   0.0000       1.670867        45.4666 
 372   0.0000       1.671589        45.4862 
 373   0.0000       1.677564        45.6488 
 374   0.0000       1.680381        45.7255 
 375   0.0000       1.689571        45.9756 
 376   0.0000       1.699222        46.2382 
 377   0.0000       1.699621        46.2490 
 378   0.0000       1.707994        46.4769 
 379   0.0000       1.714604        46.6567 
 380   0.0000       1.727400        47.0050 
 381   0.0000       1.735271        47.2191 
 382   0.0000       1.738883        47.3174 
 383   0.0000       1.748229        47.5717 
 384   0.0000       1.751855        47.6704 
 385   0.0000       1.755678        47.7744 
 386   0.0000       1.756518        47.7973 
 387   0.0000       1.766823        48.0777 
 388   0.0000       1.773017        48.2462 
 389   0.0000       1.778017        48.3823 
 390   0.0000       1.778073        48.3838 
 391   0.0000       1.789954        48.7071 
 392   0.0000       1.797292        48.9068 
 393   0.0000       1.801960        49.0338 
 394   0.0000       1.821128        49.5554 
 395   0.0000       1.831298        49.8321 
 396   0.0000       1.835407        49.9440 
 397   0.0000       1.836726        49.9799 
 398   0.0000       1.844836        50.2005 
 399   0.0000       1.858887        50.5829 
 400   0.0000       1.869269        50.8654 
 401   0.0000       1.898626        51.6642 
 402   0.0000       1.906116        51.8681 
 403   0.0000       1.910767        51.9946 
 404   0.0000       1.923164        52.3320 
 405   0.0000       1.932132        52.5760 
 406   0.0000       1.933984        52.6264 
 407   0.0000       1.937482        52.7216 
 408   0.0000       1.942926        52.8697 
 409   0.0000       1.949778        53.0562 
 410   0.0000       1.956608        53.2420 
 411   0.0000       1.999394        54.4063 
 412   0.0000       2.001514        54.4640 
 413   0.0000       2.014039        54.8048 
 414   0.0000       2.025191        55.1082 
 415   0.0000       2.032235        55.2999 
 416   0.0000       2.056181        55.9515 
 417   0.0000       2.060617        56.0722 
 418   0.0000       2.079461        56.5850 
 419   0.0000       2.092136        56.9299 
 420   0.0000       2.111203        57.4488 
 421   0.0000       2.112365        57.4804 
 422   0.0000       2.131178        57.9923 
 423   0.0000       2.133910        58.0667 
 424   0.0000       2.144257        58.3482 
 425   0.0000       2.154332        58.6223 
 426   0.0000       2.175591        59.2008 
 427   0.0000       2.185850        59.4800 
 428   0.0000       2.208550        60.0977 
 429   0.0000       2.228465        60.6396 
 430   0.0000       2.230372        60.6915 
 431   0.0000       2.234358        60.8000 
 432   0.0000       2.245554        61.1046 
 433   0.0000       2.246862        61.1402 
 434   0.0000       2.255129        61.3652 
 435   0.0000       2.280775        62.0631 
 436   0.0000       2.298127        62.5352 
 437   0.0000       2.304912        62.7198 
 438   0.0000       2.307620        62.7935 
 439   0.0000       2.317004        63.0489 
 440   0.0000       2.320325        63.1393 
 441   0.0000       2.336463        63.5784 
 442   0.0000       2.341986        63.7287 
 443   0.0000       2.345451        63.8230 
 444   0.0000       2.380597        64.7793 
 445   0.0000       2.386197        64.9317 
 446   0.0000       2.394558        65.1592 
 447   0.0000       2.408668        65.5432 
 448   0.0000       2.410514        65.5934 
 449   0.0000       2.416808        65.7647 
 450   0.0000       2.431962        66.1770 
 451   0.0000       2.444794        66.5262 
 452   0.0000       2.446071        66.5610 
 453   0.0000       2.456118        66.8344 
 454   0.0000       2.457893        66.8827 
 455   0.0000       2.469137        67.1886 
 456   0.0000       2.474094        67.3235 
 457   0.0000       2.484987        67.6199 
 458   0.0000       2.489992        67.7561 
 459   0.0000       2.502251        68.0897 
 460   0.0000       2.509471        68.2862 
 461   0.0000       2.514209        68.4151 
 462   0.0000       2.517644        68.5086 
 463   0.0000       2.536959        69.0342 
 464   0.0000       2.547064        69.3091 
 465   0.0000       2.555222        69.5311 
 466   0.0000       2.563798        69.7645 
 467   0.0000       2.572489        70.0010 
 468   0.0000       2.589302        70.4585 
 469   0.0000       2.604094        70.8610 
 470   0.0000       2.606308        70.9212 
 471   0.0000       2.614485        71.1437 
 472   0.0000       2.614702        71.1497 
 473   0.0000       2.626891        71.4813 
 474   0.0000       2.678285        72.8798 
 475   0.0000       2.710312        73.7513 
 476   0.0000       2.738483        74.5179 
 477   0.0000       2.749586        74.8200 
 478   0.0000       2.775510        75.5255 
 479   0.0000       2.803837        76.2963 
 480   0.0000       2.826989        76.9263 
 481   0.0000       2.925322        79.6020 
 482   0.0000       3.045773        82.8797 
 483   0.0000       3.243397        88.2573 
 484   0.0000       3.412689        92.8640 
 485   0.0000       4.976945       135.4296 
 486   0.0000       4.981737       135.5600 
 487   0.0000       4.992810       135.8613 
 488   0.0000       5.001055       136.0856 
 489   0.0000       5.006732       136.2401 
 490   0.0000       5.008020       136.2751 
 491   0.0000       5.014799       136.4596 
 492   0.0000       5.025758       136.7578 
 493   0.0000       5.030763       136.8940 
 494   0.0000       5.038208       137.0966 
 495   0.0000       5.043415       137.2383 
 496   0.0000       5.074180       138.0755 
 497   0.0000       5.079180       138.2115 
 498   0.0000       5.158009       140.3566 
 499   0.0000       5.182922       141.0345 
 500   0.0000       5.214085       141.8825 
 501   0.0000       5.228767       142.2820 
 502   0.0000       5.231550       142.3577 
 503   0.0000       5.247581       142.7939 
 504   0.0000       5.266361       143.3050 
 505   0.0000       5.282681       143.7491 
 506   0.0000       5.295519       144.0984 
 507   0.0000       5.298295       144.1739 
 508   0.0000       5.301454       144.2599 
 509   0.0000       5.305856       144.3797 
 510   0.0000       5.350919       145.6059 
 511   0.0000       5.358956       145.8246 
 512   0.0000       5.364768       145.9828 
 513   0.0000       5.402758       147.0165 
 514   0.0000       5.434525       147.8809 
 515   0.0000       5.447762       148.2412 
 516   0.0000       5.464769       148.7039 
 517   0.0000       5.484705       149.2464 
 518   0.0000       5.547659       150.9595 
 519   0.0000       5.559833       151.2908 
 520   0.0000       5.576362       151.7405 
 521   0.0000       5.606469       152.5598 
 522   0.0000       5.627542       153.1332 
 523   0.0000       5.642592       153.5427 
 524   0.0000       5.662385       154.0813 
 525   0.0000       5.725084       155.7875 
 526   0.0000       5.734965       156.0563 
 527   0.0000       5.775868       157.1694 
 528   0.0000       5.823203       158.4574 
 529   0.0000       5.847426       159.1165 
 530   0.0000       5.868030       159.6772 
 531   0.0000       5.934232       161.4787 
 532   0.0000       6.150414       167.3613 
 533   0.0000       6.295046       171.2969 
 534   0.0000      29.582195       804.9725 
 535   0.0000      29.712074       808.5066 
 536   0.0000      29.794256       810.7429 
 537   0.0000      29.798870       810.8685 
 538   0.0000      29.826321       811.6155 
 539   0.0000      29.841621       812.0318 
 540   0.0000      29.915704       814.0477 
 541   0.0000      29.945947       814.8706 
 542   0.0000      29.973971       815.6332 
 543   0.0000      29.995986       816.2323 
 544   0.0000      30.025828       817.0443 
 545   0.0000      30.055844       817.8611 
 546   0.0000      30.068270       818.1992 
 547   0.0000      30.094689       818.9181 
 548   0.0000      30.108696       819.2993 
 549   0.0000      30.120556       819.6220 
 550   0.0000      30.154017       820.5325 
 551   0.0000      30.204816       821.9148 
 552   0.0000      30.233918       822.7067 
 553   0.0000      30.245808       823.0303 
 554   0.0000      30.268078       823.6363 
 555   0.0000      30.299408       824.4888 
 556   0.0000      30.455546       828.7375 
 557   0.0000      30.522363       830.5557 
 558   0.0000      36.604956       996.0715 
 559   0.0000      36.609536       996.1961 
 560   0.0000      36.619710       996.4730 
 561   0.0000      36.625184       996.6219 
 562   0.0000      36.631794       996.8018 
 563   0.0000      36.636217       996.9221 
 564   0.0000      36.651792       997.3460 
 565   0.0000      36.657119       997.4909 
 566   0.0000      36.663445       997.6631 
 567   0.0000      36.667886       997.7839 
 568   0.0000      36.687810       998.3261 
 569   0.0000      36.700319       998.6664 
 570   0.0000      36.771229      1000.5960 
 571   0.0000      36.808411      1001.6078 
 572   0.0000      36.820927      1001.9484 
 573   0.0000      36.848941      1002.7107 
 574   0.0000      36.859691      1003.0032 
 575   0.0000      36.873493      1003.3787 
 576   0.0000      36.878819      1003.5237 
 577   0.0000      36.922567      1004.7141 
 578   0.0000      36.926700      1004.8266 
 579   0.0000      36.932033      1004.9717 
 580   0.0000      36.990524      1006.5633 
 581   0.0000      37.019553      1007.3533 
 582   0.0000      37.024947      1007.5000 

                 SPIN DOWN ORBITALS
  NO   OCC          E(Eh)            E(eV) 
   0   1.0000     -10.252078      -278.9732 
   1   1.0000     -10.248215      -278.8681 
   2   1.0000     -10.242370      -278.7091 
   3   1.0000     -10.231354      -278.4093 
   4   1.0000     -10.231321      -278.4084 
   5   1.0000     -10.230924      -278.3976 
   6   1.0000     -10.227046      -278.2921 
   7   1.0000     -10.225612      -278.2531 
   8   1.0000     -10.225464      -278.2490 
   9   1.0000     -10.224505      -278.2229 
  10   1.0000     -10.222553      -278.1698 
  11   1.0000     -10.222425      -278.1663 
  12   1.0000     -10.218978      -278.0725 
  13   1.0000     -10.217090      -278.0212 
  14   1.0000     -10.203234      -277.6441 
  15   1.0000     -10.194589      -277.4089 
  16   1.0000     -10.192434      -277.3502 
  17   1.0000     -10.190802      -277.3058 
  18   1.0000     -10.189114      -277.2599 
  19   1.0000     -10.185207      -277.1536 
  20   1.0000     -10.182232      -277.0726 
  21   1.0000     -10.179639      -277.0021 
  22   1.0000     -10.178649      -276.9751 
  23   1.0000     -10.176115      -276.9062 
  24   1.0000      -0.890842       -24.2411 
  25   1.0000      -0.883032       -24.0285 
  26   1.0000      -0.831083       -22.6149 
  27   1.0000      -0.813664       -22.1409 
  28   1.0000      -0.800472       -21.7820 
  29   1.0000      -0.794657       -21.6237 
  30   1.0000      -0.775988       -21.1157 
  31   1.0000      -0.770575       -20.9684 
  32   1.0000      -0.751296       -20.4438 
  33   1.0000      -0.737427       -20.0664 
  34   1.0000      -0.711098       -19.3500 
  35   1.0000      -0.700106       -19.0508 
  36   1.0000      -0.661858       -18.0101 
  37   1.0000      -0.653852       -17.7922 
  38   1.0000      -0.631222       -17.1764 
  39   1.0000      -0.629138       -17.1197 
  40   1.0000      -0.628586       -17.1047 
  41   1.0000      -0.600960       -16.3530 
  42   1.0000      -0.585439       -15.9306 
  43   1.0000      -0.572397       -15.5757 
  44   1.0000      -0.558994       -15.2110 
  45   1.0000      -0.524535       -14.2733 
  46   1.0000      -0.521395       -14.1879 
  47   1.0000      -0.499217       -13.5844 
  48   1.0000      -0.492180       -13.3929 
  49   1.0000      -0.480947       -13.0872 
  50   1.0000      -0.476691       -12.9714 
  51   1.0000      -0.474939       -12.9238 
  52   1.0000      -0.455494       -12.3946 
  53   1.0000      -0.446199       -12.1417 
  54   1.0000      -0.444532       -12.0963 
  55   1.0000      -0.434164       -11.8142 
  56   1.0000      -0.433327       -11.7914 
  57   1.0000      -0.429402       -11.6846 
  58   1.0000      -0.423117       -11.5136 
  59   1.0000      -0.417921       -11.3722 
  60   1.0000      -0.409447       -11.1416 
  61   1.0000      -0.401538       -10.9264 
  62   1.0000      -0.387470       -10.5436 
  63   1.0000      -0.382249       -10.4015 
  64   1.0000      -0.380473       -10.3532 
  65   1.0000      -0.374064       -10.1788 
  66   1.0000      -0.371009       -10.0957 
  67   1.0000      -0.366695        -9.9783 
  68   1.0000      -0.365269        -9.9395 
  69   1.0000      -0.352447        -9.5906 
  70   1.0000      -0.340517        -9.2659 
  71   1.0000      -0.337961        -9.1964 
  72   1.0000      -0.335773        -9.1368 
  73   1.0000      -0.332125        -9.0376 
  74   1.0000      -0.330584        -8.9956 
  75   1.0000      -0.329127        -8.9560 
  76   1.0000      -0.325815        -8.8659 
  77   1.0000      -0.298871        -8.1327 
  78   1.0000      -0.292644        -7.9632 
  79   1.0000      -0.277514        -7.5515 
  80   1.0000      -0.262788        -7.1508 
  81   1.0000      -0.246736        -6.7140 
  82   1.0000      -0.240693        -6.5496 
  83   1.0000      -0.239559        -6.5187 
  84   0.0000      -0.156393        -4.2557 
  85   0.0000      -0.072418        -1.9706 
  86   0.0000      -0.032042        -0.8719 
  87   0.0000      -0.022473        -0.6115 
  88   0.0000      -0.015714        -0.4276 
  89   0.0000       0.001180         0.0321 
  90   0.0000       0.014272         0.3884 
  91   0.0000       0.016280         0.4430 
  92   0.0000       0.022365         0.6086 
  93   0.0000       0.025201         0.6858 
  94   0.0000       0.028319         0.7706 
  95   0.0000       0.030898         0.8408 
  96   0.0000       0.042015         1.1433 
  97   0.0000       0.044766         1.2181 
  98   0.0000       0.049786         1.3547 
  99   0.0000       0.057280         1.5587 
[...]
  Y          -0.0024323            0.9077791            0.4194415
  Z           0.9999969            0.0023939            0.0006180

Notes:  (1) The A matrix conforms to the "SAI" spin Hamiltonian convention.
        (2) Tensor is right-handed.

 -----------------------------------------------------------
 Nucleus  46H : A:ISTP=    1 I=  0.5 P=533.5514 MHz/au**3
                Q:ISTP=    2 I=  1.0 Q=  0.0029 barn     
 -----------------------------------------------------------
 Solving for nuclear perturbation:
Forming RHS of the CP-SCF equations         ... 
Calc. nucleus orbit integrals (SHARK)       ... done

------------------------------------------------------------------------------
                           ORCA CP-SCF CALCULATION
------------------------------------------------------------------------------

Input orbitals are from        ... EPRII.gbw
Input Perturbation             ... EPRII.pin.tmp
Wavefunction output            ... EPRII.pout.tmp
Perturbation mode              ... Imaginary perturbation
Solver                         ... POPLE
Max. number of iterations      ... 64
Convergence tolerance          ... 1.000e-03
Integral handling              ... Direct
DFT GridXC                     ... 1
COSX GridX                     ... 1
COSX IntAccX                   ... 3.067
COSX Algorithm                 ... Auto
Number of perturbations        ... 3
Number of operators            ... 2
Orbital ranges used for CP-SCF:
 Operator 0:  Orbitals   0... 84  to  85...582
 Operator 1:  Orbitals   0... 83  to  84...582
Variables per perturbation     ... 84246
DFT calculation                         ... on
XC functional terms                     ... off
Hybrid DFT                              ... on
   Exchange mixing (SCF)                ...  0.200
   Exchange mixing (CP-SCF)             ...  0.200
   GGA exch. scaling(SCF)               ...  0.720
   GGA exch. scaling (CP-SCF)           ...  0.720
   GGA corr. scaling (SCF)              ...  0.810
   GGA corr. scaling (CP-SCF)           ...  0.810

CP-SCF GRID
-----------

General Integration Accuracy     IntAcc      ... 3.467
Radial Grid Type                 RadialGrid  ... OptM3 with GC (2021)
Angular Grid (max. ang.)         AngularGrid ... 1 (Lebedev-50)
Angular grid pruning method      GridPruning ... 4 (adaptive)
Weight generation scheme         WeightScheme... Becke
Basis function cutoff            BFCut       ... 1.0000e-10
Integration weight cutoff        WCut        ... 1.0000e-14
Angular grids for H and He will be reduced by one unit
Partially contracted basis set               ... off
Rotationally invariant grid construction     ... off

Total number of grid points                  ...    31842
Total number of batches                      ...      519
Average number of points per batch           ...       61
Average number of grid points per atom       ...      650

CP-SCF GRIDX
------------

General Integration Accuracy     IntAcc      ... 3.067
Radial Grid Type                 RadialGrid  ... OptM3 with GC (2021)
Angular Grid (max. ang.)         AngularGrid ... 1 (Lebedev-50)
Angular grid pruning method      GridPruning ... 4 (adaptive)
Weight generation scheme         WeightScheme... Becke
Basis function cutoff            BFCut       ... 1.0000e-10
Integration weight cutoff        WCut        ... 1.0000e-14
Angular grids for H and He will be reduced by one unit
Partially contracted basis set               ... on
Rotationally invariant grid construction     ... off

Total number of grid points                  ...    14941
Total number of batches                      ...      262
Average number of points per batch           ...       57
Average number of grid points per atom       ...      305

Memory available               ... 849.5 MB
Memory needed per perturbation ...  20.0 MB
Perturbations treated per batch... 3
Number of batches              ... 1
     CP-SCF ITERATION   0:   4.6169e-02 (   2.3 sec   0/  3 done)
     CP-SCF ITERATION   1:   2.1385e-03 (   2.3 sec   0/  3 done)
     CP-SCF ITERATION   2:   4.2123e-04 (   2.2 sec   3/  3 done)
                    *** THE CP-SCF HAS CONVERGED ***

Forming final perturbed densities           ... done
Transforming perturbed density to AO basis  ... done

 Raw HFC matrix (all values in MHz): 
 -----------------------------------
                -3.3471               0.7657               0.0019
                 0.7656              -1.8845               0.0039
                 0.0019               0.0039              -3.5553

 A(FC)          -2.9295              -2.9295              -2.9295
 A(SD)           1.3723              -0.6257              -0.7466
 A(ORB+DIA)      0.0002              -0.0001               0.0014    A(PC) =   0.0005
 A(ORB)         -0.0001               0.0000               0.0013    A(PC) =   0.0004
 A(DIA)          0.0003              -0.0001               0.0001    A(PC) =   0.0001
             ----------           ----------           ----------
 A(Tot)         -1.5570              -3.5553              -3.6746    A(iso)=   -2.9289
 Orientation: 
  X           0.3932825            0.0010712            0.9194170
  Y           0.9194152           -0.0027990           -0.3932785
  Z           0.0021522            0.9999955           -0.0020857

Notes:  (1) The A matrix conforms to the "SAI" spin Hamiltonian convention.
        (2) Tensor is right-handed.

 -----------------------------------------------------------
 Nucleus  47H : A:ISTP=    1 I=  0.5 P=533.5514 MHz/au**3
                Q:ISTP=    2 I=  1.0 Q=  0.0029 barn     
 -----------------------------------------------------------
 Solving for nuclear perturbation:
Forming RHS of the CP-SCF equations         ... 
Calc. nucleus orbit integrals (SHARK)       ... done

------------------------------------------------------------------------------
                           ORCA CP-SCF CALCULATION
------------------------------------------------------------------------------

Input orbitals are from        ... EPRII.gbw
Input Perturbation             ... EPRII.pin.tmp
Wavefunction output            ... EPRII.pout.tmp
Perturbation mode              ... Imaginary perturbation
Solver                         ... POPLE
Max. number of iterations      ... 64
Convergence tolerance          ... 1.000e-03
Integral handling              ... Direct
DFT GridXC                     ... 1
COSX GridX                     ... 1
COSX IntAccX                   ... 3.067
COSX Algorithm                 ... Auto
Number of perturbations        ... 3
Number of operators            ... 2
Orbital ranges used for CP-SCF:
 Operator 0:  Orbitals   0... 84  to  85...582
 Operator 1:  Orbitals   0... 83  to  84...582
Variables per perturbation     ... 84246
DFT calculation                         ... on
XC functional terms                     ... off
Hybrid DFT                              ... on
   Exchange mixing (SCF)                ...  0.200
   Exchange mixing (CP-SCF)             ...  0.200
   GGA exch. scaling(SCF)               ...  0.720
   GGA exch. scaling (CP-SCF)           ...  0.720
   GGA corr. scaling (SCF)              ...  0.810
   GGA corr. scaling (CP-SCF)           ...  0.810

CP-SCF GRID
-----------

General Integration Accuracy     IntAcc      ... 3.467
Radial Grid Type                 RadialGrid  ... OptM3 with GC (2021)
Angular Grid (max. ang.)         AngularGrid ... 1 (Lebedev-50)
Angular grid pruning method      GridPruning ... 4 (adaptive)
Weight generation scheme         WeightScheme... Becke
Basis function cutoff            BFCut       ... 1.0000e-10
Integration weight cutoff        WCut        ... 1.0000e-14
Angular grids for H and He will be reduced by one unit
Partially contracted basis set               ... off
Rotationally invariant grid construction     ... off

Total number of grid points                  ...    31842
Total number of batches                      ...      519
Average number of points per batch           ...       61
Average number of grid points per atom       ...      650

CP-SCF GRIDX
------------

General Integration Accuracy     IntAcc      ... 3.067
Radial Grid Type                 RadialGrid  ... OptM3 with GC (2021)
Angular Grid (max. ang.)         AngularGrid ... 1 (Lebedev-50)
Angular grid pruning method      GridPruning ... 4 (adaptive)
Weight generation scheme         WeightScheme... Becke
Basis function cutoff            BFCut       ... 1.0000e-10
Integration weight cutoff        WCut        ... 1.0000e-14
Angular grids for H and He will be reduced by one unit
Partially contracted basis set               ... on
Rotationally invariant grid construction     ... off

Total number of grid points                  ...    14941
Total number of batches                      ...      262
Average number of points per batch           ...       57
Average number of grid points per atom       ...      305

Memory available               ... 848.8 MB
Memory needed per perturbation ...  20.0 MB
Perturbations treated per batch... 3
Number of batches              ... 1
     CP-SCF ITERATION   0:   4.6239e-02 (   2.3 sec   0/  3 done)
     CP-SCF ITERATION   1:   2.1344e-03 (   2.4 sec   0/  3 done)
     CP-SCF ITERATION   2:   4.1807e-04 (   2.5 sec   3/  3 done)
                    *** THE CP-SCF HAS CONVERGED ***

Forming final perturbed densities           ... done
Transforming perturbed density to AO basis  ... done

 Raw HFC matrix (all values in MHz): 
 -----------------------------------
                -3.4687              -0.6276              -0.0011
                -0.6276              -1.7580               0.0039
                -0.0011               0.0039              -3.5478

 A(FC)          -2.9254              -2.9254              -2.9254
 A(SD)           1.3727              -0.6224              -0.7503
 A(ORB+DIA)      0.0002              -0.0001               0.0015    A(PC) =   0.0005
 A(ORB)         -0.0001               0.0000               0.0014    A(PC) =   0.0005
 A(DIA)          0.0003              -0.0001               0.0001    A(PC) =   0.0001
             ----------           ----------           ----------
 A(Tot)         -1.5525              -3.5479              -3.6742    A(iso)=   -2.9248
 Orientation: 
  X          -0.3112441            0.0015806            0.9503287
  Y           0.9503278           -0.0016199            0.3112465
  Z           0.0020314            0.9999974           -0.0009979

Notes:  (1) The A matrix conforms to the "SAI" spin Hamiltonian convention.
        (2) Tensor is right-handed.

 -----------------------------------------------------------
 Nucleus  48H : A:ISTP=    1 I=  0.5 P=533.5514 MHz/au**3
                Q:ISTP=    2 I=  1.0 Q=  0.0029 barn     
 -----------------------------------------------------------
 Solving for nuclear perturbation:
Forming RHS of the CP-SCF equations         ... 
Calc. nucleus orbit integrals (SHARK)       ... done

------------------------------------------------------------------------------
                           ORCA CP-SCF CALCULATION
------------------------------------------------------------------------------

Input orbitals are from        ... EPRII.gbw
Input Perturbation             ... EPRII.pin.tmp
Wavefunction output            ... EPRII.pout.tmp
Perturbation mode              ... Imaginary perturbation
Solver                         ... POPLE
Max. number of iterations      ... 64
Convergence tolerance          ... 1.000e-03
Integral handling              ... Direct
DFT GridXC                     ... 1
COSX GridX                     ... 1
COSX IntAccX                   ... 3.067
COSX Algorithm                 ... Auto
Number of perturbations        ... 3
Number of operators            ... 2
Orbital ranges used for CP-SCF:
 Operator 0:  Orbitals   0... 84  to  85...582
 Operator 1:  Orbitals   0... 83  to  84...582
Variables per perturbation     ... 84246
DFT calculation                         ... on
XC functional terms                     ... off
Hybrid DFT                              ... on
   Exchange mixing (SCF)                ...  0.200
   Exchange mixing (CP-SCF)             ...  0.200
   GGA exch. scaling(SCF)               ...  0.720
   GGA exch. scaling (CP-SCF)           ...  0.720
   GGA corr. scaling (SCF)              ...  0.810
   GGA corr. scaling (CP-SCF)           ...  0.810

CP-SCF GRID
-----------

General Integration Accuracy     IntAcc      ... 3.467
Radial Grid Type                 RadialGrid  ... OptM3 with GC (2021)
Angular Grid (max. ang.)         AngularGrid ... 1 (Lebedev-50)
Angular grid pruning method      GridPruning ... 4 (adaptive)
Weight generation scheme         WeightScheme... Becke
Basis function cutoff            BFCut       ... 1.0000e-10
Integration weight cutoff        WCut        ... 1.0000e-14
Angular grids for H and He will be reduced by one unit
Partially contracted basis set               ... off
Rotationally invariant grid construction     ... off

Total number of grid points                  ...    31842
Total number of batches                      ...      519
Average number of points per batch           ...       61
Average number of grid points per atom       ...      650

CP-SCF GRIDX
------------

General Integration Accuracy     IntAcc      ... 3.067
Radial Grid Type                 RadialGrid  ... OptM3 with GC (2021)
Angular Grid (max. ang.)         AngularGrid ... 1 (Lebedev-50)
Angular grid pruning method      GridPruning ... 4 (adaptive)
Weight generation scheme         WeightScheme... Becke
Basis function cutoff            BFCut       ... 1.0000e-10
Integration weight cutoff        WCut        ... 1.0000e-14
Angular grids for H and He will be reduced by one unit
Partially contracted basis set               ... on
Rotationally invariant grid construction     ... off

Total number of grid points                  ...    14941
Total number of batches                      ...      262
Average number of points per batch           ...       57
Average number of grid points per atom       ...      305

Memory available               ... 848.0 MB
Memory needed per perturbation ...  20.0 MB
Perturbations treated per batch... 3
Number of batches              ... 1
     CP-SCF ITERATION   0:   4.1979e-02 (   2.4 sec   0/  3 done)
     CP-SCF ITERATION   1:   1.7592e-03 (   2.3 sec   1/  3 done)
     CP-SCF ITERATION   2:   9.7702e-05 (   1.9 sec   3/  3 done)
                    *** THE CP-SCF HAS CONVERGED ***

Forming final perturbed densities           ... done
Transforming perturbed density to AO basis  ... done

 Raw HFC matrix (all values in MHz): 
 -----------------------------------
                 1.8434               0.2961               0.0010
                 0.2960               1.1546               0.0007
                 0.0010               0.0007               0.8486

 A(FC)           1.2822               1.2822               1.2822
 A(SD)          -0.4337              -0.2376               0.6713
 A(ORB+DIA)      0.0000               0.0002              -0.0003    A(PC) =  -0.0000
 A(ORB)         -0.0000               0.0002              -0.0004    A(PC) =  -0.0001
 A(DIA)          0.0001               0.0000               0.0001    A(PC) =   0.0001
             ----------           ----------           ----------
 A(Tot)          0.8485               1.0448               1.9532    A(iso)=    1.2822
 Orientation: 
  X          -0.0004327           -0.3476578           -0.9376214
  Y          -0.0018321            0.9376202           -0.3476565
  Z           0.9999982            0.0015674           -0.0010427

Notes:  (1) The A matrix conforms to the "SAI" spin Hamiltonian convention.
        (2) Tensor is right-handed.


--------------------------------------------------------------------------------
----------------------------------------------------------------------------
                           ORCA EULER ANGLE PROGRAM
----------------------------------------------------------------------------

Only g-tensor available        -->  using g-tensor as reference tensor

Reference tensor               ...  g

g-tensor ordering              ...  |g_min> --> |gx>
                                    |g_mid> --> |gy>
                                    |g_max> --> |gz>

A- and EFG-tensor ordering     ...  the axes |Ax>, |Qx>, |Ay>, etc. are assigned
                                    such that the Euler rotation is minimal. You
                                    can find the respective eigenvalues as Ax,
                                    EFGx, Ay, etc. in the tables below.
                                    The relation of |Ax>, |Ay>,  etc. to Amin, Amid, etc.
                                    (as printed in the ORCA EPR/NMR CALCULATION Output)
                                    is obtained in the detailed printout.

Euler rotation around          ...  z - y - z
   First rotation              -->  by alpha around z
   Second rotation             -->  by beta around y'
   Third rotation              -->  by gamma around z''
   Positive / Negative angle   -->  clockwise / counterclockwise rotation

Plot EFG-tensors                    (-)
Plot HFC-tensors                    (-)
Detailed Printout                   (-)

-------------------------------------------------------------------------
          Euler rotation of hyperfine tensor to g-tensor
-------------------------------------------------------------------------

-------------------------------------------------------------------
 Atom  |   Alpha    Beta    Gamma   |   Ax       Ay       Az 
       |          [degrees]         |           [MHz]         
-------------------------------------------------------------------
  9H       90.4     38.5    -90.4       2.73     3.59     6.67
 10H       90.9     20.2    -90.9     -10.31    -3.91   -10.93
 12H       59.1     15.5    -42.3      13.05    17.78    14.66
 13H      122.2     15.9   -139.0      13.05    17.78    14.67
 15H       78.5     29.8    -64.1      -0.98     0.85    -0.76
 16H      102.6     30.1   -116.9      -0.98     0.85    -0.76
 18H      133.6      6.9   -142.9      -0.38     0.87    -0.29
 19H       50.4      6.3    -41.0      -0.38     0.87    -0.29
 21H       92.2     17.5   -100.0      -0.17     0.39    -0.11
 22H       89.9     17.5    -82.0      -0.17     0.39    -0.11
 24H      -98.1     25.9    113.5      -5.15    -3.51    -4.41
 25H      -83.2     25.7     67.8      -5.15    -3.51    -4.41
 27H      -82.4     24.6     69.9      -0.14     1.51     0.06
 28H      -99.0     24.8    111.5      -0.14     1.51     0.06
 30H      -96.0     26.8    105.7      -0.32     0.28    -0.16
 31H      -85.4     26.7     75.5      -0.32     0.28    -0.16
 33H      -92.0     13.9     99.5      -0.21     0.32    -0.14
 34H      -90.7     13.8     83.1      -0.21     0.32    -0.14
 36H       92.4      8.1    -92.4      -0.18     0.29    -0.14
 37H      -91.0     17.8     91.0      -0.14     0.21    -0.09
 44H      171.5      0.3   -171.5      -3.44    -5.19    -1.26
 45H      -90.8     22.5     90.7       0.85     1.05     1.95
 46H      -91.1     20.9     91.0      -3.56    -1.56    -3.67
 47H       91.2     20.4    -91.1      -3.55    -1.55    -3.67
 48H       90.8     22.6    -90.7       0.85     1.04     1.95
-------------------------------------------------------------------


Maximum memory used throughout the entire EPRNMR-calculation: 284.1 MB

Timings for individual modules:

Sum of individual times         ...     5432.466 sec (=  90.541 min)
GTO integral calculation        ...        5.959 sec (=   0.099 min)   0.1 %
Spin-Orbit-Coupling Matrices    ...       14.927 sec (=   0.249 min)   0.3 %
SCF iterations                  ...       37.416 sec (=   0.624 min)   0.7 %
EPR/NMR calculation             ...     5374.164 sec (=  89.569 min)  98.9 %
                             ****ORCA TERMINATED NORMALLY****
TOTAL RUN TIME: 0 days 1 hours 30 minutes 36 seconds 982 msec
