
                                 *****************
                                 * O   R   C   A *
                                 *****************

           --- An Ab Initio, DFT and Semiempirical electronic structure package ---

                  #######################################################
                  #                        -***-                        #
                  #          Department of theory and spectroscopy      #
                  #               Directorship: Frank Neese             #
                  #        Max Planck Institute fuer Kohlenforschung    #
                  #                Kaiser Wilhelm Platz 1               #
                  #                 D-45470 Muelheim/Ruhr               #
                  #                      Germany                        #
                  #                                                     #
                  #                  All rights reserved                #
                  #                        -***-                        #
                  #######################################################


                         Program Version 4.2.1 -  RELEASE  -


 With contributions from (in alphabetic order):
   Daniel Aravena         : Magnetic Suceptibility
   Michael Atanasov       : Ab Initio Ligand Field Theory (pilot matlab implementation)
   Alexander A. Auer      : GIAO ZORA, VPT2
   Ute Becker             : Parallelization
   Giovanni Bistoni       : ED, misc. LED, open-shell LED, HFLD
   Martin Brehm           : Molecular dynamics
   Dmytro Bykov           : SCF Hessian
   Vijay G. Chilkuri      : MRCI spin determinant printing, contributions to CSF-ICE
   Dipayan Datta          : RHF DLPNO-CCSD density
   Achintya Kumar Dutta   : EOM-CC, STEOM-CC
   Dmitry Ganyushin       : Spin-Orbit,Spin-Spin,Magnetic field MRCI
   Miquel Garcia          : C-PCM Hessian, Gaussian charge scheme
   Yang Guo               : DLPNO-NEVPT2, CIM, IAO-localization
   Andreas Hansen         : Spin unrestricted coupled pair/coupled cluster methods
   Benjamin Helmich-Paris : CASSCF linear response (MC-RPA)
   Lee Huntington         : MR-EOM, pCC
   Robert Izsak           : Overlap fitted RIJCOSX, COSX-SCS-MP3, EOM
   Christian Kollmar      : KDIIS, OOCD, Brueckner-CCSD(T), CCSD density
   Simone Kossmann        : Meta GGA functionals, TD-DFT gradient, OOMP2, MP2 Hessian
   Martin Krupicka        : AUTO-CI
   Lucas Lang             : DCDCAS
   Dagmar Lenk            : GEPOL surface, SMD
   Dimitrios Liakos       : Extrapolation schemes; Compound Job, initial MDCI parallelization
   Dimitrios Manganas     : Further ROCIS development; embedding schemes
   Dimitrios Pantazis     : SARC Basis sets
   Taras Petrenko         : DFT Hessian,TD-DFT gradient, ASA, ECA, R-Raman, ABS, FL, XAS/XES, NRVS
   Peter Pinski           : DLPNO-MP2, DLPNO-MP2 Gradient
   Christoph Reimann      : Effective Core Potentials
   Marius Retegan         : Local ZFS, SOC
   Christoph Riplinger    : Optimizer, TS searches, QM/MM, DLPNO-CCSD(T), (RO)-DLPNO pert. Triples
   Tobias Risthaus        : Range-separated hybrids, TD-DFT gradient, RPA, STAB
   Michael Roemelt        : Original ROCIS implementation
   Masaaki Saitow         : Open-shell DLPNO-CCSD energy and density
   Barbara Sandhoefer     : DKH picture change effects
   Avijit Sen             : IP-ROCIS
   Kantharuban Sivalingam : CASSCF convergence, NEVPT2, FIC-MRCI
   Bernardo de Souza      : ESD, SOC TD-DFT
   Georgi Stoychev        : AutoAux, RI-MP2 NMR
   Willem Van den Heuvel  : Paramagnetic NMR
   Boris Wezisla          : Elementary symmetry handling
   Frank Wennmohs         : Technical directorship


 We gratefully acknowledge several colleagues who have allowed us to
 interface, adapt or use parts of their codes:
   Stefan Grimme, W. Hujo, H. Kruse,             : VdW corrections, initial TS optimization,
                  C. Bannwarth                     DFT functionals, gCP, sTDA/sTD-DF
   Ed Valeev, F. Pavosevic, A. Kumar             : LibInt (2-el integral package), F12 methods
   Garnet Chan, S. Sharma, J. Yang, R. Olivares  : DMRG
   Ulf Ekstrom                                   : XCFun DFT Library
   Mihaly Kallay                                 : mrcc  (arbitrary order and MRCC methods)
   Andreas Klamt, Michael Diedenhofen            : otool_cosmo (COSMO solvation model)
   Jiri Pittner, Ondrej Demel                    : Mk-CCSD
   Frank Weinhold                                : gennbo (NPA and NBO analysis)
   Christopher J. Cramer and Donald G. Truhlar   : smd solvation model
   Lars Goerigk                                  : TD-DFT with DH, B97 family of functionals
   V. Asgeirsson, H. Jonsson                     : NEB implementation
   FAccTs GmbH                                   : IRC, NEB, NEB-TS, Multilevel, MM, QM/MM, CI optimization
   S Lehtola, MJT Oliveira, MAL Marques          : LibXC Library


 Your calculation uses the libint2 library for the computation of 2-el integrals
 For citations please refer to: http://libint.valeyev.net

 Your ORCA version has been built with support for libXC version: 4.2.3
 For citations please refer to: https://tddft.org/programs/libxc/

 This ORCA versions uses:
   CBLAS   interface :  Fast vector & matrix operations
   LAPACKE interface :  Fast linear algebra routines
   SCALAPACK package :  Parallel linear algebra routines




***************************************
The coordinates will be read from file: opt.xyz
***************************************


----- Orbital basis set information -----
Your calculation utilizes the basis: EPR-II
   V. Barone, in Recent Advances in Density Functional Methods, Part 1 (ed. D. P. Chong), World Scientific, Singapore, 1995, p. 287.

----- AuxJ basis set information -----
Your calculation utilizes the AutoAux generation procedure.
  G. L. Stoychev, A. A. Auer, F. Neese, J. Chem. Theory Comput. 13, 554 (2017)

----- AuxC basis set information -----
Your calculation utilizes the AutoAux generation procedure.
  G. L. Stoychev, A. A. Auer, F. Neese, J. Chem. Theory Comput. 13, 554 (2017)

----- AuxJK basis set information -----
Your calculation utilizes the AutoAux generation procedure.
  G. L. Stoychev, A. A. Auer, F. Neese, J. Chem. Theory Comput. 13, 554 (2017)

================================================================================
                                        WARNINGS
                       Please study these warnings very carefully!
================================================================================


WARNING: your system is open-shell and RHF/RKS was chosen
  ===> : WILL SWITCH to UHF/UKS


INFO   : the flag for use of LIBINT has been found!

================================================================================
                                       INPUT FILE
================================================================================
NAME = EPRII.inp
|  1> ! B3LYP EPR-II AUTOAUX
|  2> %pal nprocs 16 end
|  3> *XYZFile 0 2 opt.xyz
|  4> %EPRNMR
|  5>         GTENSOR   TRUE
|  6>         NUCLEI    = ALL H {AISO, ADIP, AORB}
|  7> END
|  8> 
|  9>                          ****END OF INPUT****
================================================================================

                       ****************************
                       * Single Point Calculation *
                       ****************************

---------------------------------
CARTESIAN COORDINATES (ANGSTROEM)
---------------------------------
  C     -4.098967    0.087649   -0.018603
  C     -2.815047    0.044667   -0.012458
  C      2.806862   -0.008947   -0.008584
  C     -1.422247    0.005174   -0.011616
  C     -0.708894   -1.249265   -0.014028
  C      0.675479   -1.198923   -0.012845
  C      1.391746    0.027780   -0.009474
  C      0.694256    1.279949   -0.007020
  C     -0.687609    1.232598   -0.008258
  H      1.257763   -2.119956   -0.014550
  H     -1.273669    2.150931   -0.006648
  C     -1.486165   -2.546334   -0.017599
  H     -2.166793   -2.531677   -0.888308
  H     -2.167517   -2.535988    0.852613
  C     -0.671077   -3.841512   -0.020366
  H     -0.007470   -3.867713   -0.905274
  H     -0.008441   -3.872109    0.865127
  C     -1.557915   -5.092292   -0.023885
  H     -2.224775   -5.067424    0.857968
  H     -2.223411   -5.063394   -0.906640
  C     -0.757529   -6.396373   -0.026244
  H     -0.108656   -6.471160    0.863891
  H     -0.107131   -6.466991   -0.915612
  C      1.479893    2.575731   -0.003505
  H      2.155518    2.565762    0.872279
  H      2.156092    2.570080   -0.878895
  C      0.665928    3.872021   -0.000661
  H      0.003382    3.900552   -0.885480
  H      0.002252    3.896000    0.883449
  C      1.551293    5.123627    0.003021
  H      2.216435    5.096723    0.886755
  H      2.218017    5.100803   -0.879638
  C      0.748444    6.426327    0.005308
  H      0.097582    6.494527    0.894121
  H      0.099548    6.498868   -0.884591
  C      4.031675   -0.053763   -0.009994
  H     -1.421069   -7.275944   -0.028889
  H      1.410119    7.307322    0.008206
  C      5.454574   -0.104157   -0.009614
  C      6.128342   -1.346466   -0.015274
  C      7.521137   -1.388941   -0.014795
  C      8.263853   -0.202169   -0.008716
  C      7.606163    1.033861   -0.003117
  C      6.213833    1.087895   -0.003585
  H      9.355918   -0.240878   -0.008329
  H      8.183514    1.961157    0.001688
  H      5.544563   -2.268661   -0.020082
  H      5.695622    2.048620    0.000827
  H      8.032889   -2.354074   -0.019252

----------------------------
CARTESIAN COORDINATES (A.U.)
----------------------------
  NO LB      ZA    FRAG     MASS         X           Y           Z
   0 C     6.0000    0    12.011   -7.745926    0.165632   -0.035154
   1 C     6.0000    0    12.011   -5.319667    0.084408   -0.023543
   2 C     6.0000    0    12.011    5.304201   -0.016907   -0.016221
   3 C     6.0000    0    12.011   -2.687657    0.009778   -0.021951
   4 C     6.0000    0    12.011   -1.339616   -2.360769   -0.026509
   5 C     6.0000    0    12.011    1.276470   -2.265637   -0.024274
   6 C     6.0000    0    12.011    2.630018    0.052497   -0.017903
   7 C     6.0000    0    12.011    1.311953    2.418754   -0.013266
   8 C     6.0000    0    12.011   -1.299393    2.329273   -0.015606
   9 H     1.0000    0     1.008    2.376828   -4.006136   -0.027496
  10 H     1.0000    0     1.008   -2.406886    4.064671   -0.012563
  11 C     6.0000    0    12.011   -2.808445   -4.811874   -0.033258
  12 H     1.0000    0     1.008   -4.094645   -4.784175   -1.678659
  13 H     1.0000    0     1.008   -4.096014   -4.792322    1.611206
  14 C     6.0000    0    12.011   -1.268153   -7.259406   -0.038487
  15 H     1.0000    0     1.008   -0.014117   -7.308919   -1.710721
  16 H     1.0000    0     1.008   -0.015952   -7.317226    1.634854
  17 C     6.0000    0    12.011   -2.944033   -9.623036   -0.045136
  18 H     1.0000    0     1.008   -4.204216   -9.576043    1.621324
  19 H     1.0000    0     1.008   -4.201638   -9.568429   -1.713301
  20 C     6.0000    0    12.011   -1.431522  -12.087393   -0.049595
  21 H     1.0000    0     1.008   -0.205330  -12.228721    1.632517
  22 H     1.0000    0     1.008   -0.202449  -12.220841   -1.730256
  23 C     6.0000    0    12.011    2.796592    4.867427   -0.006624
  24 H     1.0000    0     1.008    4.073339    4.848587    1.648368
  25 H     1.0000    0     1.008    4.074423    4.856748   -1.660870
  26 C     6.0000    0    12.011    1.258422    7.317060   -0.001250
  27 H     1.0000    0     1.008    0.006392    7.370975   -1.673315
  28 H     1.0000    0     1.008    0.004257    7.362372    1.669476
  29 C     6.0000    0    12.011    2.931520    9.682252    0.005709
  30 H     1.0000    0     1.008    4.188455    9.631411    1.675725
  31 H     1.0000    0     1.008    4.191445    9.639120   -1.662274
  32 C     6.0000    0    12.011    1.414353   12.143998    0.010031
  33 H     1.0000    0     1.008    0.184403   12.272877    1.689644
  34 H     1.0000    0     1.008    0.188118   12.281081   -1.671634
  35 C     6.0000    0    12.011    7.618761   -0.101597   -0.018886
  36 H     1.0000    0     1.008   -2.685432  -13.749542   -0.054593
  37 H     1.0000    0     1.008    2.664738   13.808838    0.015507
  38 C     6.0000    0    12.011   10.307650   -0.196829   -0.018167
  39 C     6.0000    0    12.011   11.580887   -2.544452   -0.028864
  40 C     6.0000    0    12.011   14.212889   -2.624719   -0.027958
  41 C     6.0000    0    12.011   15.616419   -0.382044   -0.016471
  42 C     6.0000    0    12.011   14.373565    1.953714   -0.005891
  43 C     6.0000    0    12.011   11.742443    2.055824   -0.006775
  44 H     1.0000    0     1.008   17.680124   -0.455194   -0.015740
  45 H     1.0000    0     1.008   15.464601    3.706050    0.003190
  46 H     1.0000    0     1.008   10.477706   -4.287147   -0.037949
  47 H     1.0000    0     1.008   10.763167    3.871331    0.001563
  48 H     1.0000    0     1.008   15.179960   -4.448554   -0.036380

--------------------------------
INTERNAL COORDINATES (ANGSTROEM)
--------------------------------
 C      0   0   0     0.000000000000     0.00000000     0.00000000
 C      1   0   0     1.284654752966     0.00000000     0.00000000
 C      2   1   0     5.622165557303   178.60909081     0.00000000
 C      2   1   3     1.393359584340   179.62147045   330.47442303
 C      4   2   1     1.443085522910   121.24932386   219.36556965
 C      5   4   2     1.385288420487   117.54251710   180.00648999
 C      3   2   1     1.415593297012     0.94029539     9.92071300
 C      7   3   6     1.433326995994   120.60545256   180.00007561
 C      8   7   3     1.382676229963   117.15622209   179.99187812
 H      6   5   4     1.089660176734   120.21865783   179.99873695
 H      9   8   7     1.089405483158   120.58248750   180.00786446
 C      5   4   2     1.512134471561   119.44262385     0.00000000
 H     12   5   4     1.105261327667   107.87995423    55.82591215
 H     12   5   4     1.105268273420   107.87758110   304.13551785
 C     12   5   4     1.530314422108   116.88469379   179.98601746
 H     15  12   5     1.106400837374   109.93494883   301.67475221
 H     15  12   5     1.106400474315   109.93506049    58.33153558
 C     15  12   5     1.533278221771   112.47921929   180.00021801
 H     18  15  12     1.105886317285   109.18401974   302.37472473
 H     18  15  12     1.105882636372   109.18261168    57.66182608
 C     18  15  12     1.530114697828   113.12269121   180.01778213
 H     21  18  15     1.104069769890   111.34070763    59.91305270
 H     21  18  15     1.104073662976   111.33995505   300.10033763
 C      8   7   3     1.515350781100   119.65264421     0.00000000
 H     24   8   7     1.106149903770   108.10713182   303.63349816
 H     24   8   7     1.106157109615   108.10314100    56.40755407
 C     24   8   7     1.530658050938   116.64611906   180.01520187
 H     27  24   8     1.105751357915   109.81556611   301.74945375
 H     27  24   8     1.105753678449   109.81731774    58.22193223
 C     27  24   8     1.533101799670   112.59975483   179.99049334
 H     30  27  24     1.106400987696   109.22299324   302.26188622
 H     30  27  24     1.106403111709   109.22302388    57.69114791
 C     30  27  24     1.530228856135   113.07977216   179.97640078
 H     33  30  27     1.103748808877   111.29613936    59.84806418
 H     33  30  27     1.103742762199   111.29660143   300.12389734
 C      3   2   1     1.225632897860   178.44726630   193.60261745
 H     21  18  15     1.101788930213   111.42985576   180.00783340
 H     33  30  27     1.101805621113   111.44621493   179.98483884
 C     36   3   7     1.423791183822   179.89458762   220.91984653
 C     39  36   3     1.413267921508   120.50129873   129.85014126
 C     40  39  36     1.393443103333   120.21968266   180.00351741
 C     41  40  39     1.400032966925   120.29251495     0.00000000
 C     42  41  40     1.400128233315   119.94366257     0.00000000
 C     43  42  41     1.393377932397   120.23947732     0.00000000
 H     42  41  40     1.092751119644   120.00926722   179.99778548
 H     43  42  41     1.092353302490   120.07602882   179.99654518
 H     40  39  36     1.091449963543   119.19222779     0.00000000
 H     44  43  42     1.091583467094   120.56427833   179.99605856
 H     41  40  39     1.092423844175   119.68075016   180.00321709

---------------------------
INTERNAL COORDINATES (A.U.)
---------------------------
 C      0   0   0     0.000000000000     0.00000000     0.00000000
 C      1   0   0     2.427645659747     0.00000000     0.00000000
 C      2   1   0    10.624353182867   178.60909081     0.00000000
 C      2   1   3     2.633068020476   179.62147045   330.47442303
 C      4   2   1     2.727036426126   121.24932386   219.36556965
 C      5   4   2     2.617815731213   117.54251710   180.00648999
 C      3   2   1     2.675083648367     0.94029539     9.92071300
 C      7   3   6     2.708595482786   120.60545256   180.00007561
 C      8   7   3     2.612879406512   117.15622209   179.99187812
 H      6   5   4     2.059159313068   120.21865783   179.99873695
 H      9   8   7     2.058678011960   120.58248750   180.00786446
 C      5   4   2     2.857520028912   119.44262385     0.00000000
 H     12   5   4     2.088641215705   107.87995423    55.82591215
 H     12   5   4     2.088654341276   107.87758110   304.13551785
 C     12   5   4     2.891875156574   116.88469379   179.98601746
 H     15  12   5     2.090794576978   109.93494883   301.67475221
 H     15  12   5     2.090793890895   109.93506049    58.33153558
 C     15  12   5     2.897475926254   112.47921929   180.00021801
 H     18  15  12     2.089822274919   109.18401974   302.37472473
 H     18  15  12     2.089815319002   109.18261168    57.66182608
 C     18  15  12     2.891497732382   113.12269121   180.01778213
 H     21  18  15     2.086389497834   111.34070763    59.91305270
 H     21  18  15     2.086396854700   111.33995505   300.10033763
 C      8   7   3     2.863597973102   119.65264421     0.00000000
 H     24   8   7     2.090320381188   108.10713182   303.63349816
 H     24   8   7     2.090333998263   108.10314100    56.40755407
 C     24   8   7     2.892524520954   116.64611906   180.01520187
 H     27  24   8     2.089567238670   109.81556611   301.74945375
 H     27  24   8     2.089571623845   109.81731774    58.22193223
 C     27  24   8     2.897142536799   112.59975483   179.99049334
 H     30  27  24     2.090794861045   109.22299324   302.26188622
 H     30  27  24     2.090798874849   109.22302388    57.69114791
 C     30  27  24     2.891713460318   113.07977216   179.97640078
 H     33  30  27     2.085782969420   111.29613936    59.84806418
 H     33  30  27     2.085771542854   111.29660143   300.12389734
 C      3   2   1     2.316110517679   178.44726630   193.60261745
 H     21  18  15     2.082079335489   111.42985576   180.00783340
 H     33  30  27     2.082110876718   111.44621493   179.98483884
 C     36   3   7     2.690575409314   179.89458762   220.91984653
 C     39  36   3     2.670689325506   120.50129873   129.85014126
 C     40  39  36     2.633225848500   120.21968266   180.00351741
 C     41  40  39     2.645678885949   120.29251495     0.00000000
 C     42  41  40     2.645858913336   119.94366257     0.00000000
 C     43  42  41     2.633102693280   120.23947732     0.00000000
 H     42  41  40     2.065000348662   120.00926722   179.99778548
 H     43  42  41     2.064248583190   120.07602882   179.99654518
 H     40  39  36     2.062541519974   119.19222779     0.00000000
 H     44  43  42     2.062793805124   120.56427833   179.99605856
 H     41  40  39     2.064381887655   119.68075016   180.00321709

---------------------
BASIS SET INFORMATION
---------------------
There are 2 groups of distinct atoms

 Group   1 Type C   : 10s5p1d contracted to 6s2p1d pattern {511111/41/1}
 Group   2 Type H   : 6s1p contracted to 4s1p pattern {3111/1}

Atom   0C    basis set group =>   1
Atom   1C    basis set group =>   1
Atom   2C    basis set group =>   1
Atom   3C    basis set group =>   1
Atom   4C    basis set group =>   1
Atom   5C    basis set group =>   1
Atom   6C    basis set group =>   1
Atom   7C    basis set group =>   1
Atom   8C    basis set group =>   1
Atom   9H    basis set group =>   2
Atom  10H    basis set group =>   2
Atom  11C    basis set group =>   1
Atom  12H    basis set group =>   2
Atom  13H    basis set group =>   2
Atom  14C    basis set group =>   1
Atom  15H    basis set group =>   2
Atom  16H    basis set group =>   2
Atom  17C    basis set group =>   1
Atom  18H    basis set group =>   2
Atom  19H    basis set group =>   2
Atom  20C    basis set group =>   1
Atom  21H    basis set group =>   2
Atom  22H    basis set group =>   2
Atom  23C    basis set group =>   1
Atom  24H    basis set group =>   2
Atom  25H    basis set group =>   2
Atom  26C    basis set group =>   1
Atom  27H    basis set group =>   2
Atom  28H    basis set group =>   2
Atom  29C    basis set group =>   1
Atom  30H    basis set group =>   2
Atom  31H    basis set group =>   2
Atom  32C    basis set group =>   1
Atom  33H    basis set group =>   2
Atom  34H    basis set group =>   2
Atom  35C    basis set group =>   1
Atom  36H    basis set group =>   2
Atom  37H    basis set group =>   2
Atom  38C    basis set group =>   1
Atom  39C    basis set group =>   1
Atom  40C    basis set group =>   1
Atom  41C    basis set group =>   1
Atom  42C    basis set group =>   1
Atom  43C    basis set group =>   1
Atom  44H    basis set group =>   2
Atom  45H    basis set group =>   2
Atom  46H    basis set group =>   2
Atom  47H    basis set group =>   2
Atom  48H    basis set group =>   2
---------------------------------
AUXILIARY/J BASIS SET INFORMATION
---------------------------------
There are 2 groups of distinct atoms

 Group   1 Type C   : 17s13p12d2f contracted to 17s13p12d2f pattern {11111111111111111/1111111111111/111111111111/11}
 Group   2 Type H   : 15s6p1d contracted to 15s6p1d pattern {111111111111111/111111/1}

Atom   0C    basis set group =>   1
Atom   1C    basis set group =>   1
Atom   2C    basis set group =>   1
Atom   3C    basis set group =>   1
Atom   4C    basis set group =>   1
Atom   5C    basis set group =>   1
Atom   6C    basis set group =>   1
Atom   7C    basis set group =>   1
Atom   8C    basis set group =>   1
Atom   9H    basis set group =>   2
Atom  10H    basis set group =>   2
Atom  11C    basis set group =>   1
Atom  12H    basis set group =>   2
Atom  13H    basis set group =>   2
Atom  14C    basis set group =>   1
Atom  15H    basis set group =>   2
Atom  16H    basis set group =>   2
Atom  17C    basis set group =>   1
Atom  18H    basis set group =>   2
Atom  19H    basis set group =>   2
Atom  20C    basis set group =>   1
Atom  21H    basis set group =>   2
Atom  22H    basis set group =>   2
Atom  23C    basis set group =>   1
Atom  24H    basis set group =>   2
Atom  25H    basis set group =>   2
Atom  26C    basis set group =>   1
Atom  27H    basis set group =>   2
Atom  28H    basis set group =>   2
Atom  29C    basis set group =>   1
Atom  30H    basis set group =>   2
Atom  31H    basis set group =>   2
Atom  32C    basis set group =>   1
Atom  33H    basis set group =>   2
Atom  34H    basis set group =>   2
Atom  35C    basis set group =>   1
Atom  36H    basis set group =>   2
Atom  37H    basis set group =>   2
Atom  38C    basis set group =>   1
Atom  39C    basis set group =>   1
Atom  40C    basis set group =>   1
Atom  41C    basis set group =>   1
Atom  42C    basis set group =>   1
Atom  43C    basis set group =>   1
Atom  44H    basis set group =>   2
Atom  45H    basis set group =>   2
Atom  46H    basis set group =>   2
Atom  47H    basis set group =>   2
Atom  48H    basis set group =>   2
---------------------------------
AUXILIARY/C BASIS SET INFORMATION
---------------------------------
There are 2 groups of distinct atoms

 Group   1 Type C   : 17s13p12d2f contracted to 17s13p12d2f pattern {11111111111111111/1111111111111/111111111111/11}
 Group   2 Type H   : 15s6p1d contracted to 15s6p1d pattern {111111111111111/111111/1}

Atom   0C    basis set group =>   1
Atom   1C    basis set group =>   1
Atom   2C    basis set group =>   1
Atom   3C    basis set group =>   1
Atom   4C    basis set group =>   1
Atom   5C    basis set group =>   1
Atom   6C    basis set group =>   1
Atom   7C    basis set group =>   1
Atom   8C    basis set group =>   1
Atom   9H    basis set group =>   2
Atom  10H    basis set group =>   2
Atom  11C    basis set group =>   1
Atom  12H    basis set group =>   2
Atom  13H    basis set group =>   2
Atom  14C    basis set group =>   1
Atom  15H    basis set group =>   2
Atom  16H    basis set group =>   2
Atom  17C    basis set group =>   1
Atom  18H    basis set group =>   2
Atom  19H    basis set group =>   2
Atom  20C    basis set group =>   1
Atom  21H    basis set group =>   2
Atom  22H    basis set group =>   2
Atom  23C    basis set group =>   1
Atom  24H    basis set group =>   2
Atom  25H    basis set group =>   2
Atom  26C    basis set group =>   1
Atom  27H    basis set group =>   2
Atom  28H    basis set group =>   2
Atom  29C    basis set group =>   1
Atom  30H    basis set group =>   2
Atom  31H    basis set group =>   2
Atom  32C    basis set group =>   1
Atom  33H    basis set group =>   2
Atom  34H    basis set group =>   2
Atom  35C    basis set group =>   1
Atom  36H    basis set group =>   2
Atom  37H    basis set group =>   2
Atom  38C    basis set group =>   1
Atom  39C    basis set group =>   1
Atom  40C    basis set group =>   1
Atom  41C    basis set group =>   1
Atom  42C    basis set group =>   1
Atom  43C    basis set group =>   1
Atom  44H    basis set group =>   2
Atom  45H    basis set group =>   2
Atom  46H    basis set group =>   2
Atom  47H    basis set group =>   2
Atom  48H    basis set group =>   2
----------------------------------
AUXILIARY/JK BASIS SET INFORMATION
----------------------------------
There are 2 groups of distinct atoms

 Group   1 Type C   : 17s13p12d2f contracted to 17s13p12d2f pattern {11111111111111111/1111111111111/111111111111/11}
 Group   2 Type H   : 15s6p1d contracted to 15s6p1d pattern {111111111111111/111111/1}

Atom   0C    basis set group =>   1
Atom   1C    basis set group =>   1
Atom   2C    basis set group =>   1
Atom   3C    basis set group =>   1
Atom   4C    basis set group =>   1
Atom   5C    basis set group =>   1
Atom   6C    basis set group =>   1
Atom   7C    basis set group =>   1
Atom   8C    basis set group =>   1
Atom   9H    basis set group =>   2
Atom  10H    basis set group =>   2
Atom  11C    basis set group =>   1
Atom  12H    basis set group =>   2
Atom  13H    basis set group =>   2
Atom  14C    basis set group =>   1
Atom  15H    basis set group =>   2
Atom  16H    basis set group =>   2
Atom  17C    basis set group =>   1
Atom  18H    basis set group =>   2
Atom  19H    basis set group =>   2
Atom  20C    basis set group =>   1
Atom  21H    basis set group =>   2
Atom  22H    basis set group =>   2
Atom  23C    basis set group =>   1
Atom  24H    basis set group =>   2
Atom  25H    basis set group =>   2
Atom  26C    basis set group =>   1
Atom  27H    basis set group =>   2
Atom  28H    basis set group =>   2
Atom  29C    basis set group =>   1
Atom  30H    basis set group =>   2
Atom  31H    basis set group =>   2
Atom  32C    basis set group =>   1
Atom  33H    basis set group =>   2
Atom  34H    basis set group =>   2
Atom  35C    basis set group =>   1
Atom  36H    basis set group =>   2
Atom  37H    basis set group =>   2
Atom  38C    basis set group =>   1
Atom  39C    basis set group =>   1
Atom  40C    basis set group =>   1
Atom  41C    basis set group =>   1
Atom  42C    basis set group =>   1
Atom  43C    basis set group =>   1
Atom  44H    basis set group =>   2
Atom  45H    basis set group =>   2
Atom  46H    basis set group =>   2
Atom  47H    basis set group =>   2
Atom  48H    basis set group =>   2


           ************************************************************
           *        Program running with 16 parallel MPI-processes    *
           *              working on a common directory               *
           ************************************************************
------------------------------------------------------------------------------
                           ORCA GTO INTEGRAL CALCULATION
------------------------------------------------------------------------------

                         BASIS SET STATISTICS AND STARTUP INFO

 # of primitive gaussian shells          ...  559
 # of primitive gaussian functions       ...  945
 # of contracted shells                  ...  341
 # of contracted basis functions         ...  583
 Highest angular momentum                ...    2
 Maximum contraction depth               ...    5
 Integral package used                   ... LIBINT
 Integral threshhold            Thresh   ...  1.000e-10
 Primitive cut-off              TCut     ...  1.000e-11


------------------------------ INTEGRAL EVALUATION ----------------------------


 * One electron integrals 
 Pre-screening matrix                    ... done
 Shell pair data                         ... done (   0.011 sec)



           ************************************************************
           *        Program running with 16 parallel MPI-processes    *
           *              working on a common directory               *
           ************************************************************
-------------------------------------------------------------------------------
                                 ORCA SCF
-------------------------------------------------------------------------------

------------
SCF SETTINGS
------------
Hamiltonian:
 Density Functional     Method          .... DFT(GTOs)
 Exchange Functional    Exchange        .... B88
   X-Alpha parameter    XAlpha          ....  0.666667
   Becke's b parameter  XBeta           ....  0.004200
 Correlation Functional Correlation     .... LYP
 LDA part of GGA corr.  LDAOpt          .... VWN-5
 Gradients option       PostSCFGGA      .... off
 Hybrid DFT is turned on
   Fraction HF Exchange ScalHFX         ....  0.200000
   Scaling of DF-GGA-X  ScalDFX         ....  0.720000
   Scaling of DF-GGA-C  ScalDFC         ....  0.810000
   Scaling of DF-LDA-C  ScalLDAC        ....  1.000000
   Perturbative correction              ....  0.000000
   Density functional embedding theory  .... OFF
   NL short-range parameter             ....  4.800000


General Settings:
 Integral files         IntName         .... EPRII
 Hartree-Fock type      HFTyp           .... UHF
 Total Charge           Charge          ....    0
 Multiplicity           Mult            ....    2
 Number of Electrons    NEL             ....  169
 Basis Dimension        Dim             ....  583
 Nuclear Repulsion      ENuc            ....   1728.4009568823 Eh

Convergence Acceleration:
 DIIS                   CNVDIIS         .... on
   Start iteration      DIISMaxIt       ....    12
   Startup error        DIISStart       ....  0.200000
   # of expansion vecs  DIISMaxEq       ....     5
   Bias factor          DIISBfac        ....   1.050
   Max. coefficient     DIISMaxC        ....  10.000
 Newton-Raphson         CNVNR           .... off
 SOSCF                  CNVSOSCF        .... off
 Level Shifting         CNVShift        .... on
   Level shift para.    LevelShift      ....    0.2500
   Turn off err/grad.   ShiftErr        ....    0.0010
 Zerner damping         CNVZerner       .... off
 Static damping         CNVDamp         .... on
   Fraction old density DampFac         ....    0.7000
   Max. Damping (<1)    DampMax         ....    0.9800
   Min. Damping (>=0)   DampMin         ....    0.0000
   Turn off err/grad.   DampErr         ....    0.1000
 Fernandez-Rico         CNVRico         .... off

SCF Procedure:
 Maximum # iterations   MaxIter         ....   125
 SCF integral mode      SCFMode         .... Direct
   Integral package                     .... LIBINT
 Reset frequency        DirectResetFreq ....    20
 Integral Threshold     Thresh          ....  1.000e-10 Eh
 Primitive CutOff       TCut            ....  1.000e-11 Eh

Convergence Tolerance:
 Convergence Check Mode ConvCheckMode   .... Total+1el-Energy
 Convergence forced     ConvForced      .... 0
 Energy Change          TolE            ....  1.000e-06 Eh
 1-El. energy change                    ....  1.000e-03 Eh
 DIIS Error             TolErr          ....  1.000e-06


Diagonalization of the overlap matrix:
Smallest eigenvalue                        ... 7.318e-05
Time for diagonalization                   ...    0.259 sec
Threshold for overlap eigenvalues          ... 1.000e-08
Number of eigenvalues below threshold      ... 0
Time for construction of square roots      ...    0.071 sec
Total time needed                          ...    0.334 sec

-------------------
DFT GRID GENERATION
-------------------

General Integration Accuracy     IntAcc      ...  4.340
Radial Grid Type                 RadialGrid  ... Gauss-Chebyshev
Angular Grid (max. acc.)         AngularGrid ... Lebedev-110
Angular grid pruning method      GridPruning ... 3 (G Style)
Weight generation scheme         WeightScheme... Becke
Basis function cutoff            BFCut       ...    1.0000e-10
Integration weight cutoff        WCut        ...    1.0000e-14
Grids for H and He will be reduced by one unit

# of grid points (after initial pruning)     ...  59594 (   0.0 sec)
# of grid points (after weights+screening)   ...  53138 (   0.2 sec)
nearest neighbour list constructed           ...    0.0 sec
Grid point re-assignment to atoms done       ...    0.0 sec
Grid point division into batches done        ...    0.1 sec
Reduced shell lists constructed in    0.1 sec

Total number of grid points                  ...    53138
Total number of batches                      ...      856
Average number of points per batch           ...       62
Average number of grid points per atom       ...     1084
Average number of shells per batch           ...    94.11 (27.60%)
Average number of basis functions per batch  ...   175.82 (30.16%)
Average number of large shells per batch     ...    58.58 (62.25%)
Average number of large basis fcns per batch ...   110.07 (62.61%)
Maximum spatial batch extension              ...  16.57, 19.30, 17.61 au
Average spatial batch extension              ...   0.24,  0.27,  0.32 au

Time for grid setup =    0.405 sec

------------------------------
INITIAL GUESS: MODEL POTENTIAL
------------------------------
Loading Hartree-Fock densities                     ... done
Calculating cut-offs                               ... done
Setting up the integral package                    ... done
Initializing the effective Hamiltonian             ... done
Starting the Coulomb interaction                   ... done (   0.2 sec)
Reading the grid                                   ... done
Mapping shells                                     ... done
Starting the XC term evaluation                    ... done (   0.1 sec)
  promolecular density results
     # of electrons  =    169.029339321
     EX              =   -130.643412030
     EC              =     -5.563843805
     EX+EC           =   -136.207255834
Transforming the Hamiltonian                       ... done (   0.1 sec)
Diagonalizing the Hamiltonian                      ... done (   0.1 sec)
Back transforming the eigenvectors                 ... done (   0.0 sec)
Now organizing SCF variables                       ... done
                      ------------------
                      INITIAL GUESS DONE (   1.2 sec)
                      ------------------
--------------
SCF ITERATIONS
--------------
ITER       Energy         Delta-E        Max-DP      RMS-DP      [F,P]     Damp
               ***  Starting incremental Fock matrix formation  ***
  0   -928.3848454073   0.000000000000 0.07679893  0.00092293  0.1594800 0.7000
  1   -928.6218109990  -0.236965591722 0.08207074  0.00074324  0.0852959 0.7000
                               ***Turning on DIIS***
  2   -928.7277177555  -0.105906756432 0.17915862  0.00147155  0.0329691 0.0000
  3   -928.8743032328  -0.146585477347 0.10062467  0.00061760  0.0471036 0.0000
  4   -928.9175177418  -0.043214509037 0.06958221  0.00035466  0.0100514 0.0000
  5   -928.9201103913  -0.002592649492 0.03254275  0.00015767  0.0037427 0.0000
  6   -928.9206526120  -0.000542220702 0.01394672  0.00006586  0.0021861 0.0000
  7   -928.9208876692  -0.000235057192 0.00650544  0.00003172  0.0014260 0.0000
  8   -928.9210331002  -0.000145430953 0.00431062  0.00002173  0.0011475 0.0000
  9   -928.9211309571  -0.000097856868 0.00686136  0.00004282  0.0009136 0.0000
 10   -928.9212680090  -0.000137051986 0.00076989  0.00000544  0.0010956 0.0000
 11   -928.9212759583  -0.000007949213 0.00238087  0.00001370  0.0006387 0.0000
 12   -928.9212820366  -0.000006078312 0.00054479  0.00000401  0.0007147 0.0000
 13   -928.9212843058  -0.000002269187 0.00027839  0.00000202  0.0002866 0.0000
 14   -928.9212847082  -0.000000402421 0.00012426  0.00000079  0.0001976 0.0000
 15   -928.9212848490  -0.000000140839 0.00016430  0.00000105  0.0000569 0.0000
                 **** Energy Check signals convergence ****

               *****************************************************
               *                     SUCCESS                       *
               *           SCF CONVERGED AFTER  16 CYCLES          *
               *****************************************************

Setting up the final grid:

General Integration Accuracy     IntAcc      ...  4.670
Radial Grid Type                 RadialGrid  ... Gauss-Chebyshev
Angular Grid (max. acc.)         AngularGrid ... Lebedev-302
Angular grid pruning method      GridPruning ... 3 (G Style)
Weight generation scheme         WeightScheme... Becke
Basis function cutoff            BFCut       ...    1.0000e-10
Integration weight cutoff        WCut        ...    1.0000e-14
Grids for H and He will be reduced by one unit

# of grid points (after initial pruning)     ... 233938 (   0.0 sec)
# of grid points (after weights+screening)   ... 204839 (   0.6 sec)
nearest neighbour list constructed           ...    0.0 sec
Grid point re-assignment to atoms done       ...    0.0 sec
Grid point division into batches done        ...    0.8 sec
Reduced shell lists constructed in    1.1 sec

Total number of grid points                  ...   204839
Total number of batches                      ...     3225
Average number of points per batch           ...       63
Average number of grid points per atom       ...     4180
Average number of shells per batch           ...    86.45 (25.35%)
Average number of basis functions per batch  ...   160.93 (27.60%)
Average number of large shells per batch     ...    53.33 (61.70%)
Average number of large basis fcns per batch ...   100.08 (62.19%)
Maximum spatial batch extension              ...  17.07, 16.13, 17.32 au
Average spatial batch extension              ...   0.17,  0.18,  0.19 au

Final grid set up in    1.8 sec
Final integration                            ... done (   0.9 sec)
Change in XC energy                          ...     0.002952557
Integrated number of electrons               ...   169.000280080
Previous integrated no of electrons          ...   169.026594943

----------------
TOTAL SCF ENERGY
----------------

Total Energy       :         -928.91833242 Eh          -25277.15289 eV

Components:
Nuclear Repulsion  :         1728.40095688 Eh           47032.18111 eV
Electronic Energy  :        -2657.31928930 Eh          -72309.33400 eV
One Electron Energy:        -4683.77941830 Eh         -127452.11751 eV
Two Electron Energy:         2026.46012900 Eh           55142.78351 eV

Virial components:
Potential Energy   :        -1850.44546183 Eh          -50353.18092 eV
Kinetic Energy     :          921.52712941 Eh           25076.02803 eV
Virial Ratio       :            2.00802060


DFT components:
N(Alpha)           :       85.000140195505 electrons
N(Beta)            :       84.000139884890 electrons
N(Total)           :      169.000280080395 electrons
E(X)               :     -105.497199423868 Eh       
E(C)               :       -6.573093584397 Eh       
E(XC)              :     -112.070293008265 Eh       
DFET-embed. en.    :        0.000000000000 Eh       

---------------
SCF CONVERGENCE
---------------

  Last Energy change         ...   -1.2521e-07  Tolerance :   1.0000e-06
  Last MAX-Density change    ...    3.6314e-05  Tolerance :   1.0000e-05
  Last RMS-Density change    ...    2.7900e-07  Tolerance :   1.0000e-06
  Last DIIS Error            ...    2.8999e-05  Tolerance :   1.0000e-06

             **** THE GBW FILE WAS UPDATED (EPRII.gbw) ****
             **** DENSITY FILE WAS UPDATED (EPRII.scfp) ****
             **** ENERGY FILE WAS UPDATED (EPRII.en.tmp) ****
----------------------
UHF SPIN CONTAMINATION
----------------------

Warning: in a DFT calculation there is little theoretical justification to 
         calculate <S**2> as in Hartree-Fock theory. We will do it anyways
         but you should keep in mind that the values have only limited relevance

Expectation value of <S**2>     :     0.773538
Ideal value S*(S+1) for S=0.5   :     0.750000
Deviation                       :     0.023538

             **** THE GBW FILE WAS UPDATED (EPRII.gbw) ****
             **** DENSITY FILE WAS UPDATED (EPRII.scfp) ****
----------------
ORBITAL ENERGIES
----------------
                 SPIN UP ORBITALS
  NO   OCC          E(Eh)            E(eV) 
   0   1.0000     -10.254989      -279.0524 
   1   1.0000     -10.247775      -278.8561 
   2   1.0000     -10.242084      -278.7013 
   3   1.0000     -10.233612      -278.4707 
   4   1.0000     -10.233174      -278.4588 
   5   1.0000     -10.230302      -278.3807 
   6   1.0000     -10.226371      -278.2737 
   7   1.0000     -10.226191      -278.2688 
   8   1.0000     -10.226086      -278.2659 
   9   1.0000     -10.225502      -278.2501 
  10   1.0000     -10.222469      -278.1675 
  11   1.0000     -10.222330      -278.1637 
  12   1.0000     -10.218875      -278.0697 
  13   1.0000     -10.217932      -278.0441 
  14   1.0000     -10.203663      -277.6558 
  15   1.0000     -10.195033      -277.4210 
  16   1.0000     -10.192899      -277.3629 
  17   1.0000     -10.191228      -277.3174 
  18   1.0000     -10.189592      -277.2729 
  19   1.0000     -10.186210      -277.1809 
  20   1.0000     -10.185637      -277.1653 
  21   1.0000     -10.184006      -277.1209 
  22   1.0000     -10.179096      -276.9873 
  23   1.0000     -10.176541      -276.9178 
  24   1.0000      -0.893897       -24.3242 
  25   1.0000      -0.884062       -24.0566 
  26   1.0000      -0.833718       -22.6866 
  27   1.0000      -0.815352       -22.1868 
  28   1.0000      -0.801227       -21.8025 
  29   1.0000      -0.797537       -21.7021 
  30   1.0000      -0.776658       -21.1339 
  31   1.0000      -0.771246       -20.9867 
  32   1.0000      -0.754898       -20.5418 
  33   1.0000      -0.738512       -20.0959 
  34   1.0000      -0.719777       -19.5861 
  35   1.0000      -0.706705       -19.2304 
  36   1.0000      -0.662821       -18.0363 
  37   1.0000      -0.658979       -17.9317 
  38   1.0000      -0.634229       -17.2582 
  39   1.0000      -0.629860       -17.1394 
  40   1.0000      -0.629195       -17.1213 
  41   1.0000      -0.602393       -16.3920 
  42   1.0000      -0.585838       -15.9415 
  43   1.0000      -0.573131       -15.5957 
  44   1.0000      -0.559836       -15.2339 
  45   1.0000      -0.526327       -14.3221 
  46   1.0000      -0.523539       -14.2462 
  47   1.0000      -0.500242       -13.6123 
  48   1.0000      -0.493377       -13.4255 
  49   1.0000      -0.481236       -13.0951 
  50   1.0000      -0.477263       -12.9870 
  51   1.0000      -0.475813       -12.9475 
  52   1.0000      -0.456002       -12.4084 
  53   1.0000      -0.446977       -12.1629 
  54   1.0000      -0.444768       -12.1028 
  55   1.0000      -0.435562       -11.8523 
  56   1.0000      -0.434970       -11.8361 
  57   1.0000      -0.429881       -11.6977 
  58   1.0000      -0.424567       -11.5531 
  59   1.0000      -0.418435       -11.3862 
  60   1.0000      -0.410250       -11.1635 
  61   1.0000      -0.404656       -11.0112 
  62   1.0000      -0.392018       -10.6673 
  63   1.0000      -0.382970       -10.4211 
  64   1.0000      -0.381093       -10.3701 
  65   1.0000      -0.374407       -10.1881 
  66   1.0000      -0.371400       -10.1063 
  67   1.0000      -0.367872       -10.0103 
  68   1.0000      -0.367512       -10.0005 
  69   1.0000      -0.354851        -9.6560 
  70   1.0000      -0.345426        -9.3995 
  71   1.0000      -0.340900        -9.2764 
  72   1.0000      -0.336168        -9.1476 
  73   1.0000      -0.332540        -9.0489 
  74   1.0000      -0.331046        -9.0082 
  75   1.0000      -0.329705        -8.9717 
  76   1.0000      -0.326516        -8.8849 
  77   1.0000      -0.312778        -8.5111 
  78   1.0000      -0.293546        -7.9878 
  79   1.0000      -0.279087        -7.5944 
  80   1.0000      -0.267373        -7.2756 
  81   1.0000      -0.264398        -7.1946 
  82   1.0000      -0.250095        -6.8054 
  83   1.0000      -0.246206        -6.6996 
  84   1.0000      -0.221113        -6.0168 
  85   0.0000      -0.083615        -2.2753 
  86   0.0000      -0.033537        -0.9126 
  87   0.0000      -0.033148        -0.9020 
  88   0.0000      -0.022387        -0.6092 
  89   0.0000       0.001758         0.0478 
  90   0.0000       0.014347         0.3904 
  91   0.0000       0.016275         0.4429 
  92   0.0000       0.021948         0.5972 
  93   0.0000       0.025961         0.7064 
  94   0.0000       0.027707         0.7540 
  95   0.0000       0.030866         0.8399 
  96   0.0000       0.042470         1.1557 
  97   0.0000       0.044544         1.2121 
  98   0.0000       0.048025         1.3068 
  99   0.0000       0.049975         1.3599 
 100   0.0000       0.057617         1.5678 
 101   0.0000       0.059201         1.6109 
 102   0.0000       0.067875         1.8470 
 103   0.0000       0.070217         1.9107 
 104   0.0000       0.075896         2.0652 
 105   0.0000       0.076709         2.0873 
 106   0.0000       0.095026         2.5858 
 107   0.0000       0.096408         2.6234 
 108   0.0000       0.096743         2.6325 
 109   0.0000       0.108354         2.9485 
 110   0.0000       0.115380         3.1396 
 111   0.0000       0.122290         3.3277 
 112   0.0000       0.135493         3.6870 
 113   0.0000       0.135716         3.6930 
 114   0.0000       0.142331         3.8730 
 115   0.0000       0.148109         4.0302 
 116   0.0000       0.155275         4.2253 
 117   0.0000       0.163860         4.4589 
 118   0.0000       0.168671         4.5898 
 119   0.0000       0.169485         4.6119 
 120   0.0000       0.177238         4.8229 
 121   0.0000       0.182093         4.9550 
 122   0.0000       0.182891         4.9767 
 123   0.0000       0.191779         5.2186 
 124   0.0000       0.194808         5.3010 
 125   0.0000       0.195070         5.3081 
 126   0.0000       0.198351         5.3974 
 127   0.0000       0.200430         5.4540 
 128   0.0000       0.202904         5.5213 
 129   0.0000       0.207793         5.6543 
 130   0.0000       0.210048         5.7157 
 131   0.0000       0.210980         5.7411 
 132   0.0000       0.211378         5.7519 
 133   0.0000       0.224431         6.1071 
 134   0.0000       0.230482         6.2717 
 135   0.0000       0.231732         6.3058 
 136   0.0000       0.234367         6.3774 
 137   0.0000       0.239506         6.5173 
 138   0.0000       0.243686         6.6310 
 139   0.0000       0.247002         6.7213 
 140   0.0000       0.247121         6.7245 
 141   0.0000       0.252959         6.8834 
 142   0.0000       0.256424         6.9777 
 143   0.0000       0.263393         7.1673 
 144   0.0000       0.264630         7.2010 
 145   0.0000       0.265836         7.2338 
 146   0.0000       0.274889         7.4801 
 147   0.0000       0.277106         7.5404 
 148   0.0000       0.278205         7.5703 
 149   0.0000       0.278574         7.5804 
 150   0.0000       0.280579         7.6349 
 151   0.0000       0.289104         7.8669 
 152   0.0000       0.289512         7.8780 
 153   0.0000       0.291814         7.9407 
 154   0.0000       0.295584         8.0433 
 155   0.0000       0.297959         8.1079 
 156   0.0000       0.299779         8.1574 
 157   0.0000       0.302129         8.2214 
 158   0.0000       0.305209         8.3052 
 159   0.0000       0.305420         8.3109 
 160   0.0000       0.312590         8.5060 
 161   0.0000       0.313714         8.5366 
 162   0.0000       0.314107         8.5473 
 163   0.0000       0.326214         8.8767 
 164   0.0000       0.327340         8.9074 
 165   0.0000       0.331933         9.0323 
 166   0.0000       0.332162         9.0386 
 167   0.0000       0.336457         9.1555 
 168   0.0000       0.341510         9.2930 
 169   0.0000       0.347264         9.4495 
 170   0.0000       0.357906         9.7391 
 171   0.0000       0.362305         9.8588 
 172   0.0000       0.366372         9.9695 
 173   0.0000       0.369053        10.0425 
 174   0.0000       0.371610        10.1120 
 175   0.0000       0.371988        10.1223 
 176   0.0000       0.384403        10.4601 
 177   0.0000       0.391646        10.6572 
 178   0.0000       0.398530        10.8446 
 179   0.0000       0.399141        10.8612 
 180   0.0000       0.406972        11.0743 
 181   0.0000       0.407787        11.0965 
 182   0.0000       0.409861        11.1529 
 183   0.0000       0.411399        11.1947 
 184   0.0000       0.416622        11.3369 
 185   0.0000       0.419143        11.4055 
 186   0.0000       0.423775        11.5315 
 187   0.0000       0.431227        11.7343 
 188   0.0000       0.431300        11.7363 
 189   0.0000       0.435883        11.8610 
 190   0.0000       0.436251        11.8710 
 191   0.0000       0.443686        12.0733 
 192   0.0000       0.445999        12.1363 
 193   0.0000       0.451394        12.2831 
 194   0.0000       0.455500        12.3948 
 195   0.0000       0.461190        12.5496 
 196   0.0000       0.464413        12.6373 
 197   0.0000       0.465276        12.6608 
 198   0.0000       0.470566        12.8048 
 199   0.0000       0.482009        13.1161 
 200   0.0000       0.482053        13.1173 
 201   0.0000       0.490810        13.3556 
 202   0.0000       0.496158        13.5011 
 203   0.0000       0.503660        13.7053 
 204   0.0000       0.504369        13.7246 
 205   0.0000       0.511262        13.9122 
 206   0.0000       0.513233        13.9658 
 207   0.0000       0.521093        14.1797 
 208   0.0000       0.527136        14.3441 
 209   0.0000       0.533321        14.5124 
 210   0.0000       0.540807        14.7161 
 211   0.0000       0.541544        14.7362 
 212   0.0000       0.543179        14.7806 
 213   0.0000       0.557668        15.1749 
 214   0.0000       0.565653        15.3922 
 215   0.0000       0.572780        15.5861 
 216   0.0000       0.583170        15.8689 
 217   0.0000       0.584241        15.8980 
 218   0.0000       0.585704        15.9378 
 219   0.0000       0.592865        16.1327 
 220   0.0000       0.598647        16.2900 
 221   0.0000       0.614174        16.7125 
 222   0.0000       0.621687        16.9170 
 223   0.0000       0.631387        17.1809 
 224   0.0000       0.645641        17.5688 
 225   0.0000       0.646743        17.5988 
 226   0.0000       0.649883        17.6842 
 227   0.0000       0.658916        17.9300 
 228   0.0000       0.661360        17.9965 
 229   0.0000       0.668762        18.1979 
 230   0.0000       0.694546        18.8995 
 231   0.0000       0.699152        19.0249 
 232   0.0000       0.710043        19.3213 
 233   0.0000       0.740383        20.1468 
 234   0.0000       0.757053        20.6005 
 235   0.0000       0.757740        20.6192 
 236   0.0000       0.769008        20.9258 
 237   0.0000       0.779044        21.1989 
 238   0.0000       0.789831        21.4924 
 239   0.0000       0.802237        21.8300 
 240   0.0000       0.812588        22.1116 
 241   0.0000       0.824285        22.4299 
 242   0.0000       0.833851        22.6902 
 243   0.0000       0.839668        22.8485 
 244   0.0000       0.839940        22.8559 
 245   0.0000       0.843768        22.9601 
 246   0.0000       0.851048        23.1582 
 247   0.0000       0.853529        23.2257 
 248   0.0000       0.859258        23.3816 
 249   0.0000       0.866729        23.5849 
 250   0.0000       0.873369        23.7656 
 251   0.0000       0.881006        23.9734 
 252   0.0000       0.885870        24.1058 
 253   0.0000       0.888417        24.1751 
 254   0.0000       0.896603        24.3978 
 255   0.0000       0.903005        24.5720 
 256   0.0000       0.905077        24.6284 
 257   0.0000       0.910931        24.7877 
 258   0.0000       0.918495        24.9935 
 259   0.0000       0.921507        25.0755 
 260   0.0000       0.925632        25.1877 
 261   0.0000       0.926386        25.2082 
 262   0.0000       0.929353        25.2890 
 263   0.0000       0.935323        25.4514 
 264   0.0000       0.940400        25.5896 
 265   0.0000       0.949651        25.8413 
 266   0.0000       0.955524        26.0011 
 267   0.0000       0.959723        26.1154 
 268   0.0000       0.965617        26.2758 
 269   0.0000       0.968899        26.3651 
 270   0.0000       0.973790        26.4982 
 271   0.0000       0.976223        26.5644 
 272   0.0000       0.976992        26.5853 
 273   0.0000       0.982329        26.7305 
 274   0.0000       0.985884        26.8273 
 275   0.0000       0.993174        27.0257 
 276   0.0000       0.997201        27.1352 
 277   0.0000       1.007981        27.4286 
 278   0.0000       1.010324        27.4923 
 279   0.0000       1.012102        27.5407 
 280   0.0000       1.018784        27.7225 
 281   0.0000       1.027600        27.9624 
 282   0.0000       1.027911        27.9709 
 283   0.0000       1.039506        28.2864 
 284   0.0000       1.039770        28.2936 
 285   0.0000       1.054758        28.7014 
 286   0.0000       1.058673        28.8079 
 287   0.0000       1.069038        29.0900 
 288   0.0000       1.077188        29.3118 
 289   0.0000       1.088186        29.6110 
 290   0.0000       1.093039        29.7431 
 291   0.0000       1.096243        29.8303 
 292   0.0000       1.103281        30.0218 
 293   0.0000       1.105031        30.0694 
 294   0.0000       1.115487        30.3539 
 295   0.0000       1.120913        30.5016 
 296   0.0000       1.123716        30.5779 
 297   0.0000       1.145545        31.1719 
 298   0.0000       1.151108        31.3232 
 299   0.0000       1.166046        31.7297 
 300   0.0000       1.168932        31.8083 
 301   0.0000       1.169916        31.8350 
 302   0.0000       1.180421        32.1209 
 303   0.0000       1.180628        32.1265 
 304   0.0000       1.194417        32.5017 
 305   0.0000       1.200107        32.6566 
 306   0.0000       1.207509        32.8580 
 307   0.0000       1.214746        33.0549 
 308   0.0000       1.226547        33.3760 
 309   0.0000       1.238509        33.7015 
 310   0.0000       1.244637        33.8683 
 311   0.0000       1.246775        33.9265 
 312   0.0000       1.264320        34.4039 
 313   0.0000       1.264661        34.4132 
 314   0.0000       1.283045        34.9134 
 315   0.0000       1.295031        35.2396 
 316   0.0000       1.297821        35.3155 
 317   0.0000       1.307901        35.5898 
 318   0.0000       1.311538        35.6888 
 319   0.0000       1.318644        35.8821 
 320   0.0000       1.327916        36.1344 
 321   0.0000       1.336833        36.3771 
 322   0.0000       1.338679        36.4273 
 323   0.0000       1.344135        36.5758 
 324   0.0000       1.359423        36.9918 
 325   0.0000       1.370478        37.2926 
 326   0.0000       1.383862        37.6568 
 327   0.0000       1.384875        37.6844 
 328   0.0000       1.398357        38.0512 
 329   0.0000       1.403057        38.1791 
 330   0.0000       1.407372        38.2965 
 331   0.0000       1.420786        38.6616 
 332   0.0000       1.422600        38.7109 
 333   0.0000       1.423613        38.7385 
 334   0.0000       1.429212        38.8908 
 335   0.0000       1.430815        38.9345 
 336   0.0000       1.442490        39.2521 
 337   0.0000       1.449146        39.4333 
 338   0.0000       1.451550        39.4987 
 339   0.0000       1.454455        39.5777 
 340   0.0000       1.473710        40.1017 
 341   0.0000       1.484185        40.3867 
 342   0.0000       1.486031        40.4370 
 343   0.0000       1.493546        40.6414 
 344   0.0000       1.503675        40.9171 
 345   0.0000       1.506500        40.9939 
 346   0.0000       1.512497        41.1571 
 347   0.0000       1.535421        41.7809 
 348   0.0000       1.536512        41.8106 
 349   0.0000       1.546494        42.0822 
 350   0.0000       1.548740        42.1434 
 351   0.0000       1.549551        42.1654 
 352   0.0000       1.555929        42.3390 
 353   0.0000       1.571756        42.7697 
 354   0.0000       1.573628        42.8206 
 355   0.0000       1.584348        43.1123 
 356   0.0000       1.585674        43.1484 
 357   0.0000       1.591772        43.3143 
 358   0.0000       1.593956        43.3738 
 359   0.0000       1.600032        43.5391 
 360   0.0000       1.606893        43.7258 
 361   0.0000       1.611754        43.8581 
 362   0.0000       1.612209        43.8704 
 363   0.0000       1.620300        44.0906 
 364   0.0000       1.620997        44.1096 
 365   0.0000       1.627995        44.3000 
 366   0.0000       1.633373        44.4463 
 367   0.0000       1.638703        44.5914 
 368   0.0000       1.644825        44.7580 
 369   0.0000       1.656424        45.0736 
 370   0.0000       1.664033        45.2806 
 371   0.0000       1.670663        45.4611 
 372   0.0000       1.671848        45.4933 
 373   0.0000       1.677303        45.6417 
 374   0.0000       1.680091        45.7176 
 375   0.0000       1.689417        45.9714 
 376   0.0000       1.699057        46.2337 
 377   0.0000       1.699379        46.2424 
 378   0.0000       1.708133        46.4807 
 379   0.0000       1.714641        46.6578 
 380   0.0000       1.727389        47.0046 
 381   0.0000       1.734662        47.2025 
 382   0.0000       1.738453        47.3057 
 383   0.0000       1.748120        47.5688 
 384   0.0000       1.751924        47.6723 
 385   0.0000       1.755477        47.7689 
 386   0.0000       1.756881        47.8072 
 387   0.0000       1.766390        48.0659 
 388   0.0000       1.772762        48.2393 
 389   0.0000       1.777648        48.3723 
 390   0.0000       1.778172        48.3865 
 391   0.0000       1.790338        48.7176 
 392   0.0000       1.797296        48.9069 
 393   0.0000       1.801864        49.0312 
 394   0.0000       1.821113        49.5550 
 395   0.0000       1.831085        49.8264 
 396   0.0000       1.835486        49.9461 
 397   0.0000       1.836391        49.9707 
 398   0.0000       1.844653        50.1956 
 399   0.0000       1.858294        50.5668 
 400   0.0000       1.869098        50.8607 
 401   0.0000       1.898316        51.6558 
 402   0.0000       1.906031        51.8657 
 403   0.0000       1.910482        51.9869 
 404   0.0000       1.922888        52.3244 
 405   0.0000       1.931589        52.5612 
 406   0.0000       1.933569        52.6151 
 407   0.0000       1.937006        52.7086 
 408   0.0000       1.942451        52.8568 
 409   0.0000       1.949406        53.0460 
 410   0.0000       1.956544        53.2403 
 411   0.0000       1.999415        54.4069 
 412   0.0000       2.001331        54.4590 
 413   0.0000       2.013765        54.7973 
 414   0.0000       2.024790        55.0973 
 415   0.0000       2.032163        55.2980 
 416   0.0000       2.056067        55.9484 
 417   0.0000       2.060524        56.0697 
 418   0.0000       2.079224        56.5786 
 419   0.0000       2.092247        56.9329 
 420   0.0000       2.111106        57.4461 
 421   0.0000       2.111992        57.4702 
 422   0.0000       2.130802        57.9821 
 423   0.0000       2.133519        58.0560 
 424   0.0000       2.143913        58.3388 
 425   0.0000       2.154042        58.6145 
 426   0.0000       2.175456        59.1972 
 427   0.0000       2.185771        59.4779 
 428   0.0000       2.208182        60.0877 
 429   0.0000       2.227908        60.6245 
 430   0.0000       2.229716        60.6737 
 431   0.0000       2.233826        60.7855 
 432   0.0000       2.245822        61.1119 
 433   0.0000       2.246281        61.1244 
 434   0.0000       2.255241        61.3682 
 435   0.0000       2.280306        62.0503 
 436   0.0000       2.298181        62.5367 
 437   0.0000       2.304634        62.7123 
 438   0.0000       2.306978        62.7761 
 439   0.0000       2.316767        63.0424 
 440   0.0000       2.319805        63.1251 
 441   0.0000       2.335731        63.5585 
 442   0.0000       2.341617        63.7186 
 443   0.0000       2.344873        63.8072 
 444   0.0000       2.380391        64.7737 
 445   0.0000       2.385991        64.9261 
 446   0.0000       2.394284        65.1518 
 447   0.0000       2.408401        65.5359 
 448   0.0000       2.409728        65.5720 
 449   0.0000       2.416014        65.7431 
 450   0.0000       2.431281        66.1585 
 451   0.0000       2.443646        66.4950 
 452   0.0000       2.445881        66.5558 
 453   0.0000       2.454833        66.7994 
 454   0.0000       2.457559        66.8736 
 455   0.0000       2.468926        67.1829 
 456   0.0000       2.473921        67.3188 
 457   0.0000       2.484765        67.6139 
 458   0.0000       2.489765        67.7500 
 459   0.0000       2.502073        68.0849 
 460   0.0000       2.509539        68.2880 
 461   0.0000       2.513909        68.4069 
 462   0.0000       2.517332        68.5001 
 463   0.0000       2.536858        69.0314 
 464   0.0000       2.546491        69.2935 
 465   0.0000       2.555166        69.5296 
 466   0.0000       2.563764        69.7636 
 467   0.0000       2.571777        69.9816 
 468   0.0000       2.589032        70.4511 
 469   0.0000       2.603159        70.8356 
 470   0.0000       2.605290        70.8935 
 471   0.0000       2.613451        71.1156 
 472   0.0000       2.614525        71.1448 
 473   0.0000       2.625902        71.4544 
 474   0.0000       2.678095        72.8747 
 475   0.0000       2.710189        73.7480 
 476   0.0000       2.738186        74.5098 
 477   0.0000       2.749316        74.8127 
 478   0.0000       2.775528        75.5260 
 479   0.0000       2.804075        76.3028 
 480   0.0000       2.826490        76.9127 
 481   0.0000       2.925407        79.6044 
 482   0.0000       3.045543        82.8734 
 483   0.0000       3.242962        88.2455 
 484   0.0000       3.412606        92.8617 
 485   0.0000       4.976297       135.4119 
 486   0.0000       4.981089       135.5423 
 487   0.0000       4.992817       135.8615 
 488   0.0000       5.000696       136.0759 
 489   0.0000       5.006502       136.2339 
 490   0.0000       5.007502       136.2610 
 491   0.0000       5.014585       136.4538 
 492   0.0000       5.025258       136.7442 
 493   0.0000       5.030220       136.8792 
 494   0.0000       5.037910       137.0885 
 495   0.0000       5.043012       137.2273 
 496   0.0000       5.074197       138.0759 
 497   0.0000       5.079589       138.2226 
 498   0.0000       5.157786       140.3505 
 499   0.0000       5.183130       141.0401 
 500   0.0000       5.214368       141.8902 
 501   0.0000       5.229110       142.2913 
 502   0.0000       5.232089       142.3724 
 503   0.0000       5.247479       142.7912 
 504   0.0000       5.266021       143.2957 
 505   0.0000       5.282134       143.7342 
 506   0.0000       5.295479       144.0973 
 507   0.0000       5.297919       144.1637 
 508   0.0000       5.300552       144.2354 
 509   0.0000       5.305596       144.3726 
 510   0.0000       5.350719       145.6005 
 511   0.0000       5.358929       145.8239 
 512   0.0000       5.364675       145.9802 
 513   0.0000       5.402381       147.0063 
 514   0.0000       5.433893       147.8638 
 515   0.0000       5.447494       148.2338 
 516   0.0000       5.465027       148.7109 
 517   0.0000       5.484335       149.2364 
 518   0.0000       5.547545       150.9564 
 519   0.0000       5.559609       151.2846 
 520   0.0000       5.576293       151.7386 
 521   0.0000       5.606529       152.5614 
 522   0.0000       5.627724       153.1382 
 523   0.0000       5.642660       153.5446 
 524   0.0000       5.662407       154.0819 
 525   0.0000       5.725532       155.7997 
 526   0.0000       5.735505       156.0710 
 527   0.0000       5.776291       157.1809 
 528   0.0000       5.823320       158.4606 
 529   0.0000       5.848056       159.1337 
 530   0.0000       5.868510       159.6903 
 531   0.0000       5.934290       161.4802 
 532   0.0000       6.150434       167.3618 
 533   0.0000       6.295067       171.2975 
 534   0.0000      29.581871       804.9636 
 535   0.0000      29.711455       808.4898 
 536   0.0000      29.793732       810.7287 
 537   0.0000      29.798514       810.8588 
 538   0.0000      29.825982       811.6062 
 539   0.0000      29.841158       812.0192 
 540   0.0000      29.915196       814.0339 
 541   0.0000      29.945416       814.8562 
 542   0.0000      29.973517       815.6209 
 543   0.0000      29.995542       816.2202 
 544   0.0000      30.025439       817.0337 
 545   0.0000      30.055432       817.8499 
 546   0.0000      30.067811       818.1867 
 547   0.0000      30.094223       818.9054 
 548   0.0000      30.108407       819.2914 
 549   0.0000      30.120272       819.6143 
 550   0.0000      30.153562       820.5201 
 551   0.0000      30.204627       821.9097 
 552   0.0000      30.233415       822.6930 
 553   0.0000      30.245594       823.0244 
 554   0.0000      30.267842       823.6298 
 555   0.0000      30.299089       824.4801 
 556   0.0000      30.455101       828.7254 
 557   0.0000      30.522016       830.5463 
 558   0.0000      36.604348       996.0549 
 559   0.0000      36.608931       996.1797 
 560   0.0000      36.619270       996.4610 
 561   0.0000      36.624628       996.6068 
 562   0.0000      36.631554       996.7953 
 563   0.0000      36.635982       996.9158 
 564   0.0000      36.651279       997.3320 
 565   0.0000      36.656581       997.4763 
 566   0.0000      36.663026       997.6517 
 567   0.0000      36.667400       997.7707 
 568   0.0000      36.687583       998.3199 
 569   0.0000      36.700610       998.6744 
 570   0.0000      36.771288      1000.5976 
 571   0.0000      36.808635      1001.6139 
 572   0.0000      36.820944      1001.9488 
 573   0.0000      36.848581      1002.7009 
 574   0.0000      36.859394      1002.9951 
 575   0.0000      36.873037      1003.3663 
 576   0.0000      36.878494      1003.5149 
 577   0.0000      36.922732      1004.7186 
 578   0.0000      36.926400      1004.8184 
 579   0.0000      36.931694      1004.9625 
 580   0.0000      36.989842      1006.5448 
 581   0.0000      37.018759      1007.3316 
 582   0.0000      37.025019      1007.5020 

                 SPIN DOWN ORBITALS
  NO   OCC          E(Eh)            E(eV) 
   0   1.0000     -10.251902      -278.9684 
   1   1.0000     -10.248247      -278.8690 
   2   1.0000     -10.242377      -278.7093 
   3   1.0000     -10.231559      -278.4149 
   4   1.0000     -10.231271      -278.4070 
   5   1.0000     -10.231157      -278.4039 
   6   1.0000     -10.227000      -278.2908 
   7   1.0000     -10.225771      -278.2574 
   8   1.0000     -10.225592      -278.2525 
   9   1.0000     -10.224859      -278.2326 
  10   1.0000     -10.222760      -278.1754 
  11   1.0000     -10.222613      -278.1714 
  12   1.0000     -10.219071      -278.0750 
  13   1.0000     -10.217258      -278.0257 
  14   1.0000     -10.203614      -277.6544 
  15   1.0000     -10.195166      -277.4246 
  16   1.0000     -10.192903      -277.3630 
  17   1.0000     -10.191229      -277.3174 
  18   1.0000     -10.189595      -277.2730 
  19   1.0000     -10.185638      -277.1653 
  20   1.0000     -10.182534      -277.0808 
  21   1.0000     -10.179688      -277.0034 
  22   1.0000     -10.179095      -276.9873 
  23   1.0000     -10.176542      -276.9178 
  24   1.0000      -0.890884       -24.2422 
  25   1.0000      -0.883210       -24.0334 
  26   1.0000      -0.831198       -22.6180 
  27   1.0000      -0.813757       -22.1435 
  28   1.0000      -0.800744       -21.7894 
  29   1.0000      -0.794781       -21.6271 
  30   1.0000      -0.776206       -21.1216 
  31   1.0000      -0.770703       -20.9719 
  32   1.0000      -0.751405       -20.4468 
  33   1.0000      -0.737669       -20.0730 
  34   1.0000      -0.711274       -19.3548 
  35   1.0000      -0.700220       -19.0540 
  36   1.0000      -0.662005       -18.0141 
  37   1.0000      -0.653959       -17.7951 
  38   1.0000      -0.631322       -17.1791 
  39   1.0000      -0.629304       -17.1242 
  40   1.0000      -0.628752       -17.1092 
  41   1.0000      -0.601091       -16.3565 
  42   1.0000      -0.585707       -15.9379 
  43   1.0000      -0.572614       -15.5816 
  44   1.0000      -0.559146       -15.2151 
  45   1.0000      -0.524628       -14.2758 
  46   1.0000      -0.521462       -14.1897 
  47   1.0000      -0.499315       -13.5871 
  48   1.0000      -0.492301       -13.3962 
  49   1.0000      -0.481133       -13.0923 
  50   1.0000      -0.476907       -12.9773 
  51   1.0000      -0.475155       -12.9296 
  52   1.0000      -0.455637       -12.3985 
  53   1.0000      -0.446207       -12.1419 
  54   1.0000      -0.444612       -12.0985 
  55   1.0000      -0.434293       -11.8177 
  56   1.0000      -0.433428       -11.7942 
  57   1.0000      -0.429738       -11.6938 
  58   1.0000      -0.423263       -11.5176 
  59   1.0000      -0.418255       -11.3813 
  60   1.0000      -0.409614       -11.1462 
  61   1.0000      -0.401581       -10.9276 
  62   1.0000      -0.387489       -10.5441 
  63   1.0000      -0.382352       -10.4043 
  64   1.0000      -0.380618       -10.3571 
  65   1.0000      -0.374330       -10.1860 
  66   1.0000      -0.371124       -10.0988 
  67   1.0000      -0.366948        -9.9852 
  68   1.0000      -0.365372        -9.9423 
  69   1.0000      -0.352518        -9.5925 
  70   1.0000      -0.340794        -9.2735 
  71   1.0000      -0.338045        -9.1987 
  72   1.0000      -0.336140        -9.1468 
  73   1.0000      -0.332456        -9.0466 
  74   1.0000      -0.330861        -9.0032 
  75   1.0000      -0.329334        -8.9616 
  76   1.0000      -0.326093        -8.8735 
  77   1.0000      -0.298905        -8.1336 
  78   1.0000      -0.292619        -7.9626 
  79   1.0000      -0.277577        -7.5533 
  80   1.0000      -0.262866        -7.1530 
  81   1.0000      -0.246788        -6.7155 
  82   1.0000      -0.240711        -6.5501 
  83   1.0000      -0.239599        -6.5198 
  84   0.0000      -0.156451        -4.2572 
  85   0.0000      -0.072625        -1.9762 
  86   0.0000      -0.032086        -0.8731 
  87   0.0000      -0.022717        -0.6182 
  88   0.0000      -0.015714        -0.4276 
  89   0.0000       0.001881         0.0512 
  90   0.0000       0.014375         0.3912 
  91   0.0000       0.016413         0.4466 
  92   0.0000       0.022229         0.6049 
  93   0.0000       0.026004         0.7076 
  94   0.0000       0.027775         0.7558 
  95   0.0000       0.031145         0.8475 
  96   0.0000       0.042586         1.1588 
  97   0.0000       0.044550         1.2123 
  98   0.0000       0.050220         1.3666 
  99   0.0000       0.057794         1.5727 
 100   0.0000       0.060134         1.6363 
 101   0.0000       0.062190         1.6923 
 102   0.0000       0.069029         1.8784 
 103   0.0000       0.070946         1.9305 
 104   0.0000       0.076174         2.0728 
 105   0.0000       0.076893         2.0924 
 106   0.0000       0.095272         2.5925 
 107   0.0000       0.097051         2.6409 
 108   0.0000       0.107015         2.9120 
 109   0.0000       0.108538         2.9535 
 110   0.0000       0.115595         3.1455 
 111   0.0000       0.122731         3.3397 
 112   0.0000       0.136208         3.7064 
 113   0.0000       0.142604         3.8805 
 114   0.0000       0.145422         3.9571 
 115   0.0000       0.148770         4.0482 
 116   0.0000       0.158596         4.3156 
 117   0.0000       0.164608         4.4792 
 118   0.0000       0.168743         4.5917 
 119   0.0000       0.170390         4.6366 
 120   0.0000       0.178061         4.8453 
 121   0.0000       0.182467         4.9652 
 122   0.0000       0.186476         5.0743 
 123   0.0000       0.192785         5.2459 
 124   0.0000       0.194932         5.3044 
 125   0.0000       0.195476         5.3192 
 126   0.0000       0.199168         5.4196 
 127   0.0000       0.201047         5.4708 
 128   0.0000       0.204018         5.5516 
 129   0.0000       0.208063         5.6617 
 130   0.0000       0.210818         5.7366 
 131   0.0000       0.211145         5.7456 
 132   0.0000       0.211999         5.7688 
 133   0.0000       0.225379         6.1329 
 134   0.0000       0.230740         6.2788 
 135   0.0000       0.232541         6.3278 
 136   0.0000       0.234907         6.3921 
 137   0.0000       0.240108         6.5337 
 138   0.0000       0.243978         6.6390 
 139   0.0000       0.247364         6.7311 
 140   0.0000       0.247806         6.7431 
 141   0.0000       0.253251         6.8913 
 142   0.0000       0.256975         6.9926 
 143   0.0000       0.264967         7.2101 
 144   0.0000       0.265388         7.2216 
 145   0.0000       0.266110         7.2412 
 146   0.0000       0.274990         7.4828 
 147   0.0000       0.277461         7.5501 
 148   0.0000       0.278840         7.5876 
 149   0.0000       0.280185         7.6242 
 150   0.0000       0.281322         7.6552 
 151   0.0000       0.289721         7.8837 
 152   0.0000       0.290325         7.9001 
 153   0.0000       0.292362         7.9556 
 154   0.0000       0.295872         8.0511 
 155   0.0000       0.298510         8.1229 
 156   0.0000       0.299925         8.1614 
 157   0.0000       0.302908         8.2425 
 158   0.0000       0.305800         8.3212 
 159   0.0000       0.306522         8.3409 
 160   0.0000       0.314004         8.5445 
 161   0.0000       0.315322         8.5803 
 162   0.0000       0.316954         8.6248 
 163   0.0000       0.326544         8.8857 
 164   0.0000       0.327921         8.9232 
 165   0.0000       0.333836         9.0841 
 166   0.0000       0.334061         9.0903 
 167   0.0000       0.337289         9.1781 
 168   0.0000       0.342785         9.3277 
 169   0.0000       0.353289         9.6135 
 170   0.0000       0.358222         9.7477 
 171   0.0000       0.363740         9.8979 
 172   0.0000       0.366948         9.9852 
 173   0.0000       0.369400        10.0519 
 174   0.0000       0.372218        10.1286 
 175   0.0000       0.376753        10.2520 
 176   0.0000       0.385230        10.4827 
 177   0.0000       0.392899        10.6913 
 178   0.0000       0.399083        10.8596 
 179   0.0000       0.399819        10.8796 
 180   0.0000       0.407672        11.0933 
 181   0.0000       0.408835        11.1250 
 182   0.0000       0.410710        11.1760 
 183   0.0000       0.415360        11.3025 
 184   0.0000       0.417245        11.3538 
 185   0.0000       0.419925        11.4267 
 186   0.0000       0.428326        11.6553 
 187   0.0000       0.431740        11.7483 
 188   0.0000       0.431996        11.7552 
 189   0.0000       0.436281        11.8718 
 190   0.0000       0.443465        12.0673 
 191   0.0000       0.444625        12.0988 
 192   0.0000       0.446670        12.1545 
 193   0.0000       0.451846        12.2954 
 194   0.0000       0.456074        12.4104 
 195   0.0000       0.462943        12.5973 
 196   0.0000       0.465138        12.6570 
 197   0.0000       0.465975        12.6798 
 198   0.0000       0.470860        12.8128 
 199   0.0000       0.481824        13.1111 
 200   0.0000       0.483165        13.1476 
 201   0.0000       0.491141        13.3646 
 202   0.0000       0.498185        13.5563 
 203   0.0000       0.504794        13.7361 
 204   0.0000       0.505742        13.7619 
 205   0.0000       0.513797        13.9811 
 206   0.0000       0.518161        14.0999 
 207   0.0000       0.521580        14.1929 
 208   0.0000       0.528132        14.3712 
 209   0.0000       0.534501        14.5445 
 210   0.0000       0.541916        14.7463 
 211   0.0000       0.543368        14.7858 
 212   0.0000       0.543795        14.7974 
 213   0.0000       0.558258        15.1910 
 214   0.0000       0.566429        15.4133 
 215   0.0000       0.573740        15.6123 
 216   0.0000       0.584037        15.8925 
 217   0.0000       0.586492        15.9593 
 218   0.0000       0.586599        15.9622 
 219   0.0000       0.593629        16.1535 
 220   0.0000       0.602537        16.3959 
 221   0.0000       0.614914        16.7327 
 222   0.0000       0.622283        16.9332 
 223   0.0000       0.632171        17.2023 
 224   0.0000       0.646484        17.5917 
 225   0.0000       0.649664        17.6782 
 226   0.0000       0.650268        17.6947 
 227   0.0000       0.659802        17.9541 
 228   0.0000       0.662168        18.0185 
 229   0.0000       0.669075        18.2065 
 230   0.0000       0.695013        18.9123 
 231   0.0000       0.699906        19.0454 
 232   0.0000       0.710141        19.3239 
 233   0.0000       0.741343        20.1730 
 234   0.0000       0.757701        20.6181 
 235   0.0000       0.757902        20.6236 
 236   0.0000       0.769406        20.9366 
 237   0.0000       0.779490        21.2110 
 238   0.0000       0.790815        21.5192 
 239   0.0000       0.802879        21.8475 
 240   0.0000       0.814093        22.1526 
 241   0.0000       0.825351        22.4589 
 242   0.0000       0.834618        22.7111 
 243   0.0000       0.840037        22.8586 
 244   0.0000       0.840177        22.8624 
 245   0.0000       0.843940        22.9648 
 246   0.0000       0.851675        23.1752 
 247   0.0000       0.854802        23.2603 
 248   0.0000       0.859613        23.3913 
 249   0.0000       0.870787        23.6953 
 250   0.0000       0.873619        23.7724 
 251   0.0000       0.882135        24.0041 
 252   0.0000       0.886027        24.1100 
 253   0.0000       0.888895        24.1881 
 254   0.0000       0.897888        24.4328 
 255   0.0000       0.905263        24.6335 
 256   0.0000       0.905980        24.6530 
 257   0.0000       0.912119        24.8200 
 258   0.0000       0.918881        25.0040 
 259   0.0000       0.922042        25.0900 
 260   0.0000       0.926736        25.2178 
 261   0.0000       0.927104        25.2278 
[...]
Convergence tolerance          ... 1.000e-06
Integral handling              ... Direct
Number of perturbations        ... 3
Number of operators            ... 2
Orbital ranges used for CP-SCF:
 Operator 0:  Orbitals   0... 84  to  85...582
 Operator 1:  Orbitals   0... 83  to  84...582
DFT calculation                         ... on
Variables per vector in CP-SCF ... 84246
Number of vectors sought       ... 3
     CP-SCF ITERATION   0: 
     CP-SCF ITERATION   1:      0.000000898084

Forming final perturbed densities           ... done
Transforming perturbed density to AO basis  ... done

Using FinalGrid as integration grid:         ... finished setting up the grid
Time for grid setup =    0.100 sec

 Raw HFC matrix (all values in MHz): 
 ------------------------------
                -0.0571               0.0985               0.0003
                 0.0983               0.1750               0.0009
                 0.0003               0.0009              -0.1410

 A(FC)          -0.0077              -0.0077              -0.0077
 A(SD)          -0.0854              -0.1333               0.2187
 A(ORB+DIA)     -0.0001              -0.0000               0.0001    A(PC) =  -0.0000
 A(ORB)         -0.0001              -0.0000               0.0001    A(PC) =   0.0000
 A(DIA)         -0.0000              -0.0000              -0.0000    A(PC) =  -0.0000
             ----------           ----------           ----------
 A(Tot)         -0.0932              -0.1410               0.2111    A(iso)=   -0.0077
 Orientation: 
  X           0.9387615            0.0001224            0.3445676
  Y          -0.3445666            0.0026830            0.9387580
  Z          -0.0008096           -0.9999964            0.0025609

Notes:  (1) The A matrix conforms to the "SAI" spin Hamiltonian convention.
        (2) Tensor is right-handed.

 -----------------------------------------------------------
 Nucleus  44H : A:ISTP=    1 I=  0.5 P=533.5514 MHz/au**3
                Q:ISTP=    2 I=  1.0 Q=  0.0029 barn     
 -----------------------------------------------------------
 Solving for nuclear perturbation:
Forming RHS of the CP-SCF equations         ... 
Using LibInt in CPSCF-CP

Calculating nucleus orbit integrals         ... done

------------------------------------------------------------------------------
                           ORCA CP-SCF CALCULATION
------------------------------------------------------------------------------

Input orbitals are from        ... EPRII.gbw
Input Perturbation             ... EPRII.pin.tmp
Wavefunction output            ... EPRII.pout.tmp
Perturbation mode              ... Imaginary perturbation
Solver                         ... POPLE
Max. number of iterations      ... 64
Convergence tolerance          ... 1.000e-06
Integral handling              ... Direct
Number of perturbations        ... 3
Number of operators            ... 2
Orbital ranges used for CP-SCF:
 Operator 0:  Orbitals   0... 84  to  85...582
 Operator 1:  Orbitals   0... 83  to  84...582
DFT calculation                         ... on
Variables per vector in CP-SCF ... 84246
Number of vectors sought       ... 3
     CP-SCF ITERATION   0: 
     CP-SCF ITERATION   1:      0.000002596781
     CP-SCF ITERATION   2:      0.000000981888

Forming final perturbed densities           ... done
Transforming perturbed density to AO basis  ... done

Using FinalGrid as integration grid:         ... finished setting up the grid
Time for grid setup =    0.129 sec

 Raw HFC matrix (all values in MHz): 
 ------------------------------
                -1.2845              -0.1373               0.0003
                -0.1373              -5.2045              -0.0085
                 0.0003              -0.0085              -3.4490

 A(FC)          -3.3130              -3.3130              -3.3130
 A(SD)           2.0335              -0.1362              -1.8973
 A(ORB+DIA)     -0.0002               0.0002               0.0010    A(PC) =   0.0003
 A(ORB)          0.0000               0.0000               0.0010    A(PC) =   0.0003
 A(DIA)         -0.0002               0.0002               0.0000    A(PC) =  -0.0000
             ----------           ----------           ----------
 A(Tot)         -1.2797              -3.4490              -5.2094    A(iso)=   -3.3127
 Orientation: 
  X           0.9993886            0.0004401            0.0349608
  Y          -0.0349625            0.0048200            0.9993770
  Z           0.0002713           -0.9999883            0.0048324

Notes:  (1) The A matrix conforms to the "SAI" spin Hamiltonian convention.
        (2) Tensor is right-handed.

 -----------------------------------------------------------
 Nucleus  45H : A:ISTP=    1 I=  0.5 P=533.5514 MHz/au**3
                Q:ISTP=    2 I=  1.0 Q=  0.0029 barn     
 -----------------------------------------------------------
 Solving for nuclear perturbation:
Forming RHS of the CP-SCF equations         ... 
Using LibInt in CPSCF-CP

Calculating nucleus orbit integrals         ... done

------------------------------------------------------------------------------
                           ORCA CP-SCF CALCULATION
------------------------------------------------------------------------------

Input orbitals are from        ... EPRII.gbw
Input Perturbation             ... EPRII.pin.tmp
Wavefunction output            ... EPRII.pout.tmp
Perturbation mode              ... Imaginary perturbation
Solver                         ... POPLE
Max. number of iterations      ... 64
Convergence tolerance          ... 1.000e-06
Integral handling              ... Direct
Number of perturbations        ... 3
Number of operators            ... 2
Orbital ranges used for CP-SCF:
 Operator 0:  Orbitals   0... 84  to  85...582
 Operator 1:  Orbitals   0... 83  to  84...582
DFT calculation                         ... on
Variables per vector in CP-SCF ... 84246
Number of vectors sought       ... 3
     CP-SCF ITERATION   0: 
     CP-SCF ITERATION   1:      0.000003085129
     CP-SCF ITERATION   2:      0.000000034031

Forming final perturbed densities           ... done
Transforming perturbed density to AO basis  ... done

Using FinalGrid as integration grid:         ... finished setting up the grid
Time for grid setup =    0.161 sec

 Raw HFC matrix (all values in MHz): 
 ------------------------------
                 1.8032              -0.3400              -0.0012
                -0.3400               1.2146               0.0017
                -0.0012               0.0017               0.8590

 A(FC)           1.2924               1.2924               1.2924
 A(SD)          -0.4333              -0.2333               0.6667
 A(ORB+DIA)     -0.0001               0.0002              -0.0004    A(PC) =  -0.0001
 A(ORB)         -0.0000               0.0002              -0.0004    A(PC) =  -0.0001
 A(DIA)         -0.0001              -0.0000              -0.0001    A(PC) =  -0.0001
             ----------           ----------           ----------
 A(Tot)          0.8590               1.0592               1.9586    A(iso)=    1.2923
 Orientation: 
  X          -0.0006058            0.4156597           -0.9095200
  Y          -0.0052785            0.9095062            0.4156569
  Z           0.9999859            0.0050527            0.0016431

Notes:  (1) The A matrix conforms to the "SAI" spin Hamiltonian convention.
        (2) Tensor is right-handed.

 -----------------------------------------------------------
 Nucleus  46H : A:ISTP=    1 I=  0.5 P=533.5514 MHz/au**3
                Q:ISTP=    2 I=  1.0 Q=  0.0029 barn     
 -----------------------------------------------------------
 Solving for nuclear perturbation:
Forming RHS of the CP-SCF equations         ... 
Using LibInt in CPSCF-CP

Calculating nucleus orbit integrals         ... done

------------------------------------------------------------------------------
                           ORCA CP-SCF CALCULATION
------------------------------------------------------------------------------

Input orbitals are from        ... EPRII.gbw
Input Perturbation             ... EPRII.pin.tmp
Wavefunction output            ... EPRII.pout.tmp
Perturbation mode              ... Imaginary perturbation
Solver                         ... POPLE
Max. number of iterations      ... 64
Convergence tolerance          ... 1.000e-06
Integral handling              ... Direct
Number of perturbations        ... 3
Number of operators            ... 2
Orbital ranges used for CP-SCF:
 Operator 0:  Orbitals   0... 84  to  85...582
 Operator 1:  Orbitals   0... 83  to  84...582
DFT calculation                         ... on
Variables per vector in CP-SCF ... 84246
Number of vectors sought       ... 3
     CP-SCF ITERATION   0: 
     CP-SCF ITERATION   1:      0.000004576127
     CP-SCF ITERATION   2:      0.000000177245

Forming final perturbed densities           ... done
Transforming perturbed density to AO basis  ... done

Using FinalGrid as integration grid:         ... finished setting up the grid
Time for grid setup =    0.128 sec

 Raw HFC matrix (all values in MHz): 
 ------------------------------
                -3.3718               0.7616               0.0038
                 0.7616              -1.8912               0.0069
                 0.0038               0.0069              -3.5692

 A(FC)          -2.9444              -2.9444              -2.9444
 A(SD)           1.3754              -0.6250              -0.7505
 A(ORB+DIA)     -0.0004               0.0001               0.0013    A(PC) =   0.0003
 A(ORB)         -0.0001               0.0000               0.0013    A(PC) =   0.0004
 A(DIA)         -0.0003               0.0001              -0.0001    A(PC) =  -0.0001
             ----------           ----------           ----------
 A(Tot)         -1.5694              -3.5693              -3.6936    A(iso)=   -2.9441
 Orientation: 
  X          -0.3892155            0.0045605           -0.9211354
  Y          -0.9211383           -0.0061898            0.3891861
  Z          -0.0039267            0.9999704            0.0066100

Notes:  (1) The A matrix conforms to the "SAI" spin Hamiltonian convention.
        (2) Tensor is right-handed.

 -----------------------------------------------------------
 Nucleus  47H : A:ISTP=    1 I=  0.5 P=533.5514 MHz/au**3
                Q:ISTP=    2 I=  1.0 Q=  0.0029 barn     
 -----------------------------------------------------------
 Solving for nuclear perturbation:
Forming RHS of the CP-SCF equations         ... 
Using LibInt in CPSCF-CP

Calculating nucleus orbit integrals         ... done

------------------------------------------------------------------------------
                           ORCA CP-SCF CALCULATION
------------------------------------------------------------------------------

Input orbitals are from        ... EPRII.gbw
Input Perturbation             ... EPRII.pin.tmp
Wavefunction output            ... EPRII.pout.tmp
Perturbation mode              ... Imaginary perturbation
Solver                         ... POPLE
Max. number of iterations      ... 64
Convergence tolerance          ... 1.000e-06
Integral handling              ... Direct
Number of perturbations        ... 3
Number of operators            ... 2
Orbital ranges used for CP-SCF:
 Operator 0:  Orbitals   0... 84  to  85...582
 Operator 1:  Orbitals   0... 83  to  84...582
DFT calculation                         ... on
Variables per vector in CP-SCF ... 84246
Number of vectors sought       ... 3
     CP-SCF ITERATION   0: 
     CP-SCF ITERATION   1:      0.000004571425
     CP-SCF ITERATION   2:      0.000000176238

Forming final perturbed densities           ... done
Transforming perturbed density to AO basis  ... done

Using FinalGrid as integration grid:         ... finished setting up the grid
Time for grid setup =    0.104 sec

 Raw HFC matrix (all values in MHz): 
 ------------------------------
                -3.4773              -0.6384              -0.0028
                -0.6385              -1.7787               0.0068
                -0.0028               0.0068              -3.5628

 A(FC)          -2.9400              -2.9400              -2.9400
 A(SD)           1.3748              -0.6229              -0.7519
 A(ORB+DIA)     -0.0003               0.0001               0.0013    A(PC) =   0.0004
 A(ORB)         -0.0001               0.0000               0.0014    A(PC) =   0.0005
 A(DIA)         -0.0003               0.0001              -0.0001    A(PC) =  -0.0001
             ----------           ----------           ----------
 A(Tot)         -1.5655              -3.5628              -3.6905    A(iso)=   -2.9396
 Orientation: 
  X           0.3167394           -0.0027329           -0.9485086
  Y          -0.9485054           -0.0048097           -0.3167245
  Z          -0.0036965            0.9999847           -0.0041156

Notes:  (1) The A matrix conforms to the "SAI" spin Hamiltonian convention.
        (2) Tensor is right-handed.

 -----------------------------------------------------------
 Nucleus  48H : A:ISTP=    1 I=  0.5 P=533.5514 MHz/au**3
                Q:ISTP=    2 I=  1.0 Q=  0.0029 barn     
 -----------------------------------------------------------
 Solving for nuclear perturbation:
Forming RHS of the CP-SCF equations         ... 
Using LibInt in CPSCF-CP

Calculating nucleus orbit integrals         ... done

------------------------------------------------------------------------------
                           ORCA CP-SCF CALCULATION
------------------------------------------------------------------------------

Input orbitals are from        ... EPRII.gbw
Input Perturbation             ... EPRII.pin.tmp
Wavefunction output            ... EPRII.pout.tmp
Perturbation mode              ... Imaginary perturbation
Solver                         ... POPLE
Max. number of iterations      ... 64
Convergence tolerance          ... 1.000e-06
Integral handling              ... Direct
Number of perturbations        ... 3
Number of operators            ... 2
Orbital ranges used for CP-SCF:
 Operator 0:  Orbitals   0... 84  to  85...582
 Operator 1:  Orbitals   0... 83  to  84...582
DFT calculation                         ... on
Variables per vector in CP-SCF ... 84246
Number of vectors sought       ... 3
     CP-SCF ITERATION   0: 
     CP-SCF ITERATION   1:      0.000003098746
     CP-SCF ITERATION   2:      0.000000981280

Forming final perturbed densities           ... done
Transforming perturbed density to AO basis  ... done

Using FinalGrid as integration grid:         ... finished setting up the grid
Time for grid setup =    0.150 sec

 Raw HFC matrix (all values in MHz): 
 ------------------------------
                 1.8520               0.3007               0.0020
                 0.3006               1.1675               0.0017
                 0.0020               0.0017               0.8584

 A(FC)           1.2928               1.2928               1.2928
 A(SD)          -0.4343              -0.2387               0.6730
 A(ORB+DIA)     -0.0001               0.0002              -0.0004    A(PC) =  -0.0001
 A(ORB)         -0.0000               0.0002              -0.0004    A(PC) =  -0.0001
 A(DIA)         -0.0001              -0.0000              -0.0001    A(PC) =  -0.0001
             ----------           ----------           ----------
 A(Tot)          0.8584               1.0542               1.9653    A(iso)=    1.2926
 Orientation: 
  X          -0.0005906           -0.3526461           -0.9357566
  Y          -0.0048156            0.9357469           -0.3526394
  Z           0.9999882            0.0042979           -0.0022508

Notes:  (1) The A matrix conforms to the "SAI" spin Hamiltonian convention.
        (2) Tensor is right-handed.


------------------------------------------------------------------------------- 
----------------------------------------------------------------------------
                           ORCA EULER ANGLE PROGRAM
----------------------------------------------------------------------------

Only g-tensor available        -->  using g-tensor as reference tensor

Reference tensor               ...  g

g-tensor ordering              ...  |g_min> --> |gx>
                                    |g_mid> --> |gy>
                                    |g_max> --> |gz>

A- and EFG-tensor ordering     ...  the axes |Ax>, |Qx>, |Ay>, etc. are assigned
                                    such that the Euler rotation is minimal. You
                                    can find the respective eigenvalues as Ax,
                                    EFGx, Ay, etc. in the tables below.
                                    The relation of |Ax>, |Ay>,  etc. to Amin, Amid, etc.
                                    (as printed in the ORCA EPR/NMR CALCULATION Output)
                                    is obtained in the detailed printout.

Euler rotation around          ...  z - y - z
   First rotation              -->  by alpha around z
   Second rotation             -->  by beta around y'
   Third rotation              -->  by gamma around z''
   Positive / Negative angle   -->  clockwise / counterclockwise rotation

Plot EFG-tensors                    (-)
Plot HFC-tensors                    (-)
Detailed Printout                   (-)

-------------------------------------------------------------------------
          Euler rotation of hyperfine tensor to g-tensor
-------------------------------------------------------------------------

-------------------------------------------------------------------
 Atom  |   Alpha    Beta    Gamma   |   Ax       Ay       Az 
       |          [degrees]         |           [MHz]         
-------------------------------------------------------------------
  9H       90.5     37.1    -90.4       2.75     3.62     6.70
 10H       91.1     18.8    -91.1     -10.33    -3.92   -10.97
 12H       55.0     14.5    -38.3      12.99    17.71    14.60
 13H      126.5     15.0   -143.2      12.98    17.71    14.60
 15H       77.4     28.5    -63.2      -0.98     0.85    -0.76
 16H      103.9     28.8   -118.0      -0.98     0.85    -0.76
 18H      145.1      6.2   -154.4      -0.38     0.87    -0.28
 19H       38.5      5.5    -29.2      -0.38     0.87    -0.28
 21H       93.2     16.1   -100.9      -0.17     0.39    -0.11
 22H       89.3     16.0    -81.4      -0.17     0.39    -0.11
 24H      -97.1     27.3    112.6      -5.19    -3.55    -4.45
 25H      -84.3     27.0     68.8      -5.19    -3.55    -4.45
 27H      -84.1     26.0     71.5      -0.15     1.50     0.06
 28H      -97.4     26.2    110.0      -0.15     1.50     0.06
 30H      -95.2     28.3    105.1      -0.32     0.27    -0.16
 31H      -86.1     28.1     76.2      -0.32     0.27    -0.16
 33H      -91.2     15.3     98.7      -0.21     0.32    -0.14
 34H      -91.4     15.3     83.8      -0.21     0.32    -0.14
 36H       93.2      6.7    -93.1      -0.18     0.29    -0.14
 37H      -91.0     19.3     91.0      -0.14     0.21    -0.09
 44H     -106.3      1.2    106.4      -3.45    -5.21    -1.28
 45H      -90.8     23.7     90.9       0.86     1.06     1.96
 46H      -91.6     22.0     91.8      -3.57    -1.57    -3.69
 47H       90.6     19.4    -90.4      -3.56    -1.57    -3.69
 48H       90.9     21.5    -90.6       0.86     1.05     1.97
-------------------------------------------------------------------


Timings for individual modules:

Sum of individual times         ...     5197.051 sec (=  86.618 min)
GTO integral calculation        ...        2.577 sec (=   0.043 min)   0.0 %
Spin-Orbit-Coupling Matrices    ...       26.800 sec (=   0.447 min)   0.5 %
SCF iterations                  ...      216.494 sec (=   3.608 min)   4.2 %
EPR/NMR calculation             ...     4951.180 sec (=  82.520 min)  95.3 %
                             ****ORCA TERMINATED NORMALLY****
TOTAL RUN TIME: 0 days 1 hours 26 minutes 38 seconds 951 msec
