
                                 *****************
                                 * O   R   C   A *
                                 *****************

                                            #,                                       
                                            ###                                      
                                            ####                                     
                                            #####                                    
                                            ######                                   
                                           ########,                                 
                                     ,,################,,,,,                         
                               ,,#################################,,                 
                          ,,##########################################,,             
                       ,#########################################, ''#####,          
                    ,#############################################,,   '####,        
                  ,##################################################,,,,####,       
                ,###########''''           ''''###############################       
              ,#####''   ,,,,##########,,,,          '''####'''          '####       
            ,##' ,,,,###########################,,,                        '##       
           ' ,,###''''                  '''############,,,                           
         ,,##''                                '''############,,,,        ,,,,,,###''
      ,#''                                            '''#######################'''  
     '                                                          ''''####''''         
             ,#######,   #######,   ,#######,      ##                                
            ,#'     '#,  ##    ##  ,#'     '#,    #''#        ######   ,####,        
            ##       ##  ##   ,#'  ##            #'  '#       #        #'  '#        
            ##       ##  #######   ##           ,######,      #####,   #    #        
            '#,     ,#'  ##    ##  '#,     ,#' ,#      #,         ##   #,  ,#        
             '#######'   ##     ##  '#######'  #'      '#     #####' # '####'        



                  #######################################################
                  #                        -***-                        #
                  #          Department of theory and spectroscopy      #
                  #    Directorship and core code : Frank Neese         #
                  #        Max Planck Institute fuer Kohlenforschung    #
                  #                Kaiser Wilhelm Platz 1               #
                  #                 D-45470 Muelheim/Ruhr               #
                  #                      Germany                        #
                  #                                                     #
                  #                  All rights reserved                #
                  #                        -***-                        #
                  #######################################################


                         Program Version 5.0.4 -  RELEASE  -


 With contributions from (in alphabetic order):
   Daniel Aravena         : Magnetic Suceptibility
   Michael Atanasov       : Ab Initio Ligand Field Theory (pilot matlab implementation)
   Alexander A. Auer      : GIAO ZORA, VPT2 properties, NMR spectrum
   Ute Becker             : Parallelization
   Giovanni Bistoni       : ED, misc. LED, open-shell LED, HFLD
   Martin Brehm           : Molecular dynamics
   Dmytro Bykov           : SCF Hessian
   Vijay G. Chilkuri      : MRCI spin determinant printing, contributions to CSF-ICE
   Dipayan Datta          : RHF DLPNO-CCSD density
   Achintya Kumar Dutta   : EOM-CC, STEOM-CC
   Dmitry Ganyushin       : Spin-Orbit,Spin-Spin,Magnetic field MRCI
   Miquel Garcia          : C-PCM and meta-GGA Hessian, CC/C-PCM, Gaussian charge scheme
   Yang Guo               : DLPNO-NEVPT2, F12-NEVPT2, CIM, IAO-localization
   Andreas Hansen         : Spin unrestricted coupled pair/coupled cluster methods
   Benjamin Helmich-Paris : MC-RPA, TRAH-SCF, COSX integrals
   Lee Huntington         : MR-EOM, pCC
   Robert Izsak           : Overlap fitted RIJCOSX, COSX-SCS-MP3, EOM
   Marcus Kettner         : VPT2
   Christian Kollmar      : KDIIS, OOCD, Brueckner-CCSD(T), CCSD density, CASPT2, CASPT2-K
   Simone Kossmann        : Meta GGA functionals, TD-DFT gradient, OOMP2, MP2 Hessian
   Martin Krupicka        : Initial AUTO-CI
   Lucas Lang             : DCDCAS
   Marvin Lechner         : AUTO-CI (C++ implementation), FIC-MRCC
   Dagmar Lenk            : GEPOL surface, SMD
   Dimitrios Liakos       : Extrapolation schemes; Compound Job, initial MDCI parallelization
   Dimitrios Manganas     : Further ROCIS development; embedding schemes
   Dimitrios Pantazis     : SARC Basis sets
   Anastasios Papadopoulos: AUTO-CI, single reference methods and gradients
   Taras Petrenko         : DFT Hessian,TD-DFT gradient, ASA, ECA, R-Raman, ABS, FL, XAS/XES, NRVS
   Peter Pinski           : DLPNO-MP2, DLPNO-MP2 Gradient
   Christoph Reimann      : Effective Core Potentials
   Marius Retegan         : Local ZFS, SOC
   Christoph Riplinger    : Optimizer, TS searches, QM/MM, DLPNO-CCSD(T), (RO)-DLPNO pert. Triples
   Tobias Risthaus        : Range-separated hybrids, TD-DFT gradient, RPA, STAB
   Michael Roemelt        : Original ROCIS implementation
   Masaaki Saitow         : Open-shell DLPNO-CCSD energy and density
   Barbara Sandhoefer     : DKH picture change effects
   Avijit Sen             : IP-ROCIS
   Kantharuban Sivalingam : CASSCF convergence, NEVPT2, FIC-MRCI
   Bernardo de Souza      : ESD, SOC TD-DFT
   Georgi Stoychev        : AutoAux, RI-MP2 NMR, DLPNO-MP2 response
   Willem Van den Heuvel  : Paramagnetic NMR
   Boris Wezisla          : Elementary symmetry handling
   Frank Wennmohs         : Technical directorship


 We gratefully acknowledge several colleagues who have allowed us to
 interface, adapt or use parts of their codes:
   Stefan Grimme, W. Hujo, H. Kruse, P. Pracht,  : VdW corrections, initial TS optimization,
                  C. Bannwarth, S. Ehlert          DFT functionals, gCP, sTDA/sTD-DF
   Ed Valeev, F. Pavosevic, A. Kumar             : LibInt (2-el integral package), F12 methods
   Garnet Chan, S. Sharma, J. Yang, R. Olivares  : DMRG
   Ulf Ekstrom                                   : XCFun DFT Library
   Mihaly Kallay                                 : mrcc  (arbitrary order and MRCC methods)
   Jiri Pittner, Ondrej Demel                    : Mk-CCSD
   Frank Weinhold                                : gennbo (NPA and NBO analysis)
   Christopher J. Cramer and Donald G. Truhlar   : smd solvation model
   Lars Goerigk                                  : TD-DFT with DH, B97 family of functionals
   V. Asgeirsson, H. Jonsson                     : NEB implementation
   FAccTs GmbH                                   : IRC, NEB, NEB-TS, DLPNO-Multilevel, CI-OPT
                                                   MM, QMMM, 2- and 3-layer-ONIOM, Crystal-QMMM,
                                                   LR-CPCM, SF, NACMEs, symmetry and pop. for TD-DFT,
                                                   nearIR, NL-DFT gradient (VV10), updates on ESD,
                                                   ML-optimized integration grids
   S Lehtola, MJT Oliveira, MAL Marques          : LibXC Library
   Liviu Ungur et al                             : ANISO software


 Your calculation uses the libint2 library for the computation of 2-el integrals
 For citations please refer to: http://libint.valeyev.net

 Your ORCA version has been built with support for libXC version: 5.1.0
 For citations please refer to: https://tddft.org/programs/libxc/

 This ORCA versions uses:
   CBLAS   interface :  Fast vector & matrix operations
   LAPACKE interface :  Fast linear algebra routines
   SCALAPACK package :  Parallel linear algebra routines
   Shared memory     :  Shared parallel matrices
   BLAS/LAPACK       :  OpenBLAS 0.3.15  USE64BITINT DYNAMIC_ARCH NO_AFFINITY SkylakeX SINGLE_THREADED
        Core in use  :  SkylakeX
   Copyright (c) 2011-2014, The OpenBLAS Project




***************************************
The coordinates will be read from file: opt_EPRII.xyz
***************************************


================================================================================

----- Orbital basis set information -----
Your calculation utilizes the basis: EPR-II
   V. Barone, in Recent Advances in Density Functional Methods, Part 1 (ed. D. P. Chong), World Scientific, Singapore, 1995, p. 287.

----- AuxJ basis set information -----
Your calculation utilizes the AutoAux generation procedure.
  G. L. Stoychev, A. A. Auer, F. Neese, J. Chem. Theory Comput. 13, 554 (2017)

----- AuxC basis set information -----
Your calculation utilizes the AutoAux generation procedure.
  G. L. Stoychev, A. A. Auer, F. Neese, J. Chem. Theory Comput. 13, 554 (2017)

----- AuxJK basis set information -----
Your calculation utilizes the AutoAux generation procedure.
  G. L. Stoychev, A. A. Auer, F. Neese, J. Chem. Theory Comput. 13, 554 (2017)

================================================================================
                                        WARNINGS
                       Please study these warnings very carefully!
================================================================================

WARNING: Old DensityContainer found on disk!
         Will remove this file - 
         If you want to keep old densities, please start your calculation with a different basename. 


WARNING: your system is open-shell and RHF/RKS was chosen
  ===> : WILL SWITCH to UHF/UKS


INFO   : the flag for use of the SHARK integral package has been found!

================================================================================
                                       INPUT FILE
================================================================================
NAME = EPRII_i.inp
|  1> ! B3LYP EPR-II AUTOAUX
|  2> %pal nprocs 16 end
|  3> *XYZFile 0 2 opt_EPRII.xyz
|  4> %EPRNMR
|  5>         GTENSOR   TRUE
|  6>         NUCLEI    = ALL H {SHIFT, AISO, ADIP, AORB}
|  7>         ORI       GIAO
|  8> END
|  9> 
| 10>                          ****END OF INPUT****
================================================================================

                       ****************************
                       * Single Point Calculation *
                       ****************************

---------------------------------
CARTESIAN COORDINATES (ANGSTROEM)
---------------------------------
  C     -4.113085    0.073637   -0.018204
  C     -2.824890    0.051463   -0.012975
  C      2.807106   -0.006085   -0.009360
  C     -1.427304    0.011936   -0.012516
  C     -0.714994   -1.246467   -0.014833
  C      0.672777   -1.198020   -0.013556
  C      1.389321    0.032206   -0.010227
  C      0.692314    1.288046   -0.007400
  C     -0.692930    1.243500   -0.008663
  H      1.250439   -2.114950   -0.015211
  H     -1.274541    2.157673   -0.006761
  C     -1.494418   -2.547167   -0.018707
  H     -2.164603   -2.536718   -0.887834
  H     -2.167297   -2.540332    0.848356
  C     -0.667445   -3.841890   -0.020097
  H     -0.010652   -3.867183   -0.900371
  H     -0.013781   -3.870976    0.862393
  C     -1.554353   -5.100241   -0.024427
  H     -2.214347   -5.080188    0.852514
  H     -2.210859   -5.076577   -0.903892
  C     -0.740810   -6.405939   -0.025519
  H     -0.099373   -6.471396    0.860733
  H     -0.095182   -6.467269   -0.909017
  C      1.480981    2.586933   -0.003308
  H      2.147219    2.579608    0.870093
  H      2.148475    2.584347   -0.875776
  C      0.657049    3.883874   -0.000385
  H      0.002570    3.912375   -0.881476
  H      0.000517    3.907167    0.879327
  C      1.544186    5.141911    0.004404
  H      2.200662    5.118683    0.884580
  H      2.203073    5.123698   -0.874088
  C      0.730302    6.447485    0.007035
  H      0.084864    6.507040    0.890398
  H      0.087982    6.512581   -0.878209
  C      4.035162   -0.048660   -0.010298
  H     -1.396602   -7.282494   -0.029107
  H      1.385553    7.324507    0.010933
  C      5.461584   -0.108003   -0.009969
  C      6.125738   -1.360410   -0.012186
  C      7.523062   -1.414769   -0.011836
  C      8.278291   -0.229049   -0.009330
  C      7.627542    1.017125   -0.007149
  C      6.230628    1.082692   -0.007467
  H      9.363866   -0.275817   -0.009089
  H      8.209979    1.934333   -0.005222
  H      5.536832   -2.272616   -0.014134
  H      5.722748    2.042341   -0.005815
  H      8.024952   -2.378429   -0.013531

----------------------------
CARTESIAN COORDINATES (A.U.)
----------------------------
  NO LB      ZA    FRAG     MASS         X           Y           Z
   0 C     6.0000    0    12.011   -7.772604    0.139154   -0.034400
   1 C     6.0000    0    12.011   -5.338269    0.097250   -0.024518
   2 C     6.0000    0    12.011    5.304662   -0.011498   -0.017687
   3 C     6.0000    0    12.011   -2.697213    0.022556   -0.023652
   4 C     6.0000    0    12.011   -1.351143   -2.355481   -0.028031
   5 C     6.0000    0    12.011    1.271364   -2.263929   -0.025616
   6 C     6.0000    0    12.011    2.625436    0.060861   -0.019327
   7 C     6.0000    0    12.011    1.308283    2.434054   -0.013984
   8 C     6.0000    0    12.011   -1.309448    2.349875   -0.016372
   9 H     1.0000    0     1.008    2.362988   -3.996677   -0.028744
  10 H     1.0000    0     1.008   -2.408534    4.077410   -0.012777
  11 C     6.0000    0    12.011   -2.824042   -4.813447   -0.035352
  12 H     1.0000    0     1.008   -4.090506   -4.793703   -1.677762
  13 H     1.0000    0     1.008   -4.095599   -4.800532    1.603160
  14 C     6.0000    0    12.011   -1.261288   -7.260121   -0.037978
  15 H     1.0000    0     1.008   -0.020130   -7.307916   -1.701454
  16 H     1.0000    0     1.008   -0.026043   -7.315084    1.629687
  17 C     6.0000    0    12.011   -2.937301   -9.638059   -0.046161
  18 H     1.0000    0     1.008   -4.184510   -9.600164    1.611018
  19 H     1.0000    0     1.008   -4.177919   -9.593341   -1.708109
  20 C     6.0000    0    12.011   -1.399927  -12.105471   -0.048223
  21 H     1.0000    0     1.008   -0.187788  -12.229165    1.626549
  22 H     1.0000    0     1.008   -0.179868  -12.221368   -1.717793
  23 C     6.0000    0    12.011    2.798649    4.888595   -0.006251
  24 H     1.0000    0     1.008    4.057656    4.874753    1.644237
  25 H     1.0000    0     1.008    4.060030    4.883708   -1.654976
  26 C     6.0000    0    12.011    1.241643    7.339458   -0.000727
  27 H     1.0000    0     1.008    0.004857    7.393317   -1.665749
  28 H     1.0000    0     1.008    0.000977    7.383475    1.661687
  29 C     6.0000    0    12.011    2.918089    9.716803    0.008322
  30 H     1.0000    0     1.008    4.158648    9.672910    1.671613
  31 H     1.0000    0     1.008    4.163205    9.682386   -1.651787
  32 C     6.0000    0    12.011    1.380070   12.183981    0.013294
  33 H     1.0000    0     1.008    0.160370   12.296524    1.682609
  34 H     1.0000    0     1.008    0.166262   12.306994   -1.659574
  35 C     6.0000    0    12.011    7.625351   -0.091955   -0.019460
  36 H     1.0000    0     1.008   -2.639195  -13.761920   -0.055004
  37 H     1.0000    0     1.008    2.618316   13.841312    0.020660
  38 C     6.0000    0    12.011   10.320898   -0.204095   -0.018839
  39 C     6.0000    0    12.011   11.575968   -2.570802   -0.023028
  40 C     6.0000    0    12.011   14.216526   -2.673525   -0.022366
  41 C     6.0000    0    12.011   15.643702   -0.432841   -0.017631
  42 C     6.0000    0    12.011   14.413965    1.922087   -0.013510
  43 C     6.0000    0    12.011   11.774180    2.045991   -0.014111
  44 H     1.0000    0     1.008   17.695142   -0.521219   -0.017176
  45 H     1.0000    0     1.008   15.514612    3.655360   -0.009867
  46 H     1.0000    0     1.008   10.463097   -4.294623   -0.026709
  47 H     1.0000    0     1.008   10.814426    3.859466   -0.010988
  48 H     1.0000    0     1.008   15.164962   -4.494579   -0.025570

--------------------------------
INTERNAL COORDINATES (ANGSTROEM)
--------------------------------
 C      0   0   0     0.000000000000     0.00000000     0.00000000
 C      1   0   0     1.288396194861     0.00000000     0.00000000
 C      2   1   0     5.632291866485   179.55399000     0.00000000
 C      2   1   3     1.398145605088   179.33108356   224.67333433
 C      4   2   1     1.446018208572   121.13163816   341.48102296
 C      5   4   2     1.388616660982   117.51217247   180.02986149
 C      3   2   1     1.418302667153     0.96162438    26.14051065
 C      7   3   6     1.436300980265   120.57773082   179.98179093
 C      8   7   3     1.385960413324   117.18879746   179.99069087
 H      6   5   4     1.083724385261   120.21121185   180.00096507
 H      9   8   7     1.083506766829   120.62315070   180.00580153
 C      5   4   2     1.516356669504   119.55689637     0.03880535
 H     12   5   4     1.097559293357   107.92185461    56.26862639
 H     12   5   4     1.097548045618   107.92473568   303.80745010
 C     12   5   4     1.536293367840   116.50109996   180.03760976
 H     15  12   5     1.098588746465   109.99543518   301.39438217
 H     15  12   5     1.098595209190   109.99074713    58.63557994
 C     15  12   5     1.539503751395   112.25575617   180.01517461
 H     18  15  12     1.097734289225   109.21974307   302.10288532
 H     18  15  12     1.097733979008   109.21859552    57.92779433
 C     18  15  12     1.538408737091   112.89729524   180.01399495
 H     21  18  15     1.095977647472   111.07662390    59.94148799
 H     21  18  15     1.095977007774   111.07494418   300.11426334
 C      8   7   3     1.519578968531   119.70373847     0.00000000
 H     24   8   7     1.098524028494   108.13211736   303.26586662
 H     24   8   7     1.098524078112   108.13220644    56.74139393
 C     24   8   7     1.536531076208   116.30724937   180.00349983
 H     27  24   8     1.097942605287   109.87856752   301.46562520
 H     27  24   8     1.097938758838   109.88169503    58.47547591
 C     27  24   8     1.539380330098   112.38233054   179.97037000
 H     30  27  24     1.098275675167   109.24931384   301.98315391
 H     30  27  24     1.098276386847   109.25027119    57.98754562
 C     30  27  24     1.538485696787   112.87055478   179.98667756
 H     33  30  27     1.095658738187   111.04751331    59.83194011
 H     33  30  27     1.095658919803   111.04906415   300.11122164
 C      3   2   1     1.228793527419   178.59749990   209.32922184
 H     21  18  15     1.094725923415   111.27225382   180.02794094
 H     33  30  27     1.094777086063   111.29651184   179.97132514
 C     36   3   7     1.427655990807   179.59928501   341.64624826
 C     39  36   3     1.417614254196   120.31930048     8.27989470
 C     40  39  36     1.398380499705   120.16483366   180.00100206
 C     41  40  39     1.405811736007   120.26677297     0.00000000
 C     42  41  40     1.405855448503   119.93204700     0.00000000
 C     43  42  41     1.398451722062   120.26072028     0.00000000
 H     42  41  40     1.086582296470   120.02773352   180.00139036
 H     43  42  41     1.086511787686   120.01063487   180.00061238
 H     40  39  36     1.085787551371   119.21735005     0.00000000
 H     44  43  42     1.085758583053   120.57661742   180.00151209
 H     41  40  39     1.086525723803   119.73896931   179.99916923

---------------------------
INTERNAL COORDINATES (A.U.)
---------------------------
 C      0   0   0     0.000000000000     0.00000000     0.00000000
 C      1   0   0     2.434715960273     0.00000000     0.00000000
 C      2   1   0    10.643489133969   179.55399000     0.00000000
 C      2   1   3     2.642112288962   179.33108356   224.67333433
 C      4   2   1     2.732578398864   121.13163816   341.48102296
 C      5   4   2     2.624105194257   117.51217247   180.02986149
 C      3   2   1     2.680203615929     0.96162438    26.14051065
 C      7   3   6     2.714215498583   120.57773082   179.98179093
 C      8   7   3     2.619085613639   117.18879746   179.99069087
 H      6   5   4     2.047942292796   120.21121185   180.00096507
 H      9   8   7     2.047531053558   120.62315070   180.00580153
 C      5   4   2     2.865498826708   119.55689637     0.03880535
 H     12   5   4     2.074086480186   107.92185461    56.26862639
 H     12   5   4     2.074065225038   107.92473568   303.80745010
 C     12   5   4     2.903173726578   116.50109996   180.03760976
 H     15  12   5     2.076031864628   109.99543518   301.39438217
 H     15  12   5     2.076044077407   109.99074713    58.63557994
 C     15  12   5     2.909240472280   112.25575617   180.01517461
 H     18  15  12     2.074417174450   109.21974307   302.10288532
 H     18  15  12     2.074416588224   109.21859552    57.92779433
 C     18  15  12     2.907171195133   112.89729524   180.01399495
 H     21  18  15     2.071097602621   111.07662390    59.94148799
 H     21  18  15     2.071096393768   111.07494418   300.11426334
 C      8   7   3     2.871588089389   119.70373847     0.00000000
 H     24   8   7     2.075909565386   108.13211736   303.26586662
 H     24   8   7     2.075909659149   108.13220644    56.74139393
 C     24   8   7     2.903622930292   116.30724937   180.00349983
 H     27  24   8     2.074810834757   109.87856752   301.46562520
 H     27  24   8     2.074803566021   109.88169503    58.47547591
 C     27  24   8     2.909007239830   112.38233054   179.97037000
 H     30  27  24     2.075440245613   109.24931384   301.98315391
 H     30  27  24     2.075441590493   109.25027119    57.98754562
 C     30  27  24     2.907316627883   112.87055478   179.98667756
 H     33  30  27     2.070494951411   111.04751331    59.83194011
 H     33  30  27     2.070495294615   111.04906415   300.11122164
 C      3   2   1     2.322083241957   178.59749990   209.32922184
 H     21  18  15     2.068732186958   111.27225382   180.02794094
 H     33  30  27     2.068828870350   111.29651184   179.97132514
 C     36   3   7     2.697878836078   179.59928501   341.64624826
 C     39  36   3     2.678902703974   120.31930048     8.27989470
 C     40  39  36     2.642556175459   120.16483366   180.00100206
 C     41  40  39     2.656599176906   120.26677297     0.00000000
 C     42  41  40     2.656681781551   119.93204700     0.00000000
 C     43  42  41     2.642690766208   120.26072028     0.00000000
 H     42  41  40     2.053342962296   120.02773352   180.00139036
 H     43  42  41     2.053209720003   120.01063487   180.00061238
 H     40  39  36     2.051841111712   119.21735005     0.00000000
 H     44  43  42     2.051786369524   120.57661742   180.00151209
 H     41  40  39     2.053236055449   119.73896931   179.99916923

---------------------
BASIS SET INFORMATION
---------------------
There are 2 groups of distinct atoms

 Group   1 Type C   : 10s5p1d contracted to 6s2p1d pattern {511111/41/1}
 Group   2 Type H   : 6s1p contracted to 4s1p pattern {3111/1}

Atom   0C    basis set group =>   1
Atom   1C    basis set group =>   1
Atom   2C    basis set group =>   1
Atom   3C    basis set group =>   1
Atom   4C    basis set group =>   1
Atom   5C    basis set group =>   1
Atom   6C    basis set group =>   1
Atom   7C    basis set group =>   1
Atom   8C    basis set group =>   1
Atom   9H    basis set group =>   2
Atom  10H    basis set group =>   2
Atom  11C    basis set group =>   1
Atom  12H    basis set group =>   2
Atom  13H    basis set group =>   2
Atom  14C    basis set group =>   1
Atom  15H    basis set group =>   2
Atom  16H    basis set group =>   2
Atom  17C    basis set group =>   1
Atom  18H    basis set group =>   2
Atom  19H    basis set group =>   2
Atom  20C    basis set group =>   1
Atom  21H    basis set group =>   2
Atom  22H    basis set group =>   2
Atom  23C    basis set group =>   1
Atom  24H    basis set group =>   2
Atom  25H    basis set group =>   2
Atom  26C    basis set group =>   1
Atom  27H    basis set group =>   2
Atom  28H    basis set group =>   2
Atom  29C    basis set group =>   1
Atom  30H    basis set group =>   2
Atom  31H    basis set group =>   2
Atom  32C    basis set group =>   1
Atom  33H    basis set group =>   2
Atom  34H    basis set group =>   2
Atom  35C    basis set group =>   1
Atom  36H    basis set group =>   2
Atom  37H    basis set group =>   2
Atom  38C    basis set group =>   1
Atom  39C    basis set group =>   1
Atom  40C    basis set group =>   1
Atom  41C    basis set group =>   1
Atom  42C    basis set group =>   1
Atom  43C    basis set group =>   1
Atom  44H    basis set group =>   2
Atom  45H    basis set group =>   2
Atom  46H    basis set group =>   2
Atom  47H    basis set group =>   2
Atom  48H    basis set group =>   2
---------------------------------
AUXILIARY/J BASIS SET INFORMATION
---------------------------------
There are 2 groups of distinct atoms

 Group   1 Type C   : 17s13p12d2f contracted to 17s13p12d2f pattern {11111111111111111/1111111111111/111111111111/11}
 Group   2 Type H   : 15s6p1d contracted to 15s6p1d pattern {111111111111111/111111/1}

Atom   0C    basis set group =>   1
Atom   1C    basis set group =>   1
Atom   2C    basis set group =>   1
Atom   3C    basis set group =>   1
Atom   4C    basis set group =>   1
Atom   5C    basis set group =>   1
Atom   6C    basis set group =>   1
Atom   7C    basis set group =>   1
Atom   8C    basis set group =>   1
Atom   9H    basis set group =>   2
Atom  10H    basis set group =>   2
Atom  11C    basis set group =>   1
Atom  12H    basis set group =>   2
Atom  13H    basis set group =>   2
Atom  14C    basis set group =>   1
Atom  15H    basis set group =>   2
Atom  16H    basis set group =>   2
Atom  17C    basis set group =>   1
Atom  18H    basis set group =>   2
Atom  19H    basis set group =>   2
Atom  20C    basis set group =>   1
Atom  21H    basis set group =>   2
Atom  22H    basis set group =>   2
Atom  23C    basis set group =>   1
Atom  24H    basis set group =>   2
Atom  25H    basis set group =>   2
Atom  26C    basis set group =>   1
Atom  27H    basis set group =>   2
Atom  28H    basis set group =>   2
Atom  29C    basis set group =>   1
Atom  30H    basis set group =>   2
Atom  31H    basis set group =>   2
Atom  32C    basis set group =>   1
Atom  33H    basis set group =>   2
Atom  34H    basis set group =>   2
Atom  35C    basis set group =>   1
Atom  36H    basis set group =>   2
Atom  37H    basis set group =>   2
Atom  38C    basis set group =>   1
Atom  39C    basis set group =>   1
Atom  40C    basis set group =>   1
Atom  41C    basis set group =>   1
Atom  42C    basis set group =>   1
Atom  43C    basis set group =>   1
Atom  44H    basis set group =>   2
Atom  45H    basis set group =>   2
Atom  46H    basis set group =>   2
Atom  47H    basis set group =>   2
Atom  48H    basis set group =>   2
---------------------------------
AUXILIARY/C BASIS SET INFORMATION
---------------------------------
There are 2 groups of distinct atoms

 Group   1 Type C   : 17s13p12d2f contracted to 17s13p12d2f pattern {11111111111111111/1111111111111/111111111111/11}
 Group   2 Type H   : 15s6p1d contracted to 15s6p1d pattern {111111111111111/111111/1}

Atom   0C    basis set group =>   1
Atom   1C    basis set group =>   1
Atom   2C    basis set group =>   1
Atom   3C    basis set group =>   1
Atom   4C    basis set group =>   1
Atom   5C    basis set group =>   1
Atom   6C    basis set group =>   1
Atom   7C    basis set group =>   1
Atom   8C    basis set group =>   1
Atom   9H    basis set group =>   2
Atom  10H    basis set group =>   2
Atom  11C    basis set group =>   1
Atom  12H    basis set group =>   2
Atom  13H    basis set group =>   2
Atom  14C    basis set group =>   1
Atom  15H    basis set group =>   2
Atom  16H    basis set group =>   2
Atom  17C    basis set group =>   1
Atom  18H    basis set group =>   2
Atom  19H    basis set group =>   2
Atom  20C    basis set group =>   1
Atom  21H    basis set group =>   2
Atom  22H    basis set group =>   2
Atom  23C    basis set group =>   1
Atom  24H    basis set group =>   2
Atom  25H    basis set group =>   2
Atom  26C    basis set group =>   1
Atom  27H    basis set group =>   2
Atom  28H    basis set group =>   2
Atom  29C    basis set group =>   1
Atom  30H    basis set group =>   2
Atom  31H    basis set group =>   2
Atom  32C    basis set group =>   1
Atom  33H    basis set group =>   2
Atom  34H    basis set group =>   2
Atom  35C    basis set group =>   1
Atom  36H    basis set group =>   2
Atom  37H    basis set group =>   2
Atom  38C    basis set group =>   1
Atom  39C    basis set group =>   1
Atom  40C    basis set group =>   1
Atom  41C    basis set group =>   1
Atom  42C    basis set group =>   1
Atom  43C    basis set group =>   1
Atom  44H    basis set group =>   2
Atom  45H    basis set group =>   2
Atom  46H    basis set group =>   2
Atom  47H    basis set group =>   2
Atom  48H    basis set group =>   2
----------------------------------
AUXILIARY/JK BASIS SET INFORMATION
----------------------------------
There are 2 groups of distinct atoms

 Group   1 Type C   : 17s13p12d2f contracted to 17s13p12d2f pattern {11111111111111111/1111111111111/111111111111/11}
 Group   2 Type H   : 15s6p1d contracted to 15s6p1d pattern {111111111111111/111111/1}

Atom   0C    basis set group =>   1
Atom   1C    basis set group =>   1
Atom   2C    basis set group =>   1
Atom   3C    basis set group =>   1
Atom   4C    basis set group =>   1
Atom   5C    basis set group =>   1
Atom   6C    basis set group =>   1
Atom   7C    basis set group =>   1
Atom   8C    basis set group =>   1
Atom   9H    basis set group =>   2
Atom  10H    basis set group =>   2
Atom  11C    basis set group =>   1
Atom  12H    basis set group =>   2
Atom  13H    basis set group =>   2
Atom  14C    basis set group =>   1
Atom  15H    basis set group =>   2
Atom  16H    basis set group =>   2
Atom  17C    basis set group =>   1
Atom  18H    basis set group =>   2
Atom  19H    basis set group =>   2
Atom  20C    basis set group =>   1
Atom  21H    basis set group =>   2
Atom  22H    basis set group =>   2
Atom  23C    basis set group =>   1
Atom  24H    basis set group =>   2
Atom  25H    basis set group =>   2
Atom  26C    basis set group =>   1
Atom  27H    basis set group =>   2
Atom  28H    basis set group =>   2
Atom  29C    basis set group =>   1
Atom  30H    basis set group =>   2
Atom  31H    basis set group =>   2
Atom  32C    basis set group =>   1
Atom  33H    basis set group =>   2
Atom  34H    basis set group =>   2
Atom  35C    basis set group =>   1
Atom  36H    basis set group =>   2
Atom  37H    basis set group =>   2
Atom  38C    basis set group =>   1
Atom  39C    basis set group =>   1
Atom  40C    basis set group =>   1
Atom  41C    basis set group =>   1
Atom  42C    basis set group =>   1
Atom  43C    basis set group =>   1
Atom  44H    basis set group =>   2
Atom  45H    basis set group =>   2
Atom  46H    basis set group =>   2
Atom  47H    basis set group =>   2
Atom  48H    basis set group =>   2

Checking for AutoStart:
The File: EPRII_i.gbw exists
Trying to determine its content:
     ... Fine, the file contains calculation information
     ... Fine, the calculation information was read
     ... Fine, the file contains a basis set
     ... Fine, the basis set was read
     ... Fine, the file contains a geometry
     ... Fine, the geometry was read
     ... Fine, the file contains a set of orbitals
     ... Fine, the orbitals can be read
     => possible old guess file was deleted
     => GBW file was renamed to GES file
     => GES file is set as startup file
     => Guess is set to MORead
     ... now leaving AutoStart



           ************************************************************
           *        Program running with 16 parallel MPI-processes    *
           *              working on a common directory               *
           ************************************************************
------------------------------------------------------------------------------
                           ORCA GTO INTEGRAL CALCULATION
                           -- RI-GTO INTEGRALS CHOSEN --
------------------------------------------------------------------------------
------------------------------------------------------------------------------
                   ___                                                        
                  /   \      - P O W E R E D   B Y -                         
                 /     \                                                     
                 |  |  |   _    _      __       _____    __    __             
                 |  |  |  | |  | |    /  \     |  _  \  |  |  /  |          
                  \  \/   | |  | |   /    \    | | | |  |  | /  /          
                 / \  \   | |__| |  /  /\  \   | |_| |  |  |/  /          
                |  |  |   |  __  | /  /__\  \  |    /   |      \           
                |  |  |   | |  | | |   __   |  |    \   |  |\   \          
                \     /   | |  | | |  |  |  |  | |\  \  |  | \   \       
                 \___/    |_|  |_| |__|  |__|  |_| \__\ |__|  \__/        
                                                                              
                      - O R C A' S   B I G   F R I E N D -                    
                                      &                                       
                       - I N T E G R A L  F E E D E R -                       
                                                                              
 v1 FN, 2020, v2 2021                                                         
------------------------------------------------------------------------------


Reading SHARK input file EPRII_i.SHARKINP.tmp ... ok
----------------------
SHARK INTEGRAL PACKAGE
----------------------

Number of atoms                             ...     49
Number of basis functions                   ...    583
Number of shells                            ...    341
Maximum angular momentum                    ...      2
Integral batch strategy                     ... SHARK/LIBINT Hybrid
RI-J (if used) integral strategy            ... SPLIT-RIJ (Revised 2003 algorithm where possible)
Printlevel                                  ...      1
Contraction scheme used                     ... SEGMENTED contraction
Coulomb Range Separation                    ... NOT USED
Exchange Range Separation                   ... NOT USED
Finite Nucleus Model                        ... NOT USED
Auxiliary Coulomb fitting basis             ... AVAILABLE
   # of basis functions in Aux-J            ...   4070
   # of shells in Aux-J                     ...   1606
   Maximum angular momentum in Aux-J        ...      3
Auxiliary J/K fitting basis                 ... AVAILABLE
   # of basis functions in Aux-JK           ...   4070
   # of shells in Aux-JK                    ...   1606
   Maximum angular momentum in Aux-JK       ...      3
Auxiliary Correlation fitting basis         ... AVAILABLE
   # of basis functions in Aux-C            ...   4070
   # of shells in Aux-C                     ...   1606
   Maximum angular momentum in Aux-C        ...      3
Auxiliary 'external' fitting basis          ... NOT available
Integral threshold                          ...     1.000000e-10
Primitive cut-off                           ...     1.000000e-11
Primitive pair pre-selection threshold      ...     1.000000e-11

Calculating pre-screening integrals         ... done (  0.0 sec) Dimension = 341
Organizing shell pair data                  ... done (  0.2 sec)
Shell pair information
Total number of shell pairs                 ...     58311
Shell pairs after pre-screening             ...     29613
Total number of primitive shell pairs       ...    156979
Primitive shell pairs kept                  ...     55716
          la=0 lb=0:  13579 shell pairs
          la=1 lb=0:  10201 shell pairs
          la=1 lb=1:   1830 shell pairs
          la=2 lb=0:   2781 shell pairs
          la=2 lb=1:   1060 shell pairs
          la=2 lb=2:    162 shell pairs

Calculating one electron integrals          ... done (  0.0 sec)
Calculating RI/J V-Matrix + Cholesky decomp.... done (  1.0 sec)
Calculating RI/JK V-Matrix + Cholesky decomp... done (  1.0 sec)
Calculating RI/C V-Matrix + Cholesky decomp.... done (  1.0 sec)
Calculating Nuclear repulsion               ... done (  0.0 sec) ENN=   1725.261568441051 Eh

SHARK setup successfully completed in   3.6 seconds

Maximum memory used throughout the entire GTOINT-calculation: 59.5 MB


           ************************************************************
           *        Program running with 16 parallel MPI-processes    *
           *              working on a common directory               *
           ************************************************************
-------------------------------------------------------------------------------
                                 ORCA SCF
-------------------------------------------------------------------------------

------------
SCF SETTINGS
------------
Hamiltonian:
 Density Functional     Method          .... DFT(GTOs)
 Exchange Functional    Exchange        .... B88
   X-Alpha parameter    XAlpha          ....  0.666667
   Becke's b parameter  XBeta           ....  0.004200
 Correlation Functional Correlation     .... LYP
 LDA part of GGA corr.  LDAOpt          .... VWN-5
 Gradients option       PostSCFGGA      .... off
 Hybrid DFT is turned on
   Fraction HF Exchange ScalHFX         ....  0.200000
   Scaling of DF-GGA-X  ScalDFX         ....  0.720000
   Scaling of DF-GGA-C  ScalDFC         ....  0.810000
   Scaling of DF-LDA-C  ScalLDAC        ....  1.000000
   Perturbative correction              ....  0.000000
   Density functional embedding theory  .... OFF
   NL short-range parameter             ....  4.800000
 RI-approximation to the Coulomb term is turned on
   Number of AuxJ basis functions       .... 4070
   RIJ-COSX (HFX calculated with COS-X)).... on


General Settings:
 Integral files         IntName         .... EPRII_i
 Hartree-Fock type      HFTyp           .... UHF
 Total Charge           Charge          ....    0
 Multiplicity           Mult            ....    2
 Number of Electrons    NEL             ....  169
 Basis Dimension        Dim             ....  583
 Nuclear Repulsion      ENuc            ....   1725.2615684411 Eh

Convergence Acceleration:
 DIIS                   CNVDIIS         .... on
   Start iteration      DIISMaxIt       ....    12
   Startup error        DIISStart       ....  0.200000
   # of expansion vecs  DIISMaxEq       ....     5
   Bias factor          DIISBfac        ....   1.050
   Max. coefficient     DIISMaxC        ....  10.000
 Trust-Rad. Augm. Hess. CNVTRAH         .... auto
   Auto Start mean grad. ratio tolernc. ....  1.125000
   Auto Start start iteration           ....     1
   Auto Start num. interpolation iter.  ....    10
   Max. Number of Micro iterations      ....    16
   Max. Number of Macro iterations      .... Maxiter - #DIIS iter
   Number of Davidson start vectors     ....     2
   Converg. threshold I  (grad. norm)   ....   5.000e-05
   Converg. threshold II (energy diff.) ....   1.000e-06
   Grad. Scal. Fac. for Micro threshold ....   0.100
   Minimum threshold for Micro iter.    ....   0.010
   NR start threshold (gradient norm)   ....   0.001
   Initial trust radius                 ....   0.400
   Minimum AH scaling param. (alpha)    ....   1.000
   Maximum AH scaling param. (alpha)    .... 1000.000
   Orbital update algorithm             .... Taylor
   White noise on init. David. guess    .... on
   Maximum white noise                  ....   0.010
   Quad. conv. algorithm                .... NR
 SOSCF                  CNVSOSCF        .... off
 Level Shifting         CNVShift        .... on
   Level shift para.    LevelShift      ....    0.2500
   Turn off err/grad.   ShiftErr        ....    0.0010
 Zerner damping         CNVZerner       .... off
 Static damping         CNVDamp         .... on
   Fraction old density DampFac         ....    0.7000
   Max. Damping (<1)    DampMax         ....    0.9800
   Min. Damping (>=0)   DampMin         ....    0.0000
   Turn off err/grad.   DampErr         ....    0.1000
 Fernandez-Rico         CNVRico         .... off

SCF Procedure:
 Maximum # iterations   MaxIter         ....   125
 SCF integral mode      SCFMode         .... Direct
   Integral package                     .... SHARK and LIBINT hybrid scheme
 Reset frequency        DirectResetFreq ....    20
 Integral Threshold     Thresh          ....  1.000e-10 Eh
 Primitive CutOff       TCut            ....  1.000e-11 Eh

Convergence Tolerance:
 Convergence Check Mode ConvCheckMode   .... Total+1el-Energy
 Convergence forced     ConvForced      .... 0
 Energy Change          TolE            ....  1.000e-06 Eh
 1-El. energy change                    ....  1.000e-03 Eh
 DIIS Error             TolErr          ....  1.000e-06


Diagonalization of the overlap matrix:
Smallest eigenvalue                        ... 7.553e-05
Time for diagonalization                   ...    0.088 sec
Threshold for overlap eigenvalues          ... 1.000e-08
Number of eigenvalues below threshold      ... 0
Time for construction of square roots      ...    0.065 sec
Total time needed                          ...    0.154 sec

---------------------
INITIAL GUESS: MOREAD
---------------------
Guess MOs are being read from file: EPRII_i.ges
Input geometry compatible with but different from current geometry
Input basis set matches current basis set (good)
MOs were renormalized
MOs were reorthogonalized (Cholesky)
                      ------------------
                      INITIAL GUESS DONE (   0.3 sec)
                      ------------------
-------------------
DFT GRID GENERATION
-------------------

General Integration Accuracy     IntAcc      ... 4.388
Radial Grid Type                 RadialGrid  ... OptM3 with GC (2021)
Angular Grid (max. ang.)         AngularGrid ... 4 (Lebedev-302)
Angular grid pruning method      GridPruning ... 4 (adaptive)
Weight generation scheme         WeightScheme... Becke
Basis function cutoff            BFCut       ... 1.0000e-10
Integration weight cutoff        WCut        ... 1.0000e-14
Angular grids for H and He will be reduced by one unit
Partially contracted basis set               ... off
Rotationally invariant grid construction     ... off

Total number of grid points                  ...   223021
Total number of batches                      ...     3513
Average number of points per batch           ...       63
Average number of grid points per atom       ...     4551
Time for grid setup =    1.520 sec

--------------------
COSX GRID GENERATION
--------------------

GRIDX 1
-------
General Integration Accuracy     IntAcc      ... 3.816
Radial Grid Type                 RadialGrid  ... OptM3 with GC (2021)
Angular Grid (max. ang.)         AngularGrid ... 1 (Lebedev-50)
Angular grid pruning method      GridPruning ... 4 (adaptive)
Weight generation scheme         WeightScheme... Becke
Basis function cutoff            BFCut       ... 1.0000e-10
Integration weight cutoff        WCut        ... 1.0000e-14
Angular grids for H and He will be reduced by one unit
Partially contracted basis set               ... on
Rotationally invariant grid construction     ... off

Total number of grid points                  ...    28404
Total number of batches                      ...      470
Average number of points per batch           ...       60
Average number of grid points per atom       ...      580
UseSFitting                                  ... on

GRIDX 2
-------
General Integration Accuracy     IntAcc      ... 4.020
Radial Grid Type                 RadialGrid  ... OptM3 with GC (2021)
Angular Grid (max. ang.)         AngularGrid ... 2 (Lebedev-110)
Angular grid pruning method      GridPruning ... 4 (adaptive)
Weight generation scheme         WeightScheme... Becke
Basis function cutoff            BFCut       ... 1.0000e-10
Integration weight cutoff        WCut        ... 1.0000e-14
Angular grids for H and He will be reduced by one unit
Partially contracted basis set               ... on
Rotationally invariant grid construction     ... off

Total number of grid points                  ...    60562
Total number of batches                      ...      972
Average number of points per batch           ...       62
Average number of grid points per atom       ...     1236
UseSFitting                                  ... on

GRIDX 3
-------
General Integration Accuracy     IntAcc      ... 4.338
Radial Grid Type                 RadialGrid  ... OptM3 with GC (2021)
Angular Grid (max. ang.)         AngularGrid ... 3 (Lebedev-194)
Angular grid pruning method      GridPruning ... 4 (adaptive)
Weight generation scheme         WeightScheme... Becke
Basis function cutoff            BFCut       ... 1.0000e-10
Integration weight cutoff        WCut        ... 1.0000e-14
Angular grids for H and He will be reduced by one unit
Partially contracted basis set               ... on
Rotationally invariant grid construction     ... off

Total number of grid points                  ...   132522
Total number of batches                      ...     2093
Average number of points per batch           ...       63
Average number of grid points per atom       ...     2705
UseSFitting                                  ... on

Time for X-Grid setup             =    2.561 sec

--------------
SCF ITERATIONS
--------------
ITER       Energy         Delta-E        Max-DP      RMS-DP      [F,P]     Damp
               ***  Starting incremental Fock matrix formation  ***
  0   -928.9192768033   0.000000000000 0.00584303  0.00004671  0.0027615 0.7000
  1   -928.9194490937  -0.000172290383 0.00523405  0.00004050  0.0022294 0.7000
                               ***Turning on DIIS***
  2   -928.9195724604  -0.000123366672 0.01289043  0.00009961  0.0017000 0.0000
  3   -928.9198610727  -0.000288612304 0.00139228  0.00001213  0.0003348 0.0000
               *** Restarting incremental Fock matrix formation ***
                                   *** Resetting DIIS ***
  4   -928.9198555419   0.000005530763 0.00100946  0.00001224  0.0003857 0.0000
  5   -928.9198513091   0.000004232851 0.00067107  0.00000706  0.0004539 0.0000
  6   -928.9198624612  -0.000011152080 0.00017545  0.00000149  0.0000712 0.0000
  7   -928.9198627371  -0.000000275984 0.00009755  0.00000099  0.0000988 0.0000
                 **** Energy Check signals convergence ****

               *****************************************************
               *                     SUCCESS                       *
               *           SCF CONVERGED AFTER   8 CYCLES          *
               *****************************************************

Old exchange energy                            =    -26.592977544 Eh
New exchange energy                            =    -26.592958456 Eh
Exchange energy change after final integration =      0.000019089 Eh
Total energy after final integration           =   -928.919843688 Eh
Final COS-X integration done in                =     9.971 sec

----------------
TOTAL SCF ENERGY
----------------

Total Energy       :         -928.91984369 Eh          -25277.19401 eV

Components:
Nuclear Repulsion  :         1725.26156844 Eh           46946.75400 eV
Electronic Energy  :        -2654.18141213 Eh          -72223.94802 eV
One Electron Energy:        -4677.54430865 Eh         -127282.45155 eV
Two Electron Energy:         2023.36289652 Eh           55058.50353 eV
Max COSX asymmetry :            0.00000337 Eh               0.00009 eV

Virial components:
Potential Energy   :        -1850.46280666 Eh          -50353.65290 eV
Kinetic Energy     :          921.54296297 Eh           25076.45888 eV
Virial Ratio       :            2.00800492


DFT components:
N(Alpha)           :       85.000179246983 electrons
N(Beta)            :       84.000186590140 electrons
N(Total)           :      169.000365837123 electrons
E(X)               :     -105.506528030956 Eh       
E(C)               :       -6.572508534445 Eh       
E(XC)              :     -112.079036565401 Eh       
DFET-embed. en.    :        0.000000000000 Eh       

---------------
SCF CONVERGENCE
---------------

  Last Energy change         ...   -3.9772e-08  Tolerance :   1.0000e-06
  Last MAX-Density change    ...    0.0000e+00  Tolerance :   1.0000e-05
  Last RMS-Density change    ...    0.0000e+00  Tolerance :   1.0000e-06
  Last DIIS Error            ...    3.0922e-05  Tolerance :   1.0000e-06

             **** THE GBW FILE WAS UPDATED (EPRII_i.gbw) ****
             **** DENSITY EPRII_i.scfp WAS UPDATED ****
             **** ENERGY FILE WAS UPDATED (EPRII_i.en.tmp) ****
----------------------
UHF SPIN CONTAMINATION
----------------------

Warning: in a DFT calculation there is little theoretical justification to 
         calculate <S**2> as in Hartree-Fock theory. We will do it anyways
         but you should keep in mind that the values have only limited relevance

Expectation value of <S**2>     :     0.773691
Ideal value S*(S+1) for S=0.5   :     0.750000
Deviation                       :     0.023691

             **** THE GBW FILE WAS UPDATED (EPRII_i.gbw) ****
             **** DENSITY EPRII_i.scfp WAS UPDATED ****
----------------
ORBITAL ENERGIES
----------------
                 SPIN UP ORBITALS
  NO   OCC          E(Eh)            E(eV) 
   0   1.0000     -10.255628      -279.0698 
   1   1.0000     -10.248830      -278.8849 
   2   1.0000     -10.242915      -278.7239 
   3   1.0000     -10.234162      -278.4857 
   4   1.0000     -10.233718      -278.4736 
   5   1.0000     -10.230822      -278.3948 
   6   1.0000     -10.226587      -278.2796 
   7   1.0000     -10.226555      -278.2787 
   8   1.0000     -10.226400      -278.2745 
   9   1.0000     -10.225510      -278.2503 
  10   1.0000     -10.222676      -278.1732 
  11   1.0000     -10.222563      -278.1701 
  12   1.0000     -10.219025      -278.0738 
  13   1.0000     -10.217920      -278.0437 
  14   1.0000     -10.202205      -277.6161 
  15   1.0000     -10.193608      -277.3822 
  16   1.0000     -10.191232      -277.3175 
  17   1.0000     -10.189426      -277.2684 
  18   1.0000     -10.187883      -277.2264 
  19   1.0000     -10.187258      -277.2094 
  20   1.0000     -10.185122      -277.1513 
  21   1.0000     -10.183854      -277.1168 
  22   1.0000     -10.176423      -276.9145 
  23   1.0000     -10.173880      -276.8454 
  24   1.0000      -0.891980       -24.2720 
  25   1.0000      -0.881452       -23.9855 
  26   1.0000      -0.832071       -22.6418 
  27   1.0000      -0.814024       -22.1507 
  28   1.0000      -0.799859       -21.7653 
  29   1.0000      -0.795997       -21.6602 
  30   1.0000      -0.775499       -21.1024 
  31   1.0000      -0.770277       -20.9603 
  32   1.0000      -0.753664       -20.5082 
  33   1.0000      -0.737715       -20.0742 
  34   1.0000      -0.719068       -19.5668 
  35   1.0000      -0.706225       -19.2173 
  36   1.0000      -0.662909       -18.0387 
  37   1.0000      -0.658124       -17.9085 
  38   1.0000      -0.633637       -17.2421 
  39   1.0000      -0.630682       -17.1617 
  40   1.0000      -0.629189       -17.1211 
  41   1.0000      -0.602905       -16.4059 
  42   1.0000      -0.587189       -15.9782 
  43   1.0000      -0.574408       -15.6304 
  44   1.0000      -0.559179       -15.2160 
  45   1.0000      -0.525824       -14.3084 
  46   1.0000      -0.522826       -14.2268 
  47   1.0000      -0.501423       -13.6444 
  48   1.0000      -0.492134       -13.3917 
  49   1.0000      -0.481807       -13.1106 
  50   1.0000      -0.476457       -12.9651 
  51   1.0000      -0.475446       -12.9375 
  52   1.0000      -0.456338       -12.4176 
  53   1.0000      -0.447935       -12.1889 
  54   1.0000      -0.445199       -12.1145 
  55   1.0000      -0.435908       -11.8617 
  56   1.0000      -0.433413       -11.7938 
  57   1.0000      -0.428922       -11.6716 
  58   1.0000      -0.425698       -11.5838 
  59   1.0000      -0.418038       -11.3754 
  60   1.0000      -0.409519       -11.1436 
  61   1.0000      -0.403365       -10.9761 
  62   1.0000      -0.391818       -10.6619 
  63   1.0000      -0.382537       -10.4094 
  64   1.0000      -0.381394       -10.3783 
  65   1.0000      -0.374068       -10.1789 
  66   1.0000      -0.371974       -10.1219 
  67   1.0000      -0.369111       -10.0440 
  68   1.0000      -0.367175        -9.9914 
  69   1.0000      -0.356274        -9.6947 
  70   1.0000      -0.345653        -9.4057 
  71   1.0000      -0.339471        -9.2375 
  72   1.0000      -0.335399        -9.1267 
  73   1.0000      -0.332999        -9.0614 
  74   1.0000      -0.331782        -9.0283 
  75   1.0000      -0.328458        -8.9378 
  76   1.0000      -0.328323        -8.9341 
  77   1.0000      -0.311895        -8.4871 
  78   1.0000      -0.292962        -7.9719 
  79   1.0000      -0.278248        -7.5715 
  80   1.0000      -0.267224        -7.2715 
  81   1.0000      -0.263908        -7.1813 
  82   1.0000      -0.250835        -6.8256 
  83   1.0000      -0.245886        -6.6909 
  84   1.0000      -0.220860        -6.0099 
  85   0.0000      -0.083665        -2.2766 
  86   0.0000      -0.034433        -0.9370 
  87   0.0000      -0.033607        -0.9145 
  88   0.0000      -0.023038        -0.6269 
  89   0.0000       0.001467         0.0399 
  90   0.0000       0.014463         0.3935 
  91   0.0000       0.016284         0.4431 
  92   0.0000       0.021685         0.5901 
  93   0.0000       0.025603         0.6967 
  94   0.0000       0.028629         0.7790 
  95   0.0000       0.030981         0.8430 
  96   0.0000       0.042271         1.1503 
  97   0.0000       0.044942         1.2229 
  98   0.0000       0.047259         1.2860 
  99   0.0000       0.049750         1.3538 
 100   0.0000       0.057413         1.5623 
 101   0.0000       0.058357         1.5880 
 102   0.0000       0.067573         1.8387 
 103   0.0000       0.070060         1.9064 
 104   0.0000       0.075449         2.0531 
 105   0.0000       0.077332         2.1043 
 106   0.0000       0.095265         2.5923 
 107   0.0000       0.095544         2.5999 
 108   0.0000       0.096396         2.6231 
 109   0.0000       0.108593         2.9550 
 110   0.0000       0.115574         3.1449 
 111   0.0000       0.122678         3.3382 
 112   0.0000       0.134656         3.6642 
 113   0.0000       0.136284         3.7085 
 114   0.0000       0.143405         3.9022 
 115   0.0000       0.147663         4.0181 
 116   0.0000       0.156646         4.2626 
 117   0.0000       0.163918         4.4604 
 118   0.0000       0.169711         4.6181 
 119   0.0000       0.174717         4.7543 
 120   0.0000       0.176370         4.7993 
 121   0.0000       0.181969         4.9516 
 122   0.0000       0.186203         5.0668 
 123   0.0000       0.194350         5.2885 
 124   0.0000       0.194846         5.3020 
 125   0.0000       0.196981         5.3601 
 126   0.0000       0.197647         5.3783 
 127   0.0000       0.199462         5.4276 
 128   0.0000       0.207089         5.6352 
 129   0.0000       0.207791         5.6543 
 130   0.0000       0.210685         5.7330 
 131   0.0000       0.211512         5.7555 
 132   0.0000       0.214507         5.8370 
 133   0.0000       0.222698         6.0599 
 134   0.0000       0.229615         6.2481 
 135   0.0000       0.231776         6.3070 
 136   0.0000       0.233576         6.3559 
 137   0.0000       0.242078         6.5873 
 138   0.0000       0.243380         6.6227 
 139   0.0000       0.246055         6.6955 
 140   0.0000       0.249543         6.7904 
 141   0.0000       0.250753         6.8233 
 142   0.0000       0.256703         6.9852 
 143   0.0000       0.263524         7.1709 
 144   0.0000       0.264830         7.2064 
 145   0.0000       0.265921         7.2361 
 146   0.0000       0.276593         7.5265 
 147   0.0000       0.277039         7.5386 
 148   0.0000       0.277719         7.5571 
 149   0.0000       0.279823         7.6144 
 150   0.0000       0.280492         7.6326 
 151   0.0000       0.288241         7.8434 
 152   0.0000       0.290261         7.8984 
 153   0.0000       0.291563         7.9338 
 154   0.0000       0.295203         8.0329 
 155   0.0000       0.298016         8.1094 
 156   0.0000       0.301533         8.2051 
 157   0.0000       0.302493         8.2313 
 158   0.0000       0.303896         8.2694 
 159   0.0000       0.307441         8.3659 
 160   0.0000       0.310874         8.4593 
 161   0.0000       0.312848         8.5130 
 162   0.0000       0.315831         8.5942 
 163   0.0000       0.325132         8.8473 
 164   0.0000       0.329123         8.9559 
 165   0.0000       0.330871         9.0035 
 166   0.0000       0.333711         9.0807 
 167   0.0000       0.334397         9.0994 
 168   0.0000       0.340755         9.2724 
 169   0.0000       0.348948         9.4953 
 170   0.0000       0.355751         9.6805 
 171   0.0000       0.363632         9.8949 
 172   0.0000       0.364543         9.9197 
 173   0.0000       0.367880        10.0105 
 174   0.0000       0.369480        10.0541 
 175   0.0000       0.372348        10.1321 
 176   0.0000       0.383262        10.4291 
 177   0.0000       0.389288        10.5931 
 178   0.0000       0.398526        10.8444 
 179   0.0000       0.400283        10.8923 
 180   0.0000       0.405123        11.0240 
 181   0.0000       0.408882        11.1262 
 182   0.0000       0.409007        11.1297 
 183   0.0000       0.411843        11.2068 
 184   0.0000       0.415834        11.3154 
 185   0.0000       0.419063        11.4033 
 186   0.0000       0.422803        11.5050 
 187   0.0000       0.429718        11.6932 
 188   0.0000       0.431289        11.7360 
 189   0.0000       0.436022        11.8648 
 190   0.0000       0.436957        11.8902 
 191   0.0000       0.441970        12.0266 
 192   0.0000       0.445601        12.1254 
 193   0.0000       0.452094        12.3021 
 194   0.0000       0.457079        12.4377 
 195   0.0000       0.461102        12.5472 
 196   0.0000       0.464085        12.6284 
 197   0.0000       0.467340        12.7170 
 198   0.0000       0.469820        12.7844 
 199   0.0000       0.480339        13.0707 
 200   0.0000       0.484691        13.1891 
 201   0.0000       0.489337        13.3155 
 202   0.0000       0.494658        13.4603 
 203   0.0000       0.501850        13.6560 
 204   0.0000       0.502911        13.6849 
 205   0.0000       0.511500        13.9186 
 206   0.0000       0.511812        13.9271 
 207   0.0000       0.521369        14.1872 
 208   0.0000       0.526289        14.3210 
 209   0.0000       0.532580        14.4922 
 210   0.0000       0.539765        14.6878 
 211   0.0000       0.540950        14.7200 
 212   0.0000       0.541869        14.7450 
 213   0.0000       0.557514        15.1707 
 214   0.0000       0.563784        15.3413 
 215   0.0000       0.571792        15.5592 
 216   0.0000       0.581339        15.8191 
 217   0.0000       0.583869        15.8879 
 218   0.0000       0.586406        15.9569 
 219   0.0000       0.592311        16.1176 
 220   0.0000       0.598146        16.2764 
 221   0.0000       0.614211        16.7135 
 222   0.0000       0.621032        16.8991 
 223   0.0000       0.631536        17.1850 
 224   0.0000       0.644059        17.5257 
 225   0.0000       0.646334        17.5877 
 226   0.0000       0.650352        17.6970 
 227   0.0000       0.656946        17.8764 
 228   0.0000       0.659530        17.9467 
 229   0.0000       0.668461        18.1898 
 230   0.0000       0.693580        18.8733 
 231   0.0000       0.698531        19.0080 
 232   0.0000       0.707019        19.2390 
 233   0.0000       0.739927        20.1344 
 234   0.0000       0.756872        20.5955 
 235   0.0000       0.764312        20.7980 
 236   0.0000       0.775548        21.1037 
 237   0.0000       0.778879        21.1944 
 238   0.0000       0.789912        21.4946 
 239   0.0000       0.802077        21.8256 
 240   0.0000       0.815856        22.2006 
 241   0.0000       0.824244        22.4288 
 242   0.0000       0.833655        22.6849 
 243   0.0000       0.842780        22.9332 
 244   0.0000       0.843613        22.9559 
 245   0.0000       0.846918        23.0458 
 246   0.0000       0.851832        23.1795 
 247   0.0000       0.855080        23.2679 
 248   0.0000       0.863357        23.4931 
 249   0.0000       0.864809        23.5326 
 250   0.0000       0.878203        23.8971 
 251   0.0000       0.880689        23.9648 
 252   0.0000       0.889803        24.2128 
 253   0.0000       0.891352        24.2549 
 254   0.0000       0.897063        24.4103 
 255   0.0000       0.903630        24.5890 
 256   0.0000       0.905743        24.6465 
 257   0.0000       0.910130        24.7659 
 258   0.0000       0.920553        25.0495 
 259   0.0000       0.923001        25.1161 
 260   0.0000       0.928032        25.2530 
 261   0.0000       0.928238        25.2586 
 262   0.0000       0.930093        25.3091 
 263   0.0000       0.940009        25.5790 
 264   0.0000       0.940196        25.5840 
 265   0.0000       0.949757        25.8442 
 266   0.0000       0.955713        26.0063 
 267   0.0000       0.960121        26.1262 
 268   0.0000       0.966200        26.2916 
 269   0.0000       0.968851        26.3638 
 270   0.0000       0.974642        26.5214 
 271   0.0000       0.975915        26.5560 
 272   0.0000       0.978230        26.6190 
 273   0.0000       0.981571        26.7099 
 274   0.0000       0.985579        26.8190 
 275   0.0000       0.993911        27.0457 
 276   0.0000       0.997459        27.1422 
 277   0.0000       1.008189        27.4342 
 278   0.0000       1.009592        27.4724 
 279   0.0000       1.012673        27.5562 
 280   0.0000       1.019164        27.7329 
 281   0.0000       1.026235        27.9253 
 282   0.0000       1.027142        27.9500 
 283   0.0000       1.037405        28.2292 
 284   0.0000       1.038923        28.2705 
 285   0.0000       1.054104        28.6836 
 286   0.0000       1.058007        28.7898 
 287   0.0000       1.068036        29.0627 
 288   0.0000       1.076286        29.2872 
 289   0.0000       1.087788        29.6002 
 290   0.0000       1.093150        29.7461 
 291   0.0000       1.098931        29.9034 
 292   0.0000       1.104708        30.0606 
 293   0.0000       1.105179        30.0735 
 294   0.0000       1.114885        30.3376 
 295   0.0000       1.121171        30.5086 
 296   0.0000       1.122855        30.5544 
 297   0.0000       1.145643        31.1745 
 298   0.0000       1.150375        31.3033 
 299   0.0000       1.167992        31.7827 
 300   0.0000       1.168827        31.8054 
 301   0.0000       1.172782        31.9130 
 302   0.0000       1.176861        32.0240 
 303   0.0000       1.180158        32.1137 
 304   0.0000       1.195134        32.5213 
 305   0.0000       1.200973        32.6801 
 306   0.0000       1.205032        32.7906 
 307   0.0000       1.214085        33.0369 
 308   0.0000       1.225435        33.3458 
 309   0.0000       1.236292        33.6412 
 310   0.0000       1.242393        33.8072 
 311   0.0000       1.247078        33.9347 
 312   0.0000       1.262994        34.3678 
 313   0.0000       1.264157        34.3995 
 314   0.0000       1.280725        34.8503 
 315   0.0000       1.292206        35.1627 
 316   0.0000       1.296518        35.2800 
 317   0.0000       1.306806        35.5600 
 318   0.0000       1.311411        35.6853 
 319   0.0000       1.319215        35.8977 
 320   0.0000       1.326271        36.0897 
 321   0.0000       1.334999        36.3272 
 322   0.0000       1.336527        36.3687 
 323   0.0000       1.341817        36.5127 
 324   0.0000       1.358561        36.9683 
 325   0.0000       1.372953        37.3600 
 326   0.0000       1.382690        37.6249 
 327   0.0000       1.383023        37.6340 
 328   0.0000       1.397094        38.0169 
 329   0.0000       1.401907        38.1478 
 330   0.0000       1.406931        38.2845 
 331   0.0000       1.422459        38.7071 
 332   0.0000       1.424897        38.7734 
 333   0.0000       1.427241        38.8372 
 334   0.0000       1.427552        38.8457 
 335   0.0000       1.430061        38.9139 
 336   0.0000       1.445026        39.3212 
 337   0.0000       1.451343        39.4930 
 338   0.0000       1.451569        39.4992 
 339   0.0000       1.453246        39.5448 
 340   0.0000       1.473791        40.1039 
 341   0.0000       1.482808        40.3493 
 342   0.0000       1.484726        40.4014 
 343   0.0000       1.491895        40.5965 
 344   0.0000       1.502867        40.8951 
 345   0.0000       1.507325        41.0164 
 346   0.0000       1.510530        41.1036 
 347   0.0000       1.535336        41.7786 
 348   0.0000       1.537133        41.8275 
 349   0.0000       1.544865        42.0379 
 350   0.0000       1.546507        42.0826 
 351   0.0000       1.551198        42.2103 
 352   0.0000       1.555137        42.3174 
 353   0.0000       1.570022        42.7225 
 354   0.0000       1.575068        42.8598 
 355   0.0000       1.583492        43.0890 
 356   0.0000       1.584663        43.1209 
 357   0.0000       1.591343        43.3027 
 358   0.0000       1.596216        43.4353 
 359   0.0000       1.600939        43.5638 
 360   0.0000       1.604950        43.6729 
 361   0.0000       1.609990        43.8101 
 362   0.0000       1.614014        43.9196 
 363   0.0000       1.617986        44.0276 
 364   0.0000       1.623479        44.1771 
 365   0.0000       1.627399        44.2838 
 366   0.0000       1.632438        44.4209 
 367   0.0000       1.640791        44.6482 
 368   0.0000       1.643748        44.7287 
 369   0.0000       1.654436        45.0195 
 370   0.0000       1.666798        45.3559 
 371   0.0000       1.669167        45.4204 
 372   0.0000       1.674029        45.5526 
 373   0.0000       1.677749        45.6539 
 374   0.0000       1.682207        45.7752 
 375   0.0000       1.688566        45.9482 
 376   0.0000       1.696250        46.1573 
 377   0.0000       1.703246        46.3477 
 378   0.0000       1.707190        46.4550 
 379   0.0000       1.714410        46.6515 
 380   0.0000       1.732130        47.1336 
 381   0.0000       1.735014        47.2121 
 382   0.0000       1.737354        47.2758 
 383   0.0000       1.749146        47.5967 
 384   0.0000       1.751526        47.6614 
 385   0.0000       1.752185        47.6794 
 386   0.0000       1.757346        47.8198 
 387   0.0000       1.766952        48.0812 
 388   0.0000       1.777043        48.3558 
 389   0.0000       1.780875        48.4601 
 390   0.0000       1.782880        48.5146 
 391   0.0000       1.787579        48.6425 
 392   0.0000       1.795273        48.8519 
 393   0.0000       1.801058        49.0093 
 394   0.0000       1.820400        49.5356 
 395   0.0000       1.832252        49.8581 
 396   0.0000       1.833800        49.9002 
 397   0.0000       1.840404        50.0799 
 398   0.0000       1.842114        50.1265 
 399   0.0000       1.861153        50.6445 
 400   0.0000       1.866426        50.7880 
 401   0.0000       1.895933        51.5910 
 402   0.0000       1.905419        51.8491 
 403   0.0000       1.912069        52.0301 
 404   0.0000       1.927296        52.4444 
 405   0.0000       1.930863        52.5415 
 406   0.0000       1.932447        52.5845 
 407   0.0000       1.935294        52.6620 
 408   0.0000       1.942947        52.8703 
 409   0.0000       1.948898        53.0322 
 410   0.0000       1.958759        53.3005 
 411   0.0000       1.999874        54.4193 
 412   0.0000       2.002517        54.4913 
 413   0.0000       2.013559        54.7917 
 414   0.0000       2.026548        55.1452 
 415   0.0000       2.031629        55.2834 
 416   0.0000       2.055162        55.9238 
 417   0.0000       2.060944        56.0811 
 418   0.0000       2.079112        56.5755 
 419   0.0000       2.091023        56.8996 
 420   0.0000       2.109136        57.3925 
 421   0.0000       2.117218        57.6124 
 422   0.0000       2.131397        57.9983 
 423   0.0000       2.138115        58.1811 
 424   0.0000       2.141016        58.2600 
 425   0.0000       2.151146        58.5357 
 426   0.0000       2.168505        59.0080 
 427   0.0000       2.184686        59.4483 
 428   0.0000       2.206875        60.0521 
 429   0.0000       2.229333        60.6632 
 430   0.0000       2.233586        60.7790 
 431   0.0000       2.236478        60.8577 
 432   0.0000       2.250859        61.2490 
 433   0.0000       2.257799        61.4378 
 434   0.0000       2.260842        61.5206 
 435   0.0000       2.288725        62.2794 
 436   0.0000       2.304909        62.7198 
 437   0.0000       2.309324        62.8399 
 438   0.0000       2.316737        63.0416 
 439   0.0000       2.323964        63.2383 
 440   0.0000       2.325504        63.2802 
 441   0.0000       2.340392        63.6853 
 442   0.0000       2.348580        63.9081 
 443   0.0000       2.352277        64.0087 
 444   0.0000       2.384913        64.8968 
 445   0.0000       2.386342        64.9357 
 446   0.0000       2.397908        65.2504 
 447   0.0000       2.414493        65.7017 
 448   0.0000       2.418266        65.8044 
 449   0.0000       2.424080        65.9626 
 450   0.0000       2.440497        66.4093 
 451   0.0000       2.452327        66.7312 
 452   0.0000       2.452766        66.7431 
 453   0.0000       2.463498        67.0352 
 454   0.0000       2.463671        67.0399 
 455   0.0000       2.480804        67.5061 
 456   0.0000       2.481752        67.5319 
 457   0.0000       2.490935        67.7818 
 458   0.0000       2.492420        67.8222 
 459   0.0000       2.502598        68.0991 
 460   0.0000       2.510527        68.3149 
 461   0.0000       2.516958        68.4899 
 462   0.0000       2.526721        68.7556 
 463   0.0000       2.541667        69.1623 
 464   0.0000       2.552158        69.4478 
 465   0.0000       2.555412        69.5363 
 466   0.0000       2.562617        69.7324 
 467   0.0000       2.578048        70.1522 
 468   0.0000       2.592572        70.5475 
 469   0.0000       2.607396        70.9508 
 470   0.0000       2.608035        70.9682 
 471   0.0000       2.610183        71.0267 
 472   0.0000       2.618773        71.2604 
 473   0.0000       2.628238        71.5180 
 474   0.0000       2.676233        72.8240 
 475   0.0000       2.705119        73.6100 
 476   0.0000       2.733839        74.3915 
 477   0.0000       2.744863        74.6915 
 478   0.0000       2.773956        75.4832 
 479   0.0000       2.796697        76.1020 
 480   0.0000       2.820165        76.7406 
 481   0.0000       2.915916        79.3461 
 482   0.0000       3.036647        82.6314 
 483   0.0000       3.233334        87.9835 
 484   0.0000       3.403380        92.6107 
 485   0.0000       4.982739       135.5872 
 486   0.0000       4.987641       135.7206 
 487   0.0000       4.990588       135.8008 
 488   0.0000       5.005273       136.2004 
 489   0.0000       5.011631       136.3734 
 490   0.0000       5.012062       136.3851 
 491   0.0000       5.018833       136.5694 
 492   0.0000       5.030318       136.8819 
 493   0.0000       5.035243       137.0159 
 494   0.0000       5.042517       137.2139 
 495   0.0000       5.047568       137.3513 
 496   0.0000       5.073654       138.0611 
 497   0.0000       5.079639       138.2240 
 498   0.0000       5.155377       140.2849 
 499   0.0000       5.183947       141.0624 
 500   0.0000       5.215828       141.9299 
 501   0.0000       5.230619       142.3324 
 502   0.0000       5.234245       142.4310 
 503   0.0000       5.248222       142.8114 
 504   0.0000       5.268659       143.3675 
 505   0.0000       5.285847       143.8352 
 506   0.0000       5.301850       144.2707 
 507   0.0000       5.305689       144.3751 
 508   0.0000       5.309160       144.4696 
 509   0.0000       5.311543       144.5344 
 510   0.0000       5.351228       145.6143 
 511   0.0000       5.363339       145.9439 
 512   0.0000       5.370277       146.1327 
 513   0.0000       5.402638       147.0132 
 514   0.0000       5.438166       147.9800 
 515   0.0000       5.447517       148.2345 
 516   0.0000       5.468375       148.8020 
 517   0.0000       5.485258       149.2615 
 518   0.0000       5.549757       151.0166 
 519   0.0000       5.561212       151.3283 
 520   0.0000       5.573727       151.6688 
 521   0.0000       5.605260       152.5269 
 522   0.0000       5.626437       153.1031 
 523   0.0000       5.641365       153.5094 
 524   0.0000       5.661359       154.0534 
 525   0.0000       5.723580       155.7465 
 526   0.0000       5.733812       156.0250 
 527   0.0000       5.774425       157.1301 
 528   0.0000       5.817604       158.3051 
 529   0.0000       5.844851       159.0465 
 530   0.0000       5.864165       159.5720 
 531   0.0000       5.929252       161.3431 
 532   0.0000       6.141743       167.1253 
 533   0.0000       6.286456       171.0632 
 534   0.0000      29.576353       804.8135 
 535   0.0000      29.704254       808.2939 
 536   0.0000      29.792046       810.6828 
 537   0.0000      29.798061       810.8465 
 538   0.0000      29.825169       811.5841 
 539   0.0000      29.837325       811.9149 
 540   0.0000      29.914382       814.0117 
 541   0.0000      29.944796       814.8393 
 542   0.0000      29.974023       815.6346 
 543   0.0000      29.996418       816.2440 
 544   0.0000      30.023514       816.9813 
 545   0.0000      30.053607       817.8002 
 546   0.0000      30.065618       818.1271 
 547   0.0000      30.090319       818.7992 
 548   0.0000      30.108031       819.2812 
 549   0.0000      30.122000       819.6613 
 550   0.0000      30.150128       820.4267 
 551   0.0000      30.202318       821.8469 
 552   0.0000      30.230561       822.6154 
 553   0.0000      30.243539       822.9685 
 554   0.0000      30.268041       823.6353 
 555   0.0000      30.297072       824.4252 
 556   0.0000      30.449747       828.5797 
 557   0.0000      30.516561       830.3978 
 558   0.0000      36.609559       996.1967 
 559   0.0000      36.614192       996.3228 
 560   0.0000      36.622844       996.5583 
 561   0.0000      36.628191       996.7037 
 562   0.0000      36.635314       996.8976 
 563   0.0000      36.639616       997.0146 
 564   0.0000      36.655025       997.4339 
 565   0.0000      36.660297       997.5774 
 566   0.0000      36.666559       997.7478 
 567   0.0000      36.670903       997.8660 
 568   0.0000      36.689681       998.3770 
 569   0.0000      36.701966       998.7113 
 570   0.0000      36.772865      1000.6405 
 571   0.0000      36.810566      1001.6664 
 572   0.0000      36.823723      1002.0244 
 573   0.0000      36.851492      1002.7801 
 574   0.0000      36.862511      1003.0799 
 575   0.0000      36.877091      1003.4767 
 576   0.0000      36.882333      1003.6193 
 577   0.0000      36.926445      1004.8196 
 578   0.0000      36.931584      1004.9595 
 579   0.0000      36.936841      1005.1025 
 580   0.0000      36.994419      1006.6693 
 581   0.0000      37.023324      1007.4559 
 582   0.0000      37.026954      1007.5546 

                 SPIN DOWN ORBITALS
  NO   OCC          E(Eh)            E(eV) 
   0   1.0000     -10.252566      -278.9865 
   1   1.0000     -10.249296      -278.8975 
   2   1.0000     -10.243225      -278.7323 
   3   1.0000     -10.232111      -278.4299 
   4   1.0000     -10.231800      -278.4214 
   5   1.0000     -10.231711      -278.4190 
   6   1.0000     -10.227501      -278.3045 
   7   1.0000     -10.225962      -278.2626 
   8   1.0000     -10.225807      -278.2583 
   9   1.0000     -10.224875      -278.2330 
  10   1.0000     -10.222964      -278.1810 
  11   1.0000     -10.222841      -278.1776 
  12   1.0000     -10.219062      -278.0748 
  13   1.0000     -10.217402      -278.0297 
  14   1.0000     -10.202156      -277.6148 
  15   1.0000     -10.193739      -277.3857 
  16   1.0000     -10.191235      -277.3176 
  17   1.0000     -10.189427      -277.2684 
  18   1.0000     -10.187887      -277.2265 
  19   1.0000     -10.183855      -277.1168 
  20   1.0000     -10.183560      -277.1088 
  21   1.0000     -10.180787      -277.0333 
  22   1.0000     -10.176423      -276.9145 
  23   1.0000     -10.173881      -276.8454 
  24   1.0000      -0.888988       -24.1906 
  25   1.0000      -0.880611       -23.9626 
  26   1.0000      -0.829581       -22.5741 
  27   1.0000      -0.812421       -22.1071 
  28   1.0000      -0.799366       -21.7519 
  29   1.0000      -0.793257       -21.5856 
  30   1.0000      -0.775061       -21.0905 
  31   1.0000      -0.769740       -20.9457 
  32   1.0000      -0.750191       -20.4137 
  33   1.0000      -0.736864       -20.0511 
  34   1.0000      -0.710891       -19.3443 
  35   1.0000      -0.699313       -19.0293 
  36   1.0000      -0.662142       -18.0178 
  37   1.0000      -0.653193       -17.7743 
  38   1.0000      -0.630698       -17.1622 
  39   1.0000      -0.630127       -17.1466 
  40   1.0000      -0.628768       -17.1096 
  41   1.0000      -0.601602       -16.3704 
  42   1.0000      -0.587056       -15.9746 
  43   1.0000      -0.573873       -15.6159 
  44   1.0000      -0.558489       -15.1972 
  45   1.0000      -0.524151       -14.2629 
  46   1.0000      -0.520738       -14.1700 
  47   1.0000      -0.500497       -13.6192 
  48   1.0000      -0.491073       -13.3628 
  49   1.0000      -0.481729       -13.1085 
  50   1.0000      -0.475818       -12.9477 
  51   1.0000      -0.475095       -12.9280 
  52   1.0000      -0.455949       -12.4070 
  53   1.0000      -0.447103       -12.1663 
  54   1.0000      -0.445042       -12.1102 
  55   1.0000      -0.434028       -11.8105 
  56   1.0000      -0.432763       -11.7761 
  57   1.0000      -0.428785       -11.6678 
  58   1.0000      -0.424419       -11.5490 
  59   1.0000      -0.417877       -11.3710 
  60   1.0000      -0.408865       -11.1258 
  61   1.0000      -0.400136       -10.8883 
  62   1.0000      -0.387395       -10.5416 
  63   1.0000      -0.381920       -10.3926 
  64   1.0000      -0.380911       -10.3651 
  65   1.0000      -0.373987       -10.1767 
  66   1.0000      -0.371709       -10.1147 
  67   1.0000      -0.367024        -9.9872 
  68   1.0000      -0.366611        -9.9760 
  69   1.0000      -0.354038        -9.6339 
  70   1.0000      -0.339376        -9.2349 
  71   1.0000      -0.337912        -9.1951 
  72   1.0000      -0.335366        -9.1258 
  73   1.0000      -0.332720        -9.0538 
  74   1.0000      -0.331703        -9.0261 
  75   1.0000      -0.327962        -8.9243 
  76   1.0000      -0.327924        -8.9233 
  77   1.0000      -0.298010        -8.1093 
  78   1.0000      -0.292044        -7.9469 
  79   1.0000      -0.276752        -7.5308 
  80   1.0000      -0.262821        -7.1517 
  81   1.0000      -0.246084        -6.6963 
[...]
  Y          -0.0021059            0.9034963            0.4285906
  Z           0.9999977            0.0020939            0.0004994

Notes:  (1) The A matrix conforms to the "SAI" spin Hamiltonian convention.
        (2) Tensor is right-handed.

 -----------------------------------------------------------
 Nucleus  46H : A:ISTP=    1 I=  0.5 P=533.5514 MHz/au**3
                Q:ISTP=    2 I=  1.0 Q=  0.0029 barn     
 -----------------------------------------------------------
 Solving for nuclear perturbation:
Forming RHS of the CP-SCF equations         ... 
Calc. nucleus orbit integrals (SHARK)       ... done

------------------------------------------------------------------------------
                           ORCA CP-SCF CALCULATION
------------------------------------------------------------------------------

Input orbitals are from        ... EPRII_i.gbw
Input Perturbation             ... EPRII_i.pin.tmp
Wavefunction output            ... EPRII_i.pout.tmp
Perturbation mode              ... Imaginary perturbation
Solver                         ... POPLE
Max. number of iterations      ... 64
Convergence tolerance          ... 1.000e-03
Integral handling              ... Direct
DFT GridXC                     ... 1
COSX GridX                     ... 1
COSX IntAccX                   ... 3.067
COSX Algorithm                 ... Auto
Number of perturbations        ... 3
Number of operators            ... 2
Orbital ranges used for CP-SCF:
 Operator 0:  Orbitals   0... 84  to  85...582
 Operator 1:  Orbitals   0... 83  to  84...582
Variables per perturbation     ... 84246
DFT calculation                         ... on
XC functional terms                     ... off
Hybrid DFT                              ... on
   Exchange mixing (SCF)                ...  0.200
   Exchange mixing (CP-SCF)             ...  0.200
   GGA exch. scaling(SCF)               ...  0.720
   GGA exch. scaling (CP-SCF)           ...  0.720
   GGA corr. scaling (SCF)              ...  0.810
   GGA corr. scaling (CP-SCF)           ...  0.810

CP-SCF GRID
-----------

General Integration Accuracy     IntAcc      ... 3.467
Radial Grid Type                 RadialGrid  ... OptM3 with GC (2021)
Angular Grid (max. ang.)         AngularGrid ... 1 (Lebedev-50)
Angular grid pruning method      GridPruning ... 4 (adaptive)
Weight generation scheme         WeightScheme... Becke
Basis function cutoff            BFCut       ... 1.0000e-10
Integration weight cutoff        WCut        ... 1.0000e-14
Angular grids for H and He will be reduced by one unit
Partially contracted basis set               ... off
Rotationally invariant grid construction     ... off

Total number of grid points                  ...    31844
Total number of batches                      ...      521
Average number of points per batch           ...       61
Average number of grid points per atom       ...      650

CP-SCF GRIDX
------------

General Integration Accuracy     IntAcc      ... 3.067
Radial Grid Type                 RadialGrid  ... OptM3 with GC (2021)
Angular Grid (max. ang.)         AngularGrid ... 1 (Lebedev-50)
Angular grid pruning method      GridPruning ... 4 (adaptive)
Weight generation scheme         WeightScheme... Becke
Basis function cutoff            BFCut       ... 1.0000e-10
Integration weight cutoff        WCut        ... 1.0000e-14
Angular grids for H and He will be reduced by one unit
Partially contracted basis set               ... on
Rotationally invariant grid construction     ... off

Total number of grid points                  ...    14939
Total number of batches                      ...      263
Average number of points per batch           ...       56
Average number of grid points per atom       ...      305

Memory available               ... 849.6 MB
Memory needed per perturbation ...  20.0 MB
Perturbations treated per batch... 3
Number of batches              ... 1
     CP-SCF ITERATION   0:   4.6404e-02 (   2.3 sec   0/  3 done)
     CP-SCF ITERATION   1:   2.1623e-03 (   2.3 sec   0/  3 done)
     CP-SCF ITERATION   2:   4.2402e-04 (   2.3 sec   3/  3 done)
                    *** THE CP-SCF HAS CONVERGED ***

Forming final perturbed densities           ... done
Transforming perturbed density to AO basis  ... done

 Raw HFC matrix (all values in MHz): 
 -----------------------------------
                -3.3121               0.7846               0.0018
                 0.7845              -1.8653               0.0036
                 0.0018               0.0036              -3.5074

 A(FC)          -2.8955              -2.8955              -2.8955
 A(SD)           1.3737              -0.6119              -0.7619
 A(ORB+DIA)      0.0002              -0.0001               0.0014    A(PC) =   0.0005
 A(ORB)         -0.0001               0.0000               0.0014    A(PC) =   0.0004
 A(DIA)          0.0003              -0.0001               0.0001    A(PC) =   0.0001
             ----------           ----------           ----------
 A(Tot)         -1.5216              -3.5074              -3.6559    A(iso)=   -2.8950
 Orientation: 
  X           0.4013423            0.0001782            0.9159281
  Y           0.9159259           -0.0023069           -0.4013408
  Z           0.0020414            0.9999973           -0.0010890

Notes:  (1) The A matrix conforms to the "SAI" spin Hamiltonian convention.
        (2) Tensor is right-handed.

 -----------------------------------------------------------
 Nucleus  47H : A:ISTP=    1 I=  0.5 P=533.5514 MHz/au**3
                Q:ISTP=    2 I=  1.0 Q=  0.0029 barn     
 -----------------------------------------------------------
 Solving for nuclear perturbation:
Forming RHS of the CP-SCF equations         ... 
Calc. nucleus orbit integrals (SHARK)       ... done

------------------------------------------------------------------------------
                           ORCA CP-SCF CALCULATION
------------------------------------------------------------------------------

Input orbitals are from        ... EPRII_i.gbw
Input Perturbation             ... EPRII_i.pin.tmp
Wavefunction output            ... EPRII_i.pout.tmp
Perturbation mode              ... Imaginary perturbation
Solver                         ... POPLE
Max. number of iterations      ... 64
Convergence tolerance          ... 1.000e-03
Integral handling              ... Direct
DFT GridXC                     ... 1
COSX GridX                     ... 1
COSX IntAccX                   ... 3.067
COSX Algorithm                 ... Auto
Number of perturbations        ... 3
Number of operators            ... 2
Orbital ranges used for CP-SCF:
 Operator 0:  Orbitals   0... 84  to  85...582
 Operator 1:  Orbitals   0... 83  to  84...582
Variables per perturbation     ... 84246
DFT calculation                         ... on
XC functional terms                     ... off
Hybrid DFT                              ... on
   Exchange mixing (SCF)                ...  0.200
   Exchange mixing (CP-SCF)             ...  0.200
   GGA exch. scaling(SCF)               ...  0.720
   GGA exch. scaling (CP-SCF)           ...  0.720
   GGA corr. scaling (SCF)              ...  0.810
   GGA corr. scaling (CP-SCF)           ...  0.810

CP-SCF GRID
-----------

General Integration Accuracy     IntAcc      ... 3.467
Radial Grid Type                 RadialGrid  ... OptM3 with GC (2021)
Angular Grid (max. ang.)         AngularGrid ... 1 (Lebedev-50)
Angular grid pruning method      GridPruning ... 4 (adaptive)
Weight generation scheme         WeightScheme... Becke
Basis function cutoff            BFCut       ... 1.0000e-10
Integration weight cutoff        WCut        ... 1.0000e-14
Angular grids for H and He will be reduced by one unit
Partially contracted basis set               ... off
Rotationally invariant grid construction     ... off

Total number of grid points                  ...    31844
Total number of batches                      ...      521
Average number of points per batch           ...       61
Average number of grid points per atom       ...      650

CP-SCF GRIDX
------------

General Integration Accuracy     IntAcc      ... 3.067
Radial Grid Type                 RadialGrid  ... OptM3 with GC (2021)
Angular Grid (max. ang.)         AngularGrid ... 1 (Lebedev-50)
Angular grid pruning method      GridPruning ... 4 (adaptive)
Weight generation scheme         WeightScheme... Becke
Basis function cutoff            BFCut       ... 1.0000e-10
Integration weight cutoff        WCut        ... 1.0000e-14
Angular grids for H and He will be reduced by one unit
Partially contracted basis set               ... on
Rotationally invariant grid construction     ... off

Total number of grid points                  ...    14939
Total number of batches                      ...      263
Average number of points per batch           ...       56
Average number of grid points per atom       ...      305

Memory available               ... 848.9 MB
Memory needed per perturbation ...  20.0 MB
Perturbations treated per batch... 3
Number of batches              ... 1
     CP-SCF ITERATION   0:   4.6403e-02 (   2.3 sec   0/  3 done)
     CP-SCF ITERATION   1:   2.1550e-03 (   2.3 sec   0/  3 done)
     CP-SCF ITERATION   2:   4.2238e-04 (   2.2 sec   3/  3 done)
                    *** THE CP-SCF HAS CONVERGED ***

Forming final perturbed densities           ... done
Transforming perturbed density to AO basis  ... done

 Raw HFC matrix (all values in MHz): 
 -----------------------------------
                -3.4517              -0.6343              -0.0010
                -0.6342              -1.7253               0.0036
                -0.0010               0.0036              -3.4992

 A(FC)          -2.8926              -2.8926              -2.8926
 A(SD)           1.3751              -0.6065              -0.7685
 A(ORB+DIA)      0.0002              -0.0001               0.0015    A(PC) =   0.0005
 A(ORB)         -0.0001               0.0000               0.0014    A(PC) =   0.0005
 A(DIA)          0.0003              -0.0001               0.0001    A(PC) =   0.0001
             ----------           ----------           ----------
 A(Tot)         -1.5173              -3.4992              -3.6596    A(iso)=   -2.8920
 Orientation: 
  X          -0.3115715            0.0014641            0.9502216
  Y           0.9502208           -0.0015280            0.3115736
  Z           0.0019081            0.9999978           -0.0009152

Notes:  (1) The A matrix conforms to the "SAI" spin Hamiltonian convention.
        (2) Tensor is right-handed.

 -----------------------------------------------------------
 Nucleus  48H : A:ISTP=    1 I=  0.5 P=533.5514 MHz/au**3
                Q:ISTP=    2 I=  1.0 Q=  0.0029 barn     
 -----------------------------------------------------------
 Solving for nuclear perturbation:
Forming RHS of the CP-SCF equations         ... 
Calc. nucleus orbit integrals (SHARK)       ... done

------------------------------------------------------------------------------
                           ORCA CP-SCF CALCULATION
------------------------------------------------------------------------------

Input orbitals are from        ... EPRII_i.gbw
Input Perturbation             ... EPRII_i.pin.tmp
Wavefunction output            ... EPRII_i.pout.tmp
Perturbation mode              ... Imaginary perturbation
Solver                         ... POPLE
Max. number of iterations      ... 64
Convergence tolerance          ... 1.000e-03
Integral handling              ... Direct
DFT GridXC                     ... 1
COSX GridX                     ... 1
COSX IntAccX                   ... 3.067
COSX Algorithm                 ... Auto
Number of perturbations        ... 3
Number of operators            ... 2
Orbital ranges used for CP-SCF:
 Operator 0:  Orbitals   0... 84  to  85...582
 Operator 1:  Orbitals   0... 83  to  84...582
Variables per perturbation     ... 84246
DFT calculation                         ... on
XC functional terms                     ... off
Hybrid DFT                              ... on
   Exchange mixing (SCF)                ...  0.200
   Exchange mixing (CP-SCF)             ...  0.200
   GGA exch. scaling(SCF)               ...  0.720
   GGA exch. scaling (CP-SCF)           ...  0.720
   GGA corr. scaling (SCF)              ...  0.810
   GGA corr. scaling (CP-SCF)           ...  0.810

CP-SCF GRID
-----------

General Integration Accuracy     IntAcc      ... 3.467
Radial Grid Type                 RadialGrid  ... OptM3 with GC (2021)
Angular Grid (max. ang.)         AngularGrid ... 1 (Lebedev-50)
Angular grid pruning method      GridPruning ... 4 (adaptive)
Weight generation scheme         WeightScheme... Becke
Basis function cutoff            BFCut       ... 1.0000e-10
Integration weight cutoff        WCut        ... 1.0000e-14
Angular grids for H and He will be reduced by one unit
Partially contracted basis set               ... off
Rotationally invariant grid construction     ... off

Total number of grid points                  ...    31844
Total number of batches                      ...      521
Average number of points per batch           ...       61
Average number of grid points per atom       ...      650

CP-SCF GRIDX
------------

General Integration Accuracy     IntAcc      ... 3.067
Radial Grid Type                 RadialGrid  ... OptM3 with GC (2021)
Angular Grid (max. ang.)         AngularGrid ... 1 (Lebedev-50)
Angular grid pruning method      GridPruning ... 4 (adaptive)
Weight generation scheme         WeightScheme... Becke
Basis function cutoff            BFCut       ... 1.0000e-10
Integration weight cutoff        WCut        ... 1.0000e-14
Angular grids for H and He will be reduced by one unit
Partially contracted basis set               ... on
Rotationally invariant grid construction     ... off

Total number of grid points                  ...    14939
Total number of batches                      ...      263
Average number of points per batch           ...       56
Average number of grid points per atom       ...      305

Memory available               ... 848.2 MB
Memory needed per perturbation ...  20.0 MB
Perturbations treated per batch... 3
Number of batches              ... 1
     CP-SCF ITERATION   0:   4.2203e-02 (   2.2 sec   0/  3 done)
     CP-SCF ITERATION   1:   1.7837e-03 (   2.3 sec   0/  3 done)
     CP-SCF ITERATION   2:   2.0338e-04 (   2.3 sec   3/  3 done)
                    *** THE CP-SCF HAS CONVERGED ***

Forming final perturbed densities           ... done
Transforming perturbed density to AO basis  ... done

 Raw HFC matrix (all values in MHz): 
 -----------------------------------
                 1.8376               0.3057               0.0009
                 0.3055               1.1326               0.0006
                 0.0009               0.0006               0.8324

 A(FC)           1.2675               1.2675               1.2675
 A(SD)          -0.4352              -0.2492               0.6844
 A(ORB+DIA)      0.0000               0.0002              -0.0003    A(PC) =  -0.0000
 A(ORB)         -0.0000               0.0002              -0.0004    A(PC) =  -0.0001
 A(DIA)          0.0001               0.0000               0.0001    A(PC) =   0.0001
             ----------           ----------           ----------
 A(Tot)          0.8324               1.0185               1.9516    A(iso)=    1.2675
 Orientation: 
  X          -0.0004285           -0.3496118           -0.9368946
  Y          -0.0015662            0.9368937           -0.3496107
  Z           0.9999987            0.0013176           -0.0009490

Notes:  (1) The A matrix conforms to the "SAI" spin Hamiltonian convention.
        (2) Tensor is right-handed.


--------------------------------------------------------------------------------
----------------------------------------------------------------------------
                           ORCA EULER ANGLE PROGRAM
----------------------------------------------------------------------------

Only g-tensor available        -->  using g-tensor as reference tensor

Reference tensor               ...  g

g-tensor ordering              ...  |g_min> --> |gx>
                                    |g_mid> --> |gy>
                                    |g_max> --> |gz>

A- and EFG-tensor ordering     ...  the axes |Ax>, |Qx>, |Ay>, etc. are assigned
                                    such that the Euler rotation is minimal. You
                                    can find the respective eigenvalues as Ax,
                                    EFGx, Ay, etc. in the tables below.
                                    The relation of |Ax>, |Ay>,  etc. to Amin, Amid, etc.
                                    (as printed in the ORCA EPR/NMR CALCULATION Output)
                                    is obtained in the detailed printout.

Euler rotation around          ...  z - y - z
   First rotation              -->  by alpha around z
   Second rotation             -->  by beta around y'
   Third rotation              -->  by gamma around z''
   Positive / Negative angle   -->  clockwise / counterclockwise rotation

Plot EFG-tensors                    (-)
Plot HFC-tensors                    (-)
Detailed Printout                   (-)

-------------------------------------------------------------------------
          Euler rotation of hyperfine tensor to g-tensor
-------------------------------------------------------------------------

-------------------------------------------------------------------
 Atom  |   Alpha    Beta    Gamma   |   Ax       Ay       Az 
       |          [degrees]         |           [MHz]         
-------------------------------------------------------------------
  9H       90.4     36.8    -90.3       2.75     3.57     6.76
 10H       90.5     19.2    -90.4     -10.33    -3.92   -11.07
 12H       56.1     14.8    -39.4      12.53    17.24    14.15
 13H      125.0     15.2   -141.6      12.51    17.22    14.12
 15H       77.2     29.1    -62.9      -0.96     0.86    -0.75
 16H      103.8     29.3   -118.0      -0.96     0.86    -0.75
 18H      136.6      6.0   -145.8      -0.38     0.86    -0.29
 19H       47.7      5.5    -38.4      -0.38     0.86    -0.29
 21H       93.1     16.6   -100.9      -0.18     0.38    -0.11
 22H       88.8     16.6    -81.0      -0.18     0.38    -0.11
 24H      -97.6     26.9    112.9      -5.17    -3.56    -4.43
 25H      -83.6     26.6     68.3      -5.17    -3.55    -4.43
 27H      -83.3     25.9     70.7      -0.16     1.49     0.04
 28H      -98.0     26.1    110.5      -0.16     1.49     0.04
 30H      -95.0     28.1    104.8      -0.31     0.28    -0.16
 31H      -86.1     28.0     76.3      -0.31     0.28    -0.15
 33H      -91.2     15.1     98.7      -0.21     0.32    -0.14
 34H      -91.1     15.0     83.5      -0.21     0.32    -0.14
 36H       92.5      7.3    -92.5      -0.18     0.29    -0.14
 37H      -90.9     19.0     90.9      -0.14     0.21    -0.09
 44H     -102.2      1.3    102.2      -3.38    -5.16    -1.22
 45H      -90.6     24.2     90.6       0.83     1.02     1.94
 46H      -90.8     22.5     90.7      -3.51    -1.52    -3.66
 47H       91.1     19.3    -91.1      -3.50    -1.52    -3.66
 48H       90.7     21.7    -90.7       0.83     1.02     1.95
-------------------------------------------------------------------


Maximum memory used throughout the entire EPRNMR-calculation: 283.3 MB

Timings for individual modules:

Sum of individual times         ...     5506.253 sec (=  91.771 min)
GTO integral calculation        ...        6.009 sec (=   0.100 min)   0.1 %
Spin-Orbit-Coupling Matrices    ...       14.579 sec (=   0.243 min)   0.3 %
SCF iterations                  ...       83.191 sec (=   1.387 min)   1.5 %
EPR/NMR calculation             ...     5402.473 sec (=  90.041 min)  98.1 %
                             ****ORCA TERMINATED NORMALLY****
TOTAL RUN TIME: 0 days 1 hours 31 minutes 50 seconds 599 msec
