
                                 *****************
                                 * O   R   C   A *
                                 *****************

           --- An Ab Initio, DFT and Semiempirical electronic structure package ---

                  #######################################################
                  #                        -***-                        #
                  #          Department of theory and spectroscopy      #
                  #               Directorship: Frank Neese             #
                  #        Max Planck Institute fuer Kohlenforschung    #
                  #                Kaiser Wilhelm Platz 1               #
                  #                 D-45470 Muelheim/Ruhr               #
                  #                      Germany                        #
                  #                                                     #
                  #                  All rights reserved                #
                  #                        -***-                        #
                  #######################################################


                         Program Version 4.2.1 -  RELEASE  -


 With contributions from (in alphabetic order):
   Daniel Aravena         : Magnetic Suceptibility
   Michael Atanasov       : Ab Initio Ligand Field Theory (pilot matlab implementation)
   Alexander A. Auer      : GIAO ZORA, VPT2
   Ute Becker             : Parallelization
   Giovanni Bistoni       : ED, misc. LED, open-shell LED, HFLD
   Martin Brehm           : Molecular dynamics
   Dmytro Bykov           : SCF Hessian
   Vijay G. Chilkuri      : MRCI spin determinant printing, contributions to CSF-ICE
   Dipayan Datta          : RHF DLPNO-CCSD density
   Achintya Kumar Dutta   : EOM-CC, STEOM-CC
   Dmitry Ganyushin       : Spin-Orbit,Spin-Spin,Magnetic field MRCI
   Miquel Garcia          : C-PCM Hessian, Gaussian charge scheme
   Yang Guo               : DLPNO-NEVPT2, CIM, IAO-localization
   Andreas Hansen         : Spin unrestricted coupled pair/coupled cluster methods
   Benjamin Helmich-Paris : CASSCF linear response (MC-RPA)
   Lee Huntington         : MR-EOM, pCC
   Robert Izsak           : Overlap fitted RIJCOSX, COSX-SCS-MP3, EOM
   Christian Kollmar      : KDIIS, OOCD, Brueckner-CCSD(T), CCSD density
   Simone Kossmann        : Meta GGA functionals, TD-DFT gradient, OOMP2, MP2 Hessian
   Martin Krupicka        : AUTO-CI
   Lucas Lang             : DCDCAS
   Dagmar Lenk            : GEPOL surface, SMD
   Dimitrios Liakos       : Extrapolation schemes; Compound Job, initial MDCI parallelization
   Dimitrios Manganas     : Further ROCIS development; embedding schemes
   Dimitrios Pantazis     : SARC Basis sets
   Taras Petrenko         : DFT Hessian,TD-DFT gradient, ASA, ECA, R-Raman, ABS, FL, XAS/XES, NRVS
   Peter Pinski           : DLPNO-MP2, DLPNO-MP2 Gradient
   Christoph Reimann      : Effective Core Potentials
   Marius Retegan         : Local ZFS, SOC
   Christoph Riplinger    : Optimizer, TS searches, QM/MM, DLPNO-CCSD(T), (RO)-DLPNO pert. Triples
   Tobias Risthaus        : Range-separated hybrids, TD-DFT gradient, RPA, STAB
   Michael Roemelt        : Original ROCIS implementation
   Masaaki Saitow         : Open-shell DLPNO-CCSD energy and density
   Barbara Sandhoefer     : DKH picture change effects
   Avijit Sen             : IP-ROCIS
   Kantharuban Sivalingam : CASSCF convergence, NEVPT2, FIC-MRCI
   Bernardo de Souza      : ESD, SOC TD-DFT
   Georgi Stoychev        : AutoAux, RI-MP2 NMR
   Willem Van den Heuvel  : Paramagnetic NMR
   Boris Wezisla          : Elementary symmetry handling
   Frank Wennmohs         : Technical directorship


 We gratefully acknowledge several colleagues who have allowed us to
 interface, adapt or use parts of their codes:
   Stefan Grimme, W. Hujo, H. Kruse,             : VdW corrections, initial TS optimization,
                  C. Bannwarth                     DFT functionals, gCP, sTDA/sTD-DF
   Ed Valeev, F. Pavosevic, A. Kumar             : LibInt (2-el integral package), F12 methods
   Garnet Chan, S. Sharma, J. Yang, R. Olivares  : DMRG
   Ulf Ekstrom                                   : XCFun DFT Library
   Mihaly Kallay                                 : mrcc  (arbitrary order and MRCC methods)
   Andreas Klamt, Michael Diedenhofen            : otool_cosmo (COSMO solvation model)
   Jiri Pittner, Ondrej Demel                    : Mk-CCSD
   Frank Weinhold                                : gennbo (NPA and NBO analysis)
   Christopher J. Cramer and Donald G. Truhlar   : smd solvation model
   Lars Goerigk                                  : TD-DFT with DH, B97 family of functionals
   V. Asgeirsson, H. Jonsson                     : NEB implementation
   FAccTs GmbH                                   : IRC, NEB, NEB-TS, Multilevel, MM, QM/MM, CI optimization
   S Lehtola, MJT Oliveira, MAL Marques          : LibXC Library


 Your calculation uses the libint2 library for the computation of 2-el integrals
 For citations please refer to: http://libint.valeyev.net

 Your ORCA version has been built with support for libXC version: 4.2.3
 For citations please refer to: https://tddft.org/programs/libxc/

 This ORCA versions uses:
   CBLAS   interface :  Fast vector & matrix operations
   LAPACKE interface :  Fast linear algebra routines
   SCALAPACK package :  Parallel linear algebra routines




***************************************
The coordinates will be read from file: model.xyz
***************************************


----- Orbital basis set information -----
Your calculation utilizes the basis: cc-pVDZ 
       H, B-Ne : Obtained from the ccRepo (grant-hill.group.shef.ac.uk/ccrepo) Feb. 2017
                 T. H. Dunning, Jr., J. Chem. Phys. 90, 1007 (1989)
            He : Obtained from the ccRepo (grant-hill.group.shef.ac.uk/ccrepo) Feb. 2017
                 D. E. Woon, T. H. Dunning, Jr., J. Chem. Phys. 100, 2975 (1994)
  Li-Be, Na-Mg : Obtained from the ccRepo (grant-hill.group.shef.ac.uk/ccrepo) Feb. 2017
                 B. P. Prascher, D. E. Woon, K. A. Peterson, T. H. Dunning, Jr., A. K. Wilson, Theor. Chem. Acc. 128, 69 (2011)
         Al-Ar : Obtained from the ccRepo (grant-hill.group.shef.ac.uk/ccrepo) Feb. 2017
                 D. E. Woon, T. H. Dunning, Jr., J. Chem. Phys. 98, 1358 (1993)
            Ca : Obtained from the Peterson Research Group Website (tyr0.chem.wsu.edu/~kipeters) Feb. 2017
                 J. Koput, K. A. Peterson, J. Phys. Chem. 106, 9595 (2002)
         Sc-Zn : Obtained from the ccRepo (grant-hill.group.shef.ac.uk/ccrepo) Feb. 2017
                 N. B. Balabanov, K. A. Peterson, J. Chem. Phys. 123, 064107 (2005)
                 N. B. Balabanov, K. A. Peterson, J. Chem. Phys. 125, 074110 (2006)
         Ga-Kr : Obtained from the ccRepo (grant-hill.group.shef.ac.uk/ccrepo) Feb. 2017
                 A. K. Wilson, D. E. Woon, K. A. Peterson, T. H. Dunning, Jr., J. Chem. Phys. 110, 7667 (1999)

================================================================================
                                        WARNINGS
                       Please study these warnings very carefully!
================================================================================


WARNING: your system is open-shell and RHF/RKS was chosen
  ===> : WILL SWITCH to UHF/UKS


WARNING: Geometry Optimization
  ===> : Switching off AutoStart
         For restart on a previous wavefunction, please use MOREAD

INFO   : the flag for use of LIBINT has been found!

================================================================================
                                       INPUT FILE
================================================================================
NAME = opt.inp
|  1> ! B3LYP cc-pVDZ OPT
|  2> %pal nprocs 16 end
|  3> *XYZFile 0 2 model.xyz
|  4> 
|  5>                          ****END OF INPUT****
================================================================================

                       *****************************
                       * Geometry Optimization Run *
                       *****************************

Geometry optimization settings:
Update method            Update   .... BFGS
Choice of coordinates    CoordSys .... Z-matrix Internals
Initial Hessian          InHess   .... Almoef's Model

Convergence Tolerances:
Energy Change            TolE     ....  5.0000e-06 Eh
Max. Gradient            TolMAXG  ....  3.0000e-04 Eh/bohr
RMS Gradient             TolRMSG  ....  1.0000e-04 Eh/bohr
Max. Displacement        TolMAXD  ....  4.0000e-03 bohr
RMS Displacement         TolRMSD  ....  2.0000e-03 bohr
Strict Convergence                ....  False
------------------------------------------------------------------------------
                        ORCA OPTIMIZATION COORDINATE SETUP
------------------------------------------------------------------------------

The optimization will be done in new redundant internal coordinates
Making redundant internal coordinates   ...  (new redundants) done
Evaluating the initial hessian          ...  (Almloef) done
Evaluating the coordinates              ...  done
Calculating the B-matrix                .... done
Calculating the G-matrix                .... done
Diagonalizing the G-matrix              .... done
Small eigenvalue found = 7.156e-04
Small eigenvalue found = 1.980e-03
Small eigenvalue found = 6.852e-03
Small eigenvalue found = 8.924e-03
Small eigenvalue found = 1.973e-02
Small eigenvalue found = 2.138e-02
Small eigenvalue found = 2.374e-02
Small eigenvalue found = 2.750e-02
The first mode is                       ....  117
The number of degrees of freedom        ....  141

    -----------------------------------------------------------------
                    Redundant Internal Coordinates


    -----------------------------------------------------------------
         Definition                    Initial Value    Approx d2E/dq
    -----------------------------------------------------------------
      1. B(C   1,C   0)                  1.2039         1.237992   
      2. B(C   3,C   1)                  1.4259         0.547622   
      3. B(C   4,C   3)                  1.4111         0.578224   
      4. B(C   5,C   4)                  1.3878         0.629955   
      5. B(C   6,C   2)                  1.4259         0.547693   
      6. B(C   6,C   5)                  1.4019         0.598152   
      7. B(C   7,C   6)                  1.4111         0.578125   
      8. B(C   8,C   7)                  1.3876         0.630222   
      9. B(C   8,C   3)                  1.4020         0.597867   
     10. B(H   9,C   5)                  1.0809         0.372351   
     11. B(H  10,C   8)                  1.0809         0.372365   
     12. B(C  11,C   4)                  1.5127         0.398023   
     13. B(H  12,C  11)                  1.0957         0.352640   
     14. B(H  13,C  11)                  1.0960         0.352269   
     15. B(C  14,C  11)                  1.5275         0.377009   
     16. B(H  15,C  14)                  1.0957         0.352646   
     17. B(H  16,C  14)                  1.0958         0.352550   
     18. B(C  17,C  14)                  1.5301         0.373432   
     19. B(H  18,C  17)                  1.0955         0.352935   
     20. B(H  19,C  17)                  1.0956         0.352755   
     21. B(C  20,C  17)                  1.5274         0.377135   
     22. B(H  21,C  20)                  1.0934         0.355623   
     23. B(H  22,C  20)                  1.0934         0.355570   
     24. B(C  23,C   7)                  1.5128         0.397870   
     25. B(H  24,C  23)                  1.0959         0.352417   
     26. B(H  25,C  23)                  1.0958         0.352455   
     27. B(C  26,C  23)                  1.5273         0.377284   
     28. B(H  27,C  26)                  1.0958         0.352524   
     29. B(H  28,C  26)                  1.0957         0.352615   
     30. B(C  29,C  26)                  1.5300         0.373552   
     31. B(H  30,C  29)                  1.0956         0.352759   
     32. B(H  31,C  29)                  1.0955         0.352927   
     33. B(C  32,C  29)                  1.5275         0.377029   
     34. B(H  33,C  32)                  1.0934         0.355592   
     35. B(H  34,C  32)                  1.0934         0.355603   
     36. B(C  35,C   2)                  1.2038         1.238027   
     37. B(H  36,C  20)                  1.0916         0.357963   
     38. B(H  37,C  32)                  1.0916         0.357977   
     39. B(C  38,C  35)                  1.4300         0.539413   
     40. B(C  39,C  38)                  1.4111         0.578224   
     41. B(C  40,C  39)                  1.3878         0.629955   
     42. B(C  41,C  40)                  1.4019         0.598152   
     43. B(C  42,C  41)                  1.4111         0.578125   
     44. B(C  43,C  42)                  1.3876         0.630222   
     45. B(C  43,C  38)                  1.4020         0.597867   
     46. B(H  44,C  41)                  1.0622         0.398769   
     47. B(H  45,C  42)                  1.0271         0.453781   
     48. B(H  46,C  39)                  1.0271         0.453781   
     49. B(H  47,C  43)                  1.0785         0.375649   
     50. B(H  48,C  40)                  1.0785         0.375649   
     51. L(C   0,C   1,C   3,C   8, 1) 179.5709         0.481351   
     52. L(C   0,C   1,C   3,C   8, 2) 180.5015         0.481351   
     53. L(C   6,C   2,C  35,C   5, 2) 179.7268         0.481365   
     54. L(C   6,C   2,C  35,C   5, 1) 179.4466         0.481365   
     55. A(C   4,C   3,C   8)          120.2893         0.425877   
     56. A(C   1,C   3,C   8)          118.8572         0.421757   
     57. A(C   1,C   3,C   4)          120.8535         0.419250   
     58. A(C   5,C   4,C  11)          122.7248         0.402258   
     59. A(C   3,C   4,C  11)          119.9748         0.396241   
     60. A(C   3,C   4,C   5)          117.3003         0.429887   
     61. A(C   4,C   5,H   9)          119.9011         0.355875   
     62. A(C   6,C   5,H   9)          117.6841         0.352764   
     63. A(C   4,C   5,C   6)          122.4149         0.432512   
     64. A(C   2,C   6,C   7)          120.8342         0.419247   
     65. A(C   5,C   6,C   7)          120.2795         0.425901   
     66. A(C   2,C   6,C   5)          118.8863         0.421802   
     67. A(C   8,C   7,C  23)          122.7207         0.402260   
     68. A(C   6,C   7,C  23)          119.9659         0.396202   
     69. A(C   6,C   7,C   8)          117.3134         0.429907   
     70. A(C   3,C   8,H  10)          117.7000         0.352738   
     71. A(C   7,C   8,H  10)          119.8973         0.355903   
     72. A(C   3,C   8,C   7)          122.4027         0.432508   
     73. A(H  13,C  11,C  14)          109.0822         0.323636   
     74. A(H  12,C  11,C  14)          109.1309         0.323692   
     75. A(C   4,C  11,H  12)          108.2443         0.326591   
     76. A(C   4,C  11,H  13)          108.2119         0.326534   
     77. A(C   4,C  11,C  14)          116.8036         0.367893   
     78. A(H  12,C  11,H  13)          104.6885         0.288888   
     79. A(H  16,C  14,C  17)          108.9438         0.323173   
     80. A(H  15,C  14,C  17)          109.0293         0.323187   
     81. A(C  11,C  14,C  17)          112.5404         0.363896   
     82. A(H  15,C  14,H  16)          106.3186         0.288925   
     83. A(C  11,C  14,H  16)          109.9290         0.323678   
     84. A(C  11,C  14,H  15)          109.8805         0.323693   
     85. A(C  14,C  17,H  18)          109.2016         0.323231   
     86. A(H  19,C  17,C  20)          109.4356         0.323727   
     87. A(H  18,C  17,C  20)          109.4449         0.323754   
     88. A(C  14,C  17,C  20)          113.2208         0.363917   
     89. A(H  18,C  17,H  19)          106.0313         0.288988   
     90. A(C  14,C  17,H  19)          109.2541         0.323204   
     91. A(H  21,C  20,H  22)          107.4850         0.289693   
     92. A(C  17,C  20,H  22)          111.2520         0.324150   
     93. A(C  17,C  20,H  21)          111.2630         0.324158   
     94. A(H  22,C  20,H  36)          107.6706         0.289991   
     95. A(H  21,C  20,H  36)          107.6746         0.289998   
     96. A(C  17,C  20,H  36)          111.3061         0.324507   
     97. A(H  25,C  23,C  26)          109.1286         0.323703   
     98. A(H  24,C  23,C  26)          109.1467         0.323697   
     99. A(C   7,C  23,C  26)          116.8158         0.367915   
    100. A(H  24,C  23,H  25)          104.7028         0.288883   
    101. A(C   7,C  23,H  24)          108.2070         0.326536   
    102. A(C   7,C  23,H  25)          108.1602         0.326542   
    103. A(H  28,C  26,C  29)          109.0073         0.323199   
    104. A(H  27,C  26,C  29)          108.9616         0.323186   
    105. A(C  23,C  26,C  29)          112.5497         0.363962   
    106. A(H  27,C  26,H  28)          106.3172         0.288918   
    107. A(C  23,C  26,H  28)          109.8944         0.323727   
    108. A(C  23,C  26,H  27)          109.9108         0.323713   
    109. A(H  31,C  29,C  32)          109.4367         0.323738   
    110. A(H  30,C  29,C  32)          109.4295         0.323713   
    111. A(C  26,C  29,C  32)          113.2199         0.363920   
    112. A(H  30,C  29,H  31)          106.0224         0.288988   
    113. A(C  26,C  29,H  31)          109.2068         0.323246   
    114. A(C  26,C  29,H  30)          109.2724         0.323221   
    115. A(H  33,C  32,H  34)          107.4879         0.289693   
    116. A(C  29,C  32,H  34)          111.2603         0.324140   
    117. A(C  29,C  32,H  33)          111.2574         0.324138   
    118. A(H  34,C  32,H  37)          107.6732         0.289997   
    119. A(H  33,C  32,H  37)          107.6733         0.289996   
    120. A(C  29,C  32,H  37)          111.2996         0.324494   
    121. L(C   2,C  35,C  38,C  43, 2) 179.7406         0.480015   
    122. L(C   2,C  35,C  38,C  43, 1) 177.3669         0.480015   
    123. A(C  39,C  38,C  43)          120.2893         0.425877   
    124. A(C  35,C  38,C  43)          120.9616         0.420621   
    125. A(C  35,C  38,C  39)          118.7492         0.418123   
    126. A(C  40,C  39,H  46)          121.4707         0.368093   
    127. A(C  38,C  39,H  46)          121.2289         0.362733   
    128. A(C  38,C  39,C  40)          117.3003         0.429887   
    129. A(C  41,C  40,H  48)          119.8152         0.353291   
    130. A(C  39,C  40,H  48)          117.7699         0.356408   
    131. A(C  39,C  40,C  41)          122.4149         0.432512   
    132. A(C  42,C  41,H  44)          118.7545         0.354832   
    133. A(C  40,C  41,H  44)          120.9660         0.356889   
    134. A(C  40,C  41,C  42)          120.2795         0.425901   
    135. A(C  43,C  42,H  45)          121.4630         0.368120   
    136. A(C  41,C  42,H  45)          121.2236         0.362722   
    137. A(C  41,C  42,C  43)          117.3134         0.429907   
    138. A(C  42,C  43,H  47)          117.7776         0.356434   
    139. A(C  38,C  43,H  47)          119.8197         0.353263   
    140. A(C  38,C  43,C  42)          122.4027         0.432508   
    141. D(C  11,C   4,C   3,C   8)    179.8417         0.022964   
    142. D(C   5,C   4,C   3,C   8)     -0.0321         0.022964   
    143. D(C   5,C   4,C   3,C   1)    179.9922         0.022964   
    144. D(C  11,C   4,C   3,C   1)     -0.1340         0.022964   
    145. D(C   6,C   5,C   4,C  11)   -179.8492         0.027515   
    146. D(H   9,C   5,C   4,C  11)      0.1704         0.027515   
    147. D(H   9,C   5,C   4,C   3)   -179.9596         0.027515   
    148. D(C   6,C   5,C   4,C   3)      0.0208         0.027515   
    149. D(C   2,C   6,C   5,H   9)     -0.0331         0.024657   
    150. D(C   7,C   6,C   5,H   9)    179.9689         0.024657   
    151. D(C   7,C   6,C   5,C   4)     -0.0119         0.024657   
    152. D(C   2,C   6,C   5,C   4)    179.9861         0.024657   
    153. D(C   8,C   7,C   6,C   5)      0.0135         0.022956   
    154. D(C  23,C   7,C   6,C   2)      0.0695         0.022956   
    155. D(C   8,C   7,C   6,C   2)   -179.9846         0.022956   
    156. D(C  23,C   7,C   6,C   5)   -179.9325         0.022956   
    157. D(H  10,C   8,C   7,C  23)     -0.0479         0.027540   
    158. D(C   3,C   8,C   7,C  23)    179.9186         0.027540   
    159. D(C   3,C   8,C   7,C   6)     -0.0258         0.027540   
    160. D(H  10,C   8,C   7,C   6)   -179.9923         0.027540   
    161. D(C   7,C   8,C   3,C   4)      0.0360         0.024632   
    162. D(C   7,C   8,C   3,C   1)   -179.9878         0.024632   
    163. D(H  10,C   8,C   3,C   4)   -179.9967         0.024632   
    164. D(H  10,C   8,C   3,C   1)     -0.0206         0.024632   
    165. D(C  14,C  11,C   4,C   5)     -1.5594         0.011762   
    166. D(C  14,C  11,C   4,C   3)    178.5739         0.011762   
    167. D(H  13,C  11,C   4,C   5)    121.9324         0.011762   
    168. D(H  12,C  11,C   4,C   5)   -125.1429         0.011762   
    169. D(H  13,C  11,C   4,C   3)    -57.9343         0.011762   
    170. D(H  12,C  11,C   4,C   3)     54.9904         0.011762   
    171. D(H  15,C  14,C  11,C   4)    -58.1884         0.011338   
    172. D(C  17,C  14,C  11,H  12)    -56.7606         0.011338   
    173. D(C  17,C  14,C  11,C   4)   -179.8885         0.011338   
    174. D(H  16,C  14,C  11,H  13)    -64.5579         0.011338   
    175. D(H  16,C  14,C  11,H  12)   -178.3858         0.011338   
    176. D(H  16,C  14,C  11,C   4)     58.4862         0.011338   
    177. D(H  15,C  14,C  11,H  13)    178.7674         0.011338   
    178. D(C  17,C  14,C  11,H  13)     57.0673         0.011338   
    179. D(H  15,C  14,C  11,H  12)     64.9395         0.011338   
    180. D(C  20,C  17,C  14,H  16)    -57.6207         0.011136   
    181. D(C  20,C  17,C  14,C  11)   -179.8043         0.011136   
    182. D(H  19,C  17,C  14,H  16)   -179.8554         0.011136   
    183. D(H  19,C  17,C  14,H  15)    -64.2214         0.011136   
    184. D(H  19,C  17,C  14,C  11)     57.9609         0.011136   
    185. D(H  18,C  17,C  14,H  16)     64.5878         0.011136   
    186. D(C  20,C  17,C  14,H  15)     58.0133         0.011136   
    187. D(H  18,C  17,C  14,H  15)   -179.7782         0.011136   
    188. D(H  18,C  17,C  14,C  11)    -57.5958         0.011136   
    189. D(H  36,C  20,C  17,H  19)    -57.7452         0.011345   
    190. D(H  36,C  20,C  17,H  18)     58.0487         0.011345   
    191. D(H  36,C  20,C  17,C  14)   -179.8787         0.011345   
    192. D(H  22,C  20,C  17,H  19)     62.3387         0.011345   
    193. D(H  22,C  20,C  17,H  18)    178.1326         0.011345   
    194. D(H  22,C  20,C  17,C  14)    -59.7947         0.011345   
    195. D(H  21,C  20,C  17,H  19)   -177.8416         0.011345   
    196. D(H  21,C  20,C  17,H  18)    -62.0478         0.011345   
    197. D(H  21,C  20,C  17,C  14)     60.0249         0.011345   
    198. D(C  26,C  23,C   7,C   6)    179.8799         0.011754   
    199. D(H  25,C  23,C   7,C   8)   -123.5830         0.011754   
    200. D(H  25,C  23,C   7,C   6)     56.3599         0.011754   
    201. D(H  24,C  23,C   7,C   6)    -56.5373         0.011754   
    202. D(C  26,C  23,C   7,C   8)     -0.0631         0.011754   
    203. D(H  24,C  23,C   7,C   8)    123.5198         0.011754   
    204. D(C  29,C  26,C  23,H  25)    -56.8099         0.011353   
    205. D(C  29,C  26,C  23,C   7)   -179.8318         0.011353   
    206. D(H  28,C  26,C  23,H  25)   -178.4980         0.011353   
    207. D(H  28,C  26,C  23,H  24)    -64.6200         0.011353   
    208. D(H  28,C  26,C  23,C   7)     58.4800         0.011353   
    209. D(H  27,C  26,C  23,H  25)     64.8315         0.011353   
    210. D(C  29,C  26,C  23,H  24)     57.0681         0.011353   
    211. D(H  27,C  26,C  23,H  24)    178.7095         0.011353   
    212. D(H  27,C  26,C  23,C   7)    -58.1905         0.011353   
    213. D(C  32,C  29,C  26,H  28)    -57.7273         0.011142   
    214. D(C  32,C  29,C  26,H  27)     57.9028         0.011142   
    215. D(C  32,C  29,C  26,C  23)   -179.9180         0.011142   
    216. D(H  31,C  29,C  26,H  28)   -179.9285         0.011142   
    217. D(H  31,C  29,C  26,H  27)    -64.2984         0.011142   
    218. D(H  31,C  29,C  26,C  23)     57.8808         0.011142   
    219. D(H  30,C  29,C  26,H  28)     64.5123         0.011142   
    220. D(H  30,C  29,C  26,H  27)   -179.8576         0.011142   
    221. D(H  30,C  29,C  26,C  23)    -57.6784         0.011142   
    222. D(H  37,C  32,C  29,H  31)    -57.7990         0.011339   
    223. D(H  37,C  32,C  29,H  30)     57.9762         0.011339   
    224. D(H  37,C  32,C  29,C  26)   -179.8718         0.011339   
    225. D(H  34,C  32,C  29,H  31)     62.2893         0.011339   
    226. D(H  34,C  32,C  29,H  30)    178.0645         0.011339   
    227. D(H  34,C  32,C  29,C  26)    -59.7835         0.011339   
    228. D(H  33,C  32,C  29,H  31)   -177.8855         0.011339   
    229. D(H  33,C  32,C  29,H  30)    -62.1104         0.011339   
    230. D(H  33,C  32,C  29,C  26)     60.0416         0.011339   
    231. D(C  43,C  38,C   6,C   7)      0.0584         0.001500   
    232. D(C  43,C  38,C   6,C   5)   -179.9884         0.001500   
    233. D(C  39,C  38,C   6,C   7)    179.9905         0.001500   
    234. D(C  39,C  38,C   6,C   5)     -0.0562         0.001500   
    235. D(H  46,C  39,C  38,C  43)    179.9827         0.022964   
    236. D(H  46,C  39,C  38,C  35)      0.0047         0.022964   
    237. D(C  40,C  39,C  38,C  43)     -0.0321         0.022964   
    238. D(C  40,C  39,C  38,C  35)    179.9899         0.022964   
    239. D(H  48,C  40,C  39,H  46)      0.0011         0.027515   
    240. D(H  48,C  40,C  39,C  38)   -179.9841         0.027515   
    241. D(C  41,C  40,C  39,H  46)   -179.9940         0.027515   
    242. D(C  41,C  40,C  39,C  38)      0.0208         0.027515   
    243. D(H  44,C  41,C  40,H  48)     -0.0059         0.024657   
    244. D(H  44,C  41,C  40,C  39)    179.9891         0.024657   
    245. D(C  42,C  41,C  40,H  48)    179.9931         0.024657   
    246. D(C  42,C  41,C  40,C  39)     -0.0119         0.024657   
    247. D(H  45,C  42,C  41,H  44)      0.0047         0.022956   
    248. D(H  45,C  42,C  41,C  40)   -179.9943         0.022956   
    249. D(C  43,C  42,C  41,H  44)   -179.9875         0.022956   
    250. D(C  43,C  42,C  41,C  40)      0.0135         0.022956   
    251. D(H  47,C  43,C  42,H  45)      0.0011         0.027540   
    252. D(H  47,C  43,C  42,C  41)    179.9933         0.027540   
    253. D(C  38,C  43,C  42,H  45)    179.9820         0.027540   
    254. D(C  38,C  43,C  42,C  41)     -0.0258         0.027540   
    255. D(H  47,C  43,C  38,C  39)   -179.9834         0.024632   
    256. D(H  47,C  43,C  38,C  35)     -0.0059         0.024632   
    257. D(C  42,C  43,C  38,C  39)      0.0360         0.024632   
    258. D(C  42,C  43,C  38,C  35)   -179.9865         0.024632   
    -----------------------------------------------------------------

Number of atoms                         .... 49
Number of degrees of freedom            .... 258

         *************************************************************
         *                GEOMETRY OPTIMIZATION CYCLE   1            *
         *************************************************************
---------------------------------
CARTESIAN COORDINATES (ANGSTROEM)
---------------------------------
  C     -4.021255    0.105554   -0.005305
  C     -2.818585    0.052359    0.000041
  C      2.818573   -0.051745    0.000063
  C     -1.393659   -0.000000    0.000000
  C     -0.714960   -1.237147    0.000202
  C      0.672358   -1.202059   -0.000021
  C      1.393659   -0.000000   -0.000000
  C      0.714822    1.237125    0.000000
  C     -0.672385    1.202227    0.000269
  H      1.234707   -2.125148   -0.000540
  H     -1.234543    2.125420    0.000154
  C     -1.500316   -2.530051    0.003530
  H     -2.190436   -2.514394   -0.847378
  H     -2.148685   -2.534708    0.887147
  C     -0.693094   -3.826402   -0.030390
  H     -0.055703   -3.845232   -0.921414
  H     -0.018245   -3.868841    0.831866
  C     -1.582505   -5.071453   -0.026825
  H     -2.223927   -5.053486    0.861044
  H     -2.257870   -5.035471   -0.888769
  C     -0.790682   -6.377281   -0.055735
  H     -0.133172   -6.461644    0.813805
  H     -0.163563   -6.440829   -0.949216
  C      1.500315    2.530072   -0.001521
  H      2.169550    2.525160    0.866254
  H      2.169751    2.521989   -0.869080
  C      0.693122    3.826647   -0.004282
  H      0.035552    3.854994   -0.880382
  H      0.038107    3.859943    0.873468
  C      1.582598    5.071538   -0.009791
  H      2.244242    5.047094    0.863125
  H      2.238133    5.042205   -0.886993
  C      0.790535    6.377630   -0.010598
  H      0.152401    6.454821    0.873944
  H      0.143909    6.448638   -0.889462
  C      4.021148   -0.107044   -0.002824
  H     -1.454567   -7.243820   -0.054558
  H      1.454541    7.244042   -0.016837
  C      5.451148   -0.107044   -0.002824
  C      6.129847   -1.344191   -0.002622
  C      7.517165   -1.309103   -0.002845
  C      8.238465   -0.107044   -0.002824
  C      7.559629    1.130082   -0.002824
  C      6.172422    1.095183   -0.002556
  H      9.300699   -0.107044   -0.002824
  H      8.073497    2.019342   -0.002897
  H      5.615979   -2.233451   -0.002550
  H      5.645960    2.036451   -0.002442
  H      8.043626   -2.250371   -0.002959

----------------------------
CARTESIAN COORDINATES (A.U.)
----------------------------
  NO LB      ZA    FRAG     MASS         X           Y           Z
   0 C     6.0000    0    12.011   -7.599070    0.199468   -0.010025
   1 C     6.0000    0    12.011   -5.326354    0.098943    0.000077
   2 C     6.0000    0    12.011    5.326330   -0.097783    0.000119
   3 C     6.0000    0    12.011   -2.633633   -0.000000    0.000000
   4 C     6.0000    0    12.011   -1.351079   -2.337870    0.000382
   5 C     6.0000    0    12.011    1.270573   -2.271563   -0.000039
   6 C     6.0000    0    12.011    2.633633   -0.000000   -0.000000
   7 C     6.0000    0    12.011    1.350819    2.337828    0.000000
   8 C     6.0000    0    12.011   -1.270623    2.271879    0.000508
   9 H     1.0000    0     1.008    2.333258   -4.015948   -0.001021
  10 H     1.0000    0     1.008   -2.332949    4.016462    0.000290
  11 C     6.0000    0    12.011   -2.835187   -4.781103    0.006671
  12 H     1.0000    0     1.008   -4.139324   -4.751516   -1.601312
  13 H     1.0000    0     1.008   -4.060427   -4.789904    1.676465
  14 C     6.0000    0    12.011   -1.309757   -7.230852   -0.057429
  15 H     1.0000    0     1.008   -0.105264   -7.266436   -1.741220
  16 H     1.0000    0     1.008   -0.034478   -7.311051    1.572000
  17 C     6.0000    0    12.011   -2.990501   -9.583658   -0.050692
  18 H     1.0000    0     1.008   -4.202614   -9.549706    1.627138
  19 H     1.0000    0     1.008   -4.266757   -9.515660   -1.679530
  20 C     6.0000    0    12.011   -1.494173  -12.051315   -0.105323
  21 H     1.0000    0     1.008   -0.251658  -12.210737    1.537868
  22 H     1.0000    0     1.008   -0.309090  -12.171404   -1.793758
  23 C     6.0000    0    12.011    2.835185    4.781143   -0.002875
  24 H     1.0000    0     1.008    4.099855    4.771862    1.636982
  25 H     1.0000    0     1.008    4.100236    4.765869   -1.642323
  26 C     6.0000    0    12.011    1.309810    7.231315   -0.008092
  27 H     1.0000    0     1.008    0.067184    7.284884   -1.663680
  28 H     1.0000    0     1.008    0.072012    7.294236    1.650615
  29 C     6.0000    0    12.011    2.990676    9.583818   -0.018502
  30 H     1.0000    0     1.008    4.241004    9.537626    1.631069
  31 H     1.0000    0     1.008    4.229459    9.528387   -1.676174
  32 C     6.0000    0    12.011    1.493895   12.051974   -0.020027
  33 H     1.0000    0     1.008    0.287997   12.197844    1.651514
  34 H     1.0000    0     1.008    0.271949   12.186160   -1.680839
  35 C     6.0000    0    12.011    7.598868   -0.202283   -0.005337
  36 H     1.0000    0     1.008   -2.748734  -13.688836   -0.103100
  37 H     1.0000    0     1.008    2.748684   13.689255   -0.031817
  38 C     6.0000    0    12.011   10.301176   -0.202283   -0.005337
  39 C     6.0000    0    12.011   11.583731   -2.540153   -0.004956
  40 C     6.0000    0    12.011   14.205383   -2.473846   -0.005377
  41 C     6.0000    0    12.011   15.568443   -0.202283   -0.005337
  42 C     6.0000    0    12.011   14.285629    2.135545   -0.005337
  43 C     6.0000    0    12.011   11.664186    2.069596   -0.004830
  44 H     1.0000    0     1.008   17.575775   -0.202283   -0.005337
  45 H     1.0000    0     1.008   15.256698    3.816003   -0.005475
  46 H     1.0000    0     1.008   10.612662   -4.220611   -0.004818
  47 H     1.0000    0     1.008   10.669319    3.848334   -0.004615
  48 H     1.0000    0     1.008   15.200250   -4.252584   -0.005591

--------------------------------
INTERNAL COORDINATES (ANGSTROEM)
--------------------------------
 C      0   0   0     0.000000000000     0.00000000     0.00000000
 C      1   0   0     1.203857076302     0.00000000     0.00000000
 C      2   1   0     5.638119251450   178.50363401     0.00000000
 C      2   1   3     1.425888217727   179.50105685   338.90170218
 C      4   2   1     1.411086630355   120.85353637   210.86692218
 C      5   4   2     1.387761921145   117.30034507   179.99222446
 C      6   5   4     1.401863367215   122.41485361     0.00000000
 C      7   6   5     1.411133484181   120.27947131     0.00000000
 C      8   7   6     1.387646348732   117.31337556     0.00000000
 H      6   5   4     1.080892866064   119.90108961   180.04044054
 H      9   8   7     1.080883270791   119.89727682   180.00769160
 C      5   4   2     1.512744362226   119.97477239   359.86601646
 H     12   5   4     1.095698448783   108.24426074    54.99040003
 H     12   5   4     1.095984881354   108.21194884   302.06568299
 C     12   5   4     1.527509326982   116.80360948   178.57389876
 H     15  12   5     1.095693640321   109.88046138   301.81157965
 H     15  12   5     1.095768265280   109.92897162    58.48624710
 C     15  12   5     1.530103932895   112.54043221   180.11146270
 H     18  15  12     1.095470911171   109.20155269   302.40417200
 H     18  15  12     1.095609703510   109.25405865    57.96093191
 C     18  15  12     1.527418097630   113.22077323   180.19569149
 H     21  18  15     1.093405664969   111.26298580    60.02490208
 H     21  18  15     1.093446446637   111.25201123   300.20526423
 C      8   7   6     1.512848772823   119.96591851   180.06749758
 H     24   8   7     1.095870929166   108.20701139   303.46272899
 H     24   8   7     1.095841271800   108.16016250    56.35991179
 C     24   8   7     1.527310225573   116.81581972   179.87986183
 H     27  24   8     1.095787989463   109.91080342   301.80953662
 H     27  24   8     1.095717635561   109.89438900    58.48003765
 C     27  24   8     1.530016854917   112.54969241   180.16815767
 H     30  27  24     1.095606287083   109.27241889   302.32164844
 H     30  27  24     1.095477307357   109.20676447    57.88084990
 C     30  27  24     1.527494705747   113.21991705   180.08204778
 H     33  30  27     1.093428998082   111.25739266    60.04162402
 H     33  30  27     1.093420889088   111.26026023   300.21647247
 C      3   2   1     1.203849298024   178.41915504   194.77753343
 H     21  18  15     1.091620128544   111.30614120   180.12133626
 H     33  30  27     1.091609954224   111.29959312   180.12816985
 C     36   3   7     1.430000000000   177.36359726   168.78532916
 C     39  36   3     1.411086630355   118.74916400   177.00159060
 C     40  39  36     1.387761911149   117.30034506   179.98991456
 C     41  40  39     1.401863367215   122.41485363     0.00000000
 C     42  41  40     1.411133484181   120.27947131     0.00000000
 C     43  42  41     1.387646348732   117.31337556     0.00000000
 H     42  41  40     1.062234050000   120.96603716   179.98907393
 H     43  42  41     1.027055675042   121.22362018   180.00572024
 H     40  39  36     1.027055688704   121.22894751     0.00000000
 H     44  43  42     1.078492732490   117.77764362   179.99330825
 H     41  40  39     1.078492737371   117.76994235   180.01594079

---------------------------
INTERNAL COORDINATES (A.U.)
---------------------------
 C      0   0   0     0.000000000000     0.00000000     0.00000000
 C      1   0   0     2.274960178594     0.00000000     0.00000000
 C      2   1   0    10.654501295630   178.50363401     0.00000000
 C      2   1   3     2.694538229090   179.50105685   338.90170218
 C      4   2   1     2.666567282608   120.85353637   210.86692218
 C      5   4   2     2.622489970049   117.30034507   179.99222446
 C      6   5   4     2.649137841212   122.41485361     0.00000000
 C      7   6   5     2.666655823508   120.27947131     0.00000000
 C      8   7   6     2.622271569839   117.31337556     0.00000000
 H      6   5   4     2.042591496970   119.90108961   180.04044054
 H      9   8   7     2.042573364532   119.89727682   180.00769160
 C      5   4   2     2.858672555241   119.97477239   359.86601646
 H     12   5   4     2.070569993563   108.24426074    54.99040003
 H     12   5   4     2.071111272677   108.21194884   302.06568299
 C     12   5   4     2.886574295006   116.80360948   178.57389876
 H     15  12   5     2.070560906887   109.88046138   301.81157965
 H     15  12   5     2.070701927621   109.92897162    58.48624710
 C     15  12   5     2.891477389607   112.54043221   180.11146270
 H     18  15  12     2.070140009791   109.20155269   302.40417200
 H     18  15  12     2.070402289301   109.25405865    57.96093191
 C     18  15  12     2.886401896516   113.22077323   180.19569149
 H     21  18  15     2.066237260069   111.26298580    60.02490208
 H     21  18  15     2.066314326254   111.25201123   300.20526423
 C      8   7   6     2.858869862675   119.96591851   180.06749758
 H     24   8   7     2.070895934250   108.20701139   303.46272899
 H     24   8   7     2.070839889951   108.16016250    56.35991179
 C     24   8   7     2.886198047870   116.81581972   179.87986183
 H     27  24   8     2.070739200926   109.91080342   301.80953662
 H     27  24   8     2.070606251318   109.89438900    58.48003765
 C     27  24   8     2.891312836077   112.54969241   180.16815767
 H     30  27  24     2.070395833189   109.27241889   302.32164844
 H     30  27  24     2.070152096830   109.20676447    57.88084990
 C     30  27  24     2.886546664876   113.21991705   180.08204778
 H     33  30  27     2.066281353263   111.25739266    60.04162402
 H     33  30  27     2.066266029484   111.26026023   300.21647247
 C      3   2   1     2.274945479778   178.41915504   194.77753343
 H     21  18  15     2.062863085225   111.30614120   180.12133626
 H     33  30  27     2.062843858547   111.29959312   180.12816985
 C     36   3   7     2.702308371507   177.36359726   168.78532916
 C     39  36   3     2.666567282608   118.74916400   177.00159060
 C     40  39  36     2.622489951158   117.30034506   179.98991456
 C     41  40  39     2.649137841212   122.41485363     0.00000000
 C     42  41  40     2.666655823508   120.27947131     0.00000000
 C     43  42  41     2.622271569839   117.31337556     0.00000000
 H     42  41  40     2.007331444626   120.96603716   179.98907393
 H     43  42  41     1.940853950119   121.22362018   180.00572024
 H     40  39  36     1.940853975936   121.22894751     0.00000000
 H     44  43  42     2.038055901830   117.77764362   179.99330825
 H     41  40  39     2.038055911055   117.76994235   180.01594079

---------------------
BASIS SET INFORMATION
---------------------
There are 2 groups of distinct atoms

 Group   1 Type C   : 17s4p1d contracted to 3s2p1d pattern {881/31/1}
 Group   2 Type H   : 4s1p contracted to 2s1p pattern {31/1}

Atom   0C    basis set group =>   1
Atom   1C    basis set group =>   1
Atom   2C    basis set group =>   1
Atom   3C    basis set group =>   1
Atom   4C    basis set group =>   1
Atom   5C    basis set group =>   1
Atom   6C    basis set group =>   1
Atom   7C    basis set group =>   1
Atom   8C    basis set group =>   1
Atom   9H    basis set group =>   2
Atom  10H    basis set group =>   2
Atom  11C    basis set group =>   1
Atom  12H    basis set group =>   2
Atom  13H    basis set group =>   2
Atom  14C    basis set group =>   1
Atom  15H    basis set group =>   2
Atom  16H    basis set group =>   2
Atom  17C    basis set group =>   1
Atom  18H    basis set group =>   2
Atom  19H    basis set group =>   2
Atom  20C    basis set group =>   1
Atom  21H    basis set group =>   2
Atom  22H    basis set group =>   2
Atom  23C    basis set group =>   1
Atom  24H    basis set group =>   2
Atom  25H    basis set group =>   2
Atom  26C    basis set group =>   1
Atom  27H    basis set group =>   2
Atom  28H    basis set group =>   2
Atom  29C    basis set group =>   1
Atom  30H    basis set group =>   2
Atom  31H    basis set group =>   2
Atom  32C    basis set group =>   1
Atom  33H    basis set group =>   2
Atom  34H    basis set group =>   2
Atom  35C    basis set group =>   1
Atom  36H    basis set group =>   2
Atom  37H    basis set group =>   2
Atom  38C    basis set group =>   1
Atom  39C    basis set group =>   1
Atom  40C    basis set group =>   1
Atom  41C    basis set group =>   1
Atom  42C    basis set group =>   1
Atom  43C    basis set group =>   1
Atom  44H    basis set group =>   2
Atom  45H    basis set group =>   2
Atom  46H    basis set group =>   2
Atom  47H    basis set group =>   2
Atom  48H    basis set group =>   2


           ************************************************************
           *        Program running with 16 parallel MPI-processes    *
           *              working on a common directory               *
           ************************************************************
------------------------------------------------------------------------------
                           ORCA GTO INTEGRAL CALCULATION
------------------------------------------------------------------------------

                         BASIS SET STATISTICS AND STARTUP INFO

 # of primitive gaussian shells          ...  653
 # of primitive gaussian functions       ...  991
 # of contracted shells                  ...  219
 # of contracted basis functions         ...  461
 Highest angular momentum                ...    2
 Maximum contraction depth               ...    8
 Integral package used                   ... LIBINT
 Integral threshhold            Thresh   ...  2.500e-11
 Primitive cut-off              TCut     ...  2.500e-12


------------------------------ INTEGRAL EVALUATION ----------------------------


 * One electron integrals 
 Pre-screening matrix                    ... done
 Shell pair data                         ... done (   0.009 sec)



           ************************************************************
           *        Program running with 16 parallel MPI-processes    *
           *              working on a common directory               *
           ************************************************************
-------------------------------------------------------------------------------
                                 ORCA SCF
-------------------------------------------------------------------------------

------------
SCF SETTINGS
------------
Hamiltonian:
 Density Functional     Method          .... DFT(GTOs)
 Exchange Functional    Exchange        .... B88
   X-Alpha parameter    XAlpha          ....  0.666667
   Becke's b parameter  XBeta           ....  0.004200
 Correlation Functional Correlation     .... LYP
 LDA part of GGA corr.  LDAOpt          .... VWN-5
 Gradients option       PostSCFGGA      .... off
 Hybrid DFT is turned on
   Fraction HF Exchange ScalHFX         ....  0.200000
   Scaling of DF-GGA-X  ScalDFX         ....  0.720000
   Scaling of DF-GGA-C  ScalDFC         ....  0.810000
   Scaling of DF-LDA-C  ScalLDAC        ....  1.000000
   Perturbative correction              ....  0.000000
   Density functional embedding theory  .... OFF
   NL short-range parameter             ....  4.800000


General Settings:
 Integral files         IntName         .... opt
 Hartree-Fock type      HFTyp           .... UHF
 Total Charge           Charge          ....    0
 Multiplicity           Mult            ....    2
 Number of Electrons    NEL             ....  169
 Basis Dimension        Dim             ....  461
 Nuclear Repulsion      ENuc            ....   1738.7696053938 Eh

Convergence Acceleration:
 DIIS                   CNVDIIS         .... on
   Start iteration      DIISMaxIt       ....    12
   Startup error        DIISStart       ....  0.200000
   # of expansion vecs  DIISMaxEq       ....     5
   Bias factor          DIISBfac        ....   1.050
   Max. coefficient     DIISMaxC        ....  10.000
 Newton-Raphson         CNVNR           .... off
 SOSCF                  CNVSOSCF        .... off
 Level Shifting         CNVShift        .... on
   Level shift para.    LevelShift      ....    0.2500
   Turn off err/grad.   ShiftErr        ....    0.0010
 Zerner damping         CNVZerner       .... off
 Static damping         CNVDamp         .... on
   Fraction old density DampFac         ....    0.7000
   Max. Damping (<1)    DampMax         ....    0.9800
   Min. Damping (>=0)   DampMin         ....    0.0000
   Turn off err/grad.   DampErr         ....    0.1000
 Fernandez-Rico         CNVRico         .... off

SCF Procedure:
 Maximum # iterations   MaxIter         ....   125
 SCF integral mode      SCFMode         .... Direct
   Integral package                     .... LIBINT
 Reset frequency        DirectResetFreq ....    20
 Integral Threshold     Thresh          ....  2.500e-11 Eh
 Primitive CutOff       TCut            ....  2.500e-12 Eh

Convergence Tolerance:
 Convergence Check Mode ConvCheckMode   .... Total+1el-Energy
 Convergence forced     ConvForced      .... 0
 Energy Change          TolE            ....  1.000e-08 Eh
 1-El. energy change                    ....  1.000e-05 Eh
 DIIS Error             TolErr          ....  5.000e-07


Diagonalization of the overlap matrix:
Smallest eigenvalue                        ... 4.939e-05
Time for diagonalization                   ...    0.061 sec
Threshold for overlap eigenvalues          ... 1.000e-08
Number of eigenvalues below threshold      ... 0
Time for construction of square roots      ...    0.051 sec
Total time needed                          ...    0.114 sec

-------------------
DFT GRID GENERATION
-------------------

General Integration Accuracy     IntAcc      ...  4.340
Radial Grid Type                 RadialGrid  ... Gauss-Chebyshev
Angular Grid (max. acc.)         AngularGrid ... Lebedev-110
Angular grid pruning method      GridPruning ... 3 (G Style)
Weight generation scheme         WeightScheme... Becke
Basis function cutoff            BFCut       ...    1.0000e-11
Integration weight cutoff        WCut        ...    1.0000e-14
Grids for H and He will be reduced by one unit

# of grid points (after initial pruning)     ...  59594 (   0.0 sec)
# of grid points (after weights+screening)   ...  53092 (   0.2 sec)
nearest neighbour list constructed           ...    0.0 sec
Grid point re-assignment to atoms done       ...    0.0 sec
Grid point division into batches done        ...    0.1 sec
Reduced shell lists constructed in    0.2 sec

Total number of grid points                  ...    53092
Total number of batches                      ...      855
Average number of points per batch           ...       62
Average number of grid points per atom       ...     1084
Average number of shells per batch           ...    79.20 (36.16%)
Average number of basis functions per batch  ...   156.36 (33.92%)
Average number of large shells per batch     ...    45.05 (56.89%)
Average number of large basis fcns per batch ...    94.11 (60.19%)
Maximum spatial batch extension              ...  15.62, 18.54, 17.61 au
Average spatial batch extension              ...   0.23,  0.27,  0.30 au

Time for grid setup =    0.429 sec

------------------------------
INITIAL GUESS: MODEL POTENTIAL
------------------------------
Loading Hartree-Fock densities                     ... done
Calculating cut-offs                               ... done
Setting up the integral package                    ... done
Initializing the effective Hamiltonian             ... done
Starting the Coulomb interaction                   ... done (   0.3 sec)
Reading the grid                                   ... done
Mapping shells                                     ... done
Starting the XC term evaluation                    ... done (   0.1 sec)
  promolecular density results
     # of electrons  =    169.030335905
     EX              =   -130.770805543
     EC              =     -5.574198191
     EX+EC           =   -136.345003734
Transforming the Hamiltonian                       ... done (   0.0 sec)
Diagonalizing the Hamiltonian                      ... done (   0.0 sec)
Back transforming the eigenvectors                 ... done (   0.0 sec)
Now organizing SCF variables                       ... done
                      ------------------
                      INITIAL GUESS DONE (   1.1 sec)
                      ------------------
--------------
SCF ITERATIONS
--------------
ITER       Energy         Delta-E        Max-DP      RMS-DP      [F,P]     Damp
               ***  Starting incremental Fock matrix formation  ***
  0   -928.1995894973   0.000000000000 0.15002536  0.00109910  0.1777656 0.7000
  1   -928.4752459633  -0.275656465983 0.14455418  0.00094542  0.0940054 0.7000
                               ***Turning on DIIS***
  2   -928.5984709413  -0.123224977994 0.12982667  0.00149494  0.0362337 0.0000
  3   -928.7646185555  -0.166147614284 0.19578268  0.00103326  0.0712197 0.0000
  4   -928.8168723844  -0.052253828846 0.07799572  0.00041437  0.0132353 0.0000
  5   -928.8213591343  -0.004486749921 0.03144249  0.00014985  0.0055226 0.0000
  6   -928.8223123128  -0.000953178463 0.00857681  0.00004529  0.0026140 0.0000
  7   -928.8227193991  -0.000407086349 0.00318772  0.00002506  0.0017436 0.0000
  8   -928.8229474800  -0.000228080836 0.00315762  0.00002176  0.0013628 0.0000
  9   -928.8230959570  -0.000148477086 0.00268270  0.00001835  0.0010409 0.0000
 10   -928.8231906115  -0.000094654460 0.00455963  0.00003863  0.0007829 0.0000
 11   -928.8232899169  -0.000099305392 0.00142179  0.00000819  0.0017551 0.0000
 12   -928.8233029705  -0.000013053659 0.00225173  0.00001227  0.0008468 0.0000
 13   -928.8233097665  -0.000006795970 0.00046117  0.00000421  0.0006971 0.0000
 14   -928.8233114985  -0.000001731979 0.00052299  0.00000426  0.0005475 0.0000
 15   -928.8233131472  -0.000001648673 0.00026869  0.00000196  0.0000912 0.0000
 16   -928.8233137608  -0.000000613669 0.00051754  0.00000348  0.0000904 0.0000
 17   -928.8233148216  -0.000001060730 0.00043641  0.00000290  0.0000967 0.0000
 18   -928.8233156449  -0.000000823285 0.00020806  0.00000136  0.0001001 0.0000
 19   -928.8233160560  -0.000000411194 0.00044771  0.00000287  0.0001036 0.0000
               *** Restarting incremental Fock matrix formation ***
                                   *** Resetting DIIS ***
 20   -928.8233152114   0.000000844627 0.00062953  0.00000408  0.0000978 0.0000
 21   -928.8233164256  -0.000001214216 0.00019382  0.00000124  0.0001057 0.0000
 22   -928.8233168124  -0.000000386727 0.00056695  0.00000363  0.0001080 0.0000
 23   -928.8233157141   0.000001098298 0.00063889  0.00000409  0.0001011 0.0000
 24   -928.8233145692   0.000001144874 0.00164563  0.00001049  0.0000931 0.0000
 25   -928.8233120575   0.000002511654 0.00295835  0.00001885  0.0000726 0.0000
 26   -928.8233091090   0.000002948557 0.00090549  0.00000578  0.0000738 0.0000
 27   -928.8233086394   0.000000469538 0.00102177  0.00000651  0.0000388 0.0000
 28   -928.8233083345   0.000000304909 0.00071288  0.00000456  0.0000336 0.0000
 29   -928.8233082761   0.000000058427 0.00029015  0.00000188  0.0000092 0.0000
 30   -928.8233082907  -0.000000014601 0.00004854  0.00000036  0.0000050 0.0000
 31   -928.8233082984  -0.000000007649 0.00001410  0.00000017  0.0000024 0.0000
 32   -928.8233083062  -0.000000007793 0.00000786  0.00000007  0.0000021 0.0000
 33   -928.8233083054   0.000000000713 0.00001245  0.00000014  0.0000013 0.0000
                 **** Energy Check signals convergence ****

               *****************************************************
               *                     SUCCESS                       *
               *           SCF CONVERGED AFTER  34 CYCLES          *
               *****************************************************

Setting up the final grid:

General Integration Accuracy     IntAcc      ...  4.670
Radial Grid Type                 RadialGrid  ... Gauss-Chebyshev
Angular Grid (max. acc.)         AngularGrid ... Lebedev-302
Angular grid pruning method      GridPruning ... 3 (G Style)
Weight generation scheme         WeightScheme... Becke
Basis function cutoff            BFCut       ...    1.0000e-11
Integration weight cutoff        WCut        ...    1.0000e-14
Grids for H and He will be reduced by one unit

# of grid points (after initial pruning)     ... 233938 (   0.0 sec)
# of grid points (after weights+screening)   ... 204631 (   0.7 sec)
nearest neighbour list constructed           ...    0.0 sec
Grid point re-assignment to atoms done       ...    0.0 sec
Grid point division into batches done        ...    0.8 sec
Reduced shell lists constructed in    1.1 sec

Total number of grid points                  ...   204631
Total number of batches                      ...     3224
Average number of points per batch           ...       63
Average number of grid points per atom       ...     4176
Average number of shells per batch           ...    72.58 (33.14%)
Average number of basis functions per batch  ...   143.56 (31.14%)
Average number of large shells per batch     ...    40.67 (56.04%)
Average number of large basis fcns per batch ...    84.90 (59.14%)
Maximum spatial batch extension              ...  17.75, 16.15, 17.32 au
Average spatial batch extension              ...   0.18,  0.19,  0.19 au

Final grid set up in    1.9 sec
Final integration                            ... done (   0.7 sec)
Change in XC energy                          ...     0.002867106
Integrated number of electrons               ...   169.000297096
Previous integrated no of electrons          ...   169.022542757

----------------
TOTAL SCF ENERGY
----------------

Total Energy       :         -928.82044120 Eh          -25274.48914 eV

Components:
Nuclear Repulsion  :         1738.76960539 Eh           47314.32638 eV
Electronic Energy  :        -2667.59004659 Eh          -72588.81551 eV
One Electron Energy:        -4704.45389706 Eh         -128014.69868 eV
Two Electron Energy:         2036.86385047 Eh           55425.88317 eV

Virial components:
Potential Energy   :        -1852.41054081 Eh          -50406.65344 eV
Kinetic Energy     :          923.59009961 Eh           25132.16430 eV
Virial Ratio       :            2.00566306


DFT components:
N(Alpha)           :       85.000149296129 electrons
N(Beta)            :       84.000147799655 electrons
N(Total)           :      169.000297095784 electrons
E(X)               :     -105.816940847562 Eh       
E(C)               :       -6.584748911817 Eh       
E(XC)              :     -112.401689759379 Eh       
DFET-embed. en.    :        0.000000000000 Eh       

---------------
SCF CONVERGENCE
---------------

  Last Energy change         ...    3.0104e-10  Tolerance :   1.0000e-08
  Last MAX-Density change    ...    1.1895e-05  Tolerance :   1.0000e-07
  Last RMS-Density change    ...    1.3469e-07  Tolerance :   5.0000e-09
  Last DIIS Error            ...    1.4022e-06  Tolerance :   5.0000e-07

             **** THE GBW FILE WAS UPDATED (opt.gbw) ****
             **** DENSITY FILE WAS UPDATED (opt.scfp) ****
             **** ENERGY FILE WAS UPDATED (opt.en.tmp) ****
----------------------
UHF SPIN CONTAMINATION
----------------------

Warning: in a DFT calculation there is little theoretical justification to 
         calculate <S**2> as in Hartree-Fock theory. We will do it anyways
         but you should keep in mind that the values have only limited relevance

Expectation value of <S**2>     :     0.767844
Ideal value S*(S+1) for S=0.5   :     0.750000
Deviation                       :     0.017844

             **** THE GBW FILE WAS UPDATED (opt.gbw) ****
             **** DENSITY FILE WAS UPDATED (opt.scfp) ****
----------------
ORBITAL ENERGIES
----------------
                 SPIN UP ORBITALS
  NO   OCC          E(Eh)            E(eV) 
   0   1.0000     -10.241662      -278.6898 
   1   1.0000     -10.234396      -278.4921 
   2   1.0000     -10.228233      -278.3244 
   3   1.0000     -10.220592      -278.1165 
   4   1.0000     -10.218141      -278.0497 
   5   1.0000     -10.214743      -277.9573 
   6   1.0000     -10.213717      -277.9294 
   7   1.0000     -10.212925      -277.9078 
   8   1.0000     -10.210855      -277.8515 
   9   1.0000     -10.209603      -277.8174 
  10   1.0000     -10.208317      -277.7824 
  11   1.0000     -10.208312      -277.7823 
  12   1.0000     -10.207729      -277.7664 
  13   1.0000     -10.207721      -277.7662 
  14   1.0000     -10.199130      -277.5324 
  15   1.0000     -10.190904      -277.3086 
  16   1.0000     -10.188951      -277.2554 
  17   1.0000     -10.187154      -277.2065 
  18   1.0000     -10.185040      -277.1490 
  19   1.0000     -10.181591      -277.0552 
  20   1.0000     -10.177726      -276.9500 
  21   1.0000     -10.174972      -276.8751 
  22   1.0000     -10.158301      -276.4214 
  23   1.0000     -10.143203      -276.0106 
  24   1.0000      -0.899920       -24.4881 
  25   1.0000      -0.884963       -24.0811 
  26   1.0000      -0.836417       -22.7601 
  27   1.0000      -0.816867       -22.2281 
  28   1.0000      -0.805125       -21.9086 
  29   1.0000      -0.797851       -21.7106 
  30   1.0000      -0.779482       -21.2108 
  31   1.0000      -0.775645       -21.1064 
  32   1.0000      -0.757152       -20.6032 
  33   1.0000      -0.742377       -20.2011 
  34   1.0000      -0.729435       -19.8489 
  35   1.0000      -0.710866       -19.3436 
  36   1.0000      -0.666739       -18.1429 
  37   1.0000      -0.659376       -17.9425 
  38   1.0000      -0.637257       -17.3406 
  39   1.0000      -0.632416       -17.2089 
  40   1.0000      -0.631682       -17.1889 
  41   1.0000      -0.606309       -16.4985 
  42   1.0000      -0.589067       -16.0293 
  43   1.0000      -0.576710       -15.6931 
  44   1.0000      -0.563087       -15.3224 
  45   1.0000      -0.528222       -14.3737 
  46   1.0000      -0.520992       -14.1769 
  47   1.0000      -0.504785       -13.7359 
  48   1.0000      -0.497178       -13.5289 
  49   1.0000      -0.483925       -13.1683 
  50   1.0000      -0.478597       -13.0233 
  51   1.0000      -0.478538       -13.0217 
  52   1.0000      -0.462616       -12.5884 
  53   1.0000      -0.448151       -12.1948 
  54   1.0000      -0.443621       -12.0715 
  55   1.0000      -0.438349       -11.9281 
  56   1.0000      -0.437001       -11.8914 
  57   1.0000      -0.430984       -11.7277 
  58   1.0000      -0.426798       -11.6138 
  59   1.0000      -0.420328       -11.4377 
  60   1.0000      -0.408871       -11.1259 
  61   1.0000      -0.405247       -11.0273 
  62   1.0000      -0.394428       -10.7329 
  63   1.0000      -0.387240       -10.5373 
  64   1.0000      -0.384320       -10.4579 
  65   1.0000      -0.375294       -10.2123 
  66   1.0000      -0.369646       -10.0586 
  67   1.0000      -0.367751       -10.0070 
  68   1.0000      -0.367216        -9.9924 
  69   1.0000      -0.355967        -9.6863 
  70   1.0000      -0.346792        -9.4367 
  71   1.0000      -0.341769        -9.3000 
  72   1.0000      -0.336986        -9.1699 
  73   1.0000      -0.333183        -9.0664 
  74   1.0000      -0.332696        -9.0531 
  75   1.0000      -0.331266        -9.0142 
  76   1.0000      -0.328071        -8.9273 
  77   1.0000      -0.313373        -8.5273 
  78   1.0000      -0.295479        -8.0404 
  79   1.0000      -0.279186        -7.5970 
  80   1.0000      -0.268697        -7.3116 
  81   1.0000      -0.264494        -7.1973 
  82   1.0000      -0.253949        -6.9103 
  83   1.0000      -0.229548        -6.2463 
  84   1.0000      -0.226253        -6.1567 
  85   0.0000      -0.074957        -2.0397 
  86   0.0000      -0.029662        -0.8071 
  87   0.0000      -0.024481        -0.6662 
  88   0.0000      -0.020673        -0.5625 
  89   0.0000       0.029959         0.8152 
  90   0.0000       0.043041         1.1712 
  91   0.0000       0.056134         1.5275 
  92   0.0000       0.058090         1.5807 
  93   0.0000       0.059523         1.6197 
  94   0.0000       0.071245         1.9387 
  95   0.0000       0.077474         2.1082 
  96   0.0000       0.086866         2.3638 
  97   0.0000       0.088751         2.4150 
  98   0.0000       0.090180         2.4539 
  99   0.0000       0.092478         2.5165 
 100   0.0000       0.093039         2.5317 
 101   0.0000       0.097552         2.6545 
 102   0.0000       0.105692         2.8760 
 103   0.0000       0.112592         3.0638 
 104   0.0000       0.120457         3.2778 
 105   0.0000       0.124817         3.3965 
 106   0.0000       0.131131         3.5683 
 107   0.0000       0.136693         3.7196 
 108   0.0000       0.145250         3.9525 
 109   0.0000       0.146434         3.9847 
 110   0.0000       0.146659         3.9908 
 111   0.0000       0.149033         4.0554 
 112   0.0000       0.154409         4.2017 
 113   0.0000       0.154528         4.2049 
 114   0.0000       0.158985         4.3262 
 115   0.0000       0.161597         4.3973 
 116   0.0000       0.169984         4.6255 
 117   0.0000       0.172333         4.6894 
 118   0.0000       0.182898         4.9769 
 119   0.0000       0.195649         5.3239 
 120   0.0000       0.196969         5.3598 
 121   0.0000       0.200704         5.4614 
 122   0.0000       0.206808         5.6275 
 123   0.0000       0.210690         5.7332 
 124   0.0000       0.214842         5.8461 
 125   0.0000       0.233059         6.3418 
 126   0.0000       0.236239         6.4284 
 127   0.0000       0.252037         6.8583 
 128   0.0000       0.259094         7.0503 
 129   0.0000       0.262286         7.1372 
 130   0.0000       0.270367         7.3570 
 131   0.0000       0.278001         7.5648 
 132   0.0000       0.295134         8.0310 
 133   0.0000       0.300039         8.1645 
 134   0.0000       0.311809         8.4848 
 135   0.0000       0.325584         8.8596 
 136   0.0000       0.352240         9.5849 
 137   0.0000       0.357134         9.7181 
 138   0.0000       0.363661         9.8957 
 139   0.0000       0.370075        10.0702 
 140   0.0000       0.388669        10.5762 
 141   0.0000       0.396859        10.7991 
 142   0.0000       0.402921        10.9640 
 143   0.0000       0.403210        10.9719 
 144   0.0000       0.406819        11.0701 
 145   0.0000       0.411761        11.2046 
 146   0.0000       0.416404        11.3309 
 147   0.0000       0.419541        11.4163 
 148   0.0000       0.424904        11.5622 
 149   0.0000       0.430541        11.7156 
 150   0.0000       0.431060        11.7297 
 151   0.0000       0.440383        11.9834 
 152   0.0000       0.450000        12.2451 
 153   0.0000       0.455209        12.3869 
 154   0.0000       0.464186        12.6311 
 155   0.0000       0.466722        12.7002 
 156   0.0000       0.468897        12.7593 
 157   0.0000       0.473701        12.8901 
 158   0.0000       0.481019        13.0892 
 159   0.0000       0.488024        13.2798 
 160   0.0000       0.490786        13.3550 
 161   0.0000       0.492484        13.4012 
 162   0.0000       0.496749        13.5172 
 163   0.0000       0.497075        13.5261 
 164   0.0000       0.499921        13.6035 
 165   0.0000       0.500761        13.6264 
 166   0.0000       0.501736        13.6529 
 167   0.0000       0.511394        13.9157 
 168   0.0000       0.516423        14.0526 
 169   0.0000       0.520319        14.1586 
 170   0.0000       0.526418        14.3246 
 171   0.0000       0.536107        14.5882 
 172   0.0000       0.540692        14.7130 
 173   0.0000       0.567398        15.4397 
 174   0.0000       0.567868        15.4525 
 175   0.0000       0.568350        15.4656 
 176   0.0000       0.572125        15.5683 
 177   0.0000       0.580259        15.7896 
 178   0.0000       0.584628        15.9085 
 179   0.0000       0.593155        16.1406 
 180   0.0000       0.602427        16.3929 
 181   0.0000       0.602954        16.4072 
 182   0.0000       0.613547        16.6955 
 183   0.0000       0.617446        16.8015 
 184   0.0000       0.623914        16.9776 
 185   0.0000       0.626178        17.0392 
 186   0.0000       0.632433        17.2094 
 187   0.0000       0.633579        17.2405 
 188   0.0000       0.642073        17.4717 
 189   0.0000       0.642264        17.4769 
 190   0.0000       0.642984        17.4965 
 191   0.0000       0.648684        17.6516 
 192   0.0000       0.650448        17.6996 
 193   0.0000       0.654538        17.8109 
 194   0.0000       0.657135        17.8815 
 195   0.0000       0.657634        17.8951 
 196   0.0000       0.660009        17.9597 
 197   0.0000       0.661988        18.0136 
 198   0.0000       0.662539        18.0286 
 199   0.0000       0.665572        18.1111 
 200   0.0000       0.668306        18.1855 
 201   0.0000       0.672871        18.3098 
 202   0.0000       0.675106        18.3706 
 203   0.0000       0.677564        18.4375 
 204   0.0000       0.682443        18.5702 
 205   0.0000       0.685177        18.6446 
 206   0.0000       0.689929        18.7739 
 207   0.0000       0.691811        18.8251 
 208   0.0000       0.693378        18.8678 
 209   0.0000       0.700705        19.0672 
 210   0.0000       0.708351        19.2752 
 211   0.0000       0.712555        19.3896 
 212   0.0000       0.718351        19.5473 
 213   0.0000       0.727412        19.7939 
 214   0.0000       0.735489        20.0137 
 215   0.0000       0.737940        20.0804 
 216   0.0000       0.739647        20.1268 
 217   0.0000       0.752454        20.4753 
 218   0.0000       0.756171        20.5765 
 219   0.0000       0.766747        20.8642 
 220   0.0000       0.776476        21.1290 
 221   0.0000       0.780791        21.2464 
 222   0.0000       0.791810        21.5463 
 223   0.0000       0.812290        22.1035 
 224   0.0000       0.820267        22.3206 
 225   0.0000       0.826374        22.4868 
 226   0.0000       0.833384        22.6775 
 227   0.0000       0.836717        22.7682 
 228   0.0000       0.839916        22.8553 
 229   0.0000       0.848426        23.0868 
 230   0.0000       0.864321        23.5194 
 231   0.0000       0.870748        23.6943 
 232   0.0000       0.872518        23.7424 
 233   0.0000       0.881451        23.9855 
 234   0.0000       0.896960        24.4075 
 235   0.0000       0.904940        24.6247 
 236   0.0000       0.911463        24.8022 
 237   0.0000       0.925260        25.1776 
 238   0.0000       0.926316        25.2063 
 239   0.0000       0.936180        25.4747 
 240   0.0000       0.957560        26.0565 
 241   0.0000       0.958745        26.0888 
 242   0.0000       0.969572        26.3834 
 243   0.0000       0.976784        26.5796 
 244   0.0000       0.983734        26.7688 
 245   0.0000       0.984320        26.7847 
 246   0.0000       0.992953        27.0196 
 247   0.0000       1.009204        27.4618 
 248   0.0000       1.010989        27.5104 
 249   0.0000       1.020365        27.7655 
 250   0.0000       1.029601        28.0169 
 251   0.0000       1.036243        28.1976 
 252   0.0000       1.039295        28.2806 
 253   0.0000       1.045135        28.4396 
 254   0.0000       1.048680        28.5360 
 255   0.0000       1.060114        28.8472 
 256   0.0000       1.068393        29.0724 
 257   0.0000       1.079892        29.3853 
 258   0.0000       1.091086        29.6900 
 259   0.0000       1.097490        29.8642 
 260   0.0000       1.110316        30.2132 
 261   0.0000       1.140604        31.0374 
 262   0.0000       1.148955        31.2647 
 263   0.0000       1.161566        31.6078 
 264   0.0000       1.168363        31.7928 
 265   0.0000       1.183691        32.2099 
 266   0.0000       1.186786        32.2941 
 267   0.0000       1.203149        32.7393 
 268   0.0000       1.204960        32.7886 
 269   0.0000       1.210051        32.9272 
 270   0.0000       1.213588        33.0234 
 271   0.0000       1.215819        33.0841 
 272   0.0000       1.217915        33.1412 
 273   0.0000       1.221818        33.2474 
 274   0.0000       1.224250        33.3135 
 275   0.0000       1.246499        33.9190 
 276   0.0000       1.257953        34.2306 
 277   0.0000       1.275952        34.7204 
 278   0.0000       1.285362        34.9765 
 279   0.0000       1.298075        35.3224 
 280   0.0000       1.301323        35.4108 
 281   0.0000       1.306239        35.5446 
 282   0.0000       1.322465        35.9861 
 283   0.0000       1.325322        36.0638 
 284   0.0000       1.347589        36.6698 
 285   0.0000       1.361891        37.0589 
 286   0.0000       1.377320        37.4788 
 287   0.0000       1.378139        37.5011 
 288   0.0000       1.390105        37.8267 
 289   0.0000       1.390355        37.8335 
 290   0.0000       1.410622        38.3850 
 291   0.0000       1.422037        38.6956 
 292   0.0000       1.428260        38.8649 
 293   0.0000       1.430311        38.9207 
 294   0.0000       1.431456        38.9519 
 295   0.0000       1.432597        38.9829 
 296   0.0000       1.459821        39.7237 
 297   0.0000       1.464527        39.8518 
 298   0.0000       1.465375        39.8749 
 299   0.0000       1.468965        39.9726 
 300   0.0000       1.471152        40.0321 
 301   0.0000       1.476996        40.1911 
 302   0.0000       1.482828        40.3498 
 303   0.0000       1.497925        40.7606 
 304   0.0000       1.499169        40.7945 
 305   0.0000       1.505498        40.9667 
 306   0.0000       1.522127        41.4192 
 307   0.0000       1.527916        41.5767 
 308   0.0000       1.539191        41.8835 
 309   0.0000       1.568758        42.6881 
 310   0.0000       1.569721        42.7143 
 311   0.0000       1.573622        42.8204 
 312   0.0000       1.575330        42.8669 
 313   0.0000       1.585852        43.1532 
 314   0.0000       1.593187        43.3528 
 315   0.0000       1.599227        43.5172 
 316   0.0000       1.612895        43.8891 
 317   0.0000       1.623133        44.1677 
 318   0.0000       1.623409        44.1752 
 319   0.0000       1.628627        44.3172 
 320   0.0000       1.630402        44.3655 
 321   0.0000       1.633049        44.4375 
 322   0.0000       1.635628        44.5077 
 323   0.0000       1.637210        44.5507 
 324   0.0000       1.639206        44.6051 
 325   0.0000       1.640453        44.6390 
 326   0.0000       1.642325        44.6899 
 327   0.0000       1.648282        44.8520 
 328   0.0000       1.651643        44.9435 
 329   0.0000       1.655561        45.0501 
 330   0.0000       1.666477        45.3471 
 331   0.0000       1.669579        45.4316 
 332   0.0000       1.674862        45.5753 
 333   0.0000       1.683333        45.8058 
 334   0.0000       1.687624        45.9226 
 335   0.0000       1.690323        45.9960 
 336   0.0000       1.692838        46.0645 
 337   0.0000       1.696622        46.1674 
 338   0.0000       1.700601        46.2757 
 339   0.0000       1.700782        46.2806 
 340   0.0000       1.707346        46.4592 
 341   0.0000       1.710337        46.5406 
 342   0.0000       1.715145        46.6715 
 343   0.0000       1.722263        46.8652 
 344   0.0000       1.726778        46.9880 
 345   0.0000       1.729493        47.0619 
 346   0.0000       1.730461        47.0882 
 347   0.0000       1.739771        47.3416 
 348   0.0000       1.751862        47.6706 
 349   0.0000       1.758996        47.8647 
 350   0.0000       1.764151        48.0050 
 351   0.0000       1.766488        48.0686 
 352   0.0000       1.775753        48.3207 
 353   0.0000       1.782787        48.5121 
 354   0.0000       1.785545        48.5872 
 355   0.0000       1.790402        48.7193 
 356   0.0000       1.794986        48.8440 
 357   0.0000       1.797542        48.9136 
 358   0.0000       1.801905        49.0323 
 359   0.0000       1.820367        49.5347 
 360   0.0000       1.824131        49.6371 
 361   0.0000       1.826546        49.7028 
 362   0.0000       1.833982        49.9052 
 363   0.0000       1.839226        50.0479 
 364   0.0000       1.843146        50.1546 
 365   0.0000       1.847710        50.2787 
 366   0.0000       1.851327        50.3772 
 367   0.0000       1.857520        50.5457 
 368   0.0000       1.863672        50.7131 
 369   0.0000       1.882317        51.2205 
 370   0.0000       1.897392        51.6307 
 371   0.0000       1.908219        51.9253 
 372   0.0000       1.919053        52.2201 
 373   0.0000       1.924930        52.3800 
 374   0.0000       1.927844        52.4593 
 375   0.0000       1.931111        52.5482 
 376   0.0000       1.941644        52.8348 
 377   0.0000       1.958375        53.2901 
 378   0.0000       1.966229        53.5038 
 379   0.0000       1.976462        53.7823 
 380   0.0000       1.982334        53.9420 
 381   0.0000       1.985892        54.0389 
 382   0.0000       2.005564        54.5742 
 383   0.0000       2.008834        54.6632 
 384   0.0000       2.018788        54.9340 
 385   0.0000       2.027255        55.1644 
 386   0.0000       2.030804        55.2610 
 387   0.0000       2.053744        55.8852 
 388   0.0000       2.068032        56.2740 
 389   0.0000       2.080655        56.6175 
 390   0.0000       2.091151        56.9031 
 391   0.0000       2.100903        57.1685 
 392   0.0000       2.104659        57.2707 
 393   0.0000       2.113680        57.5162 
 394   0.0000       2.128857        57.9291 
 395   0.0000       2.164295        58.8935 
 396   0.0000       2.174252        59.1644 
 397   0.0000       2.178430        59.2781 
 398   0.0000       2.184770        59.4506 
 399   0.0000       2.195759        59.7496 
 400   0.0000       2.206669        60.0465 
 401   0.0000       2.214303        60.2542 
 402   0.0000       2.218099        60.3576 
 403   0.0000       2.223628        60.5080 
 404   0.0000       2.226539        60.5872 
 405   0.0000       2.236565        60.8600 
 406   0.0000       2.241010        60.9810 
 407   0.0000       2.264151        61.6107 
 408   0.0000       2.283190        62.1288 
 409   0.0000       2.291332        62.3503 
 410   0.0000       2.301847        62.6364 
 411   0.0000       2.308823        62.8263 
 412   0.0000       2.312399        62.9236 
 413   0.0000       2.325148        63.2705 
 414   0.0000       2.333601        63.5005 
 415   0.0000       2.338573        63.6358 
 416   0.0000       2.352921        64.0262 
 417   0.0000       2.358285        64.1722 
 418   0.0000       2.388322        64.9895 
 419   0.0000       2.393351        65.1264 
 420   0.0000       2.420802        65.8734 
 421   0.0000       2.425140        65.9914 
 422   0.0000       2.428717        66.0888 
 423   0.0000       2.431895        66.1752 
 424   0.0000       2.433596        66.2215 
 425   0.0000       2.435555        66.2748 
 426   0.0000       2.437547        66.3290 
 427   0.0000       2.446301        66.5672 
 428   0.0000       2.458897        66.9100 
 429   0.0000       2.482014        67.5390 
 430   0.0000       2.500729        68.0483 
 431   0.0000       2.510600        68.3169 
 432   0.0000       2.516363        68.4737 
 433   0.0000       2.530490        68.8581 
 434   0.0000       2.546576        69.2959 
 435   0.0000       2.547539        69.3221 
 436   0.0000       2.573083        70.0172 
 437   0.0000       2.592826        70.5544 
 438   0.0000       2.604246        70.8651 
 439   0.0000       2.629420        71.5502 
 440   0.0000       2.640132        71.8417 
 441   0.0000       2.645302        71.9823 
 442   0.0000       2.656722        72.2931 
 443   0.0000       2.709456        73.7280 
 444   0.0000       2.718773        73.9816 
 445   0.0000       2.721970        74.0686 
 446   0.0000       2.723977        74.1232 
 447   0.0000       2.729212        74.2656 
 448   0.0000       2.739364        74.5419 
 449   0.0000       2.748789        74.7984 
 450   0.0000       2.766768        75.2876 
 451   0.0000       2.829007        76.9812 
 452   0.0000       2.855197        77.6939 
 453   0.0000       2.869184        78.0745 
 454   0.0000       2.874131        78.2091 
 455   0.0000       2.908955        79.1567 
 456   0.0000       2.946031        80.1656 
 457   0.0000       3.085069        83.9490 
 458   0.0000       3.110529        84.6418 
 459   0.0000       3.395290        92.3905 
 460   0.0000       3.636230        98.9468 

                 SPIN DOWN ORBITALS
  NO   OCC          E(Eh)            E(eV) 
   0   1.0000     -10.238888      -278.6143 
   1   1.0000     -10.234761      -278.5020 
   2   1.0000     -10.228316      -278.3266 
   3   1.0000     -10.218974      -278.0724 
   4   1.0000     -10.218691      -278.0647 
   5   1.0000     -10.213220      -277.9159 
   6   1.0000     -10.213092      -277.9124 
   7   1.0000     -10.212355      -277.8923 
   8   1.0000     -10.210435      -277.8401 
   9   1.0000     -10.209780      -277.8222 
  10   1.0000     -10.208942      -277.7994 
  11   1.0000     -10.208704      -277.7930 
  12   1.0000     -10.207978      -277.7732 
  13   1.0000     -10.206783      -277.7407 
  14   1.0000     -10.199086      -277.5312 
  15   1.0000     -10.191029      -277.3120 
  16   1.0000     -10.188954      -277.2555 
  17   1.0000     -10.187154      -277.2066 
  18   1.0000     -10.185044      -277.1491 
  19   1.0000     -10.181592      -277.0552 
  20   1.0000     -10.177725      -276.9500 
  21   1.0000     -10.174973      -276.8751 
  22   1.0000     -10.153983      -276.3039 
  23   1.0000     -10.138755      -275.8895 
  24   1.0000      -0.896818       -24.4037 
  25   1.0000      -0.884255       -24.0618 
  26   1.0000      -0.833889       -22.6913 
  27   1.0000      -0.815164       -22.1817 
  28   1.0000      -0.804590       -21.8940 
  29   1.0000      -0.794972       -21.6323 
  30   1.0000      -0.778935       -21.1959 
  31   1.0000      -0.775117       -21.0920 
  32   1.0000      -0.752154       -20.4671 
  33   1.0000      -0.741510       -20.1775 
[...]
      dyz     :     0.000007
      dx2y2   :     0.000342
      dxy     :     0.000260
  2 C s       :    -0.003257  s :    -0.003257
      pz      :    -0.034502  p :    -0.047122
      px      :    -0.002443
      py      :    -0.010176
      dz2     :     0.000183  d :     0.018282
      dxz     :     0.016799
      dyz     :     0.000003
      dx2y2   :     0.000591
      dxy     :     0.000706
  3 C s       :    -0.001917  s :    -0.001917
      pz      :    -0.006661  p :    -0.013028
      px      :    -0.003526
      py      :    -0.002842
      dz2     :     0.000117  d :     0.016554
      dxz     :     0.013571
      dyz     :     0.002194
      dx2y2   :     0.000614
      dxy     :     0.000058
  4 C s       :     0.003435  s :     0.003435
      pz      :     0.106287  p :     0.110932
      px      :     0.002529
      py      :     0.002117
      dz2     :    -0.000451  d :    -0.003241
      dxz     :    -0.002408
      dyz     :     0.000385
      dx2y2   :    -0.000407
      dxy     :    -0.000359
  5 C s       :    -0.002816  s :    -0.002816
      pz      :    -0.050859  p :    -0.056796
      px      :    -0.002953
      py      :    -0.002984
      dz2     :     0.000231  d :     0.011704
      dxz     :     0.007565
      dyz     :     0.003023
      dx2y2   :     0.000436
      dxy     :     0.000449
  6 C s       :     0.005134  s :     0.005134
      pz      :     0.146577  p :     0.153978
      px      :     0.003686
      py      :     0.003715
      dz2     :    -0.000685  d :    -0.006361
      dxz     :    -0.002407
      dyz     :    -0.001900
      dx2y2   :    -0.000489
      dxy     :    -0.000881
  7 C s       :    -0.002463  s :    -0.002463
      pz      :    -0.041542  p :    -0.047097
      px      :    -0.002669
      py      :    -0.002886
      dz2     :     0.000197  d :     0.010044
      dxz     :     0.005905
      dyz     :     0.003103
      dx2y2   :     0.000404
      dxy     :     0.000434
  8 C s       :     0.002750  s :     0.002750
      pz      :     0.092140  p :     0.095902
      px      :     0.002080
      py      :     0.001682
      dz2     :    -0.000389  d :    -0.003214
      dxz     :    -0.002062
      dyz     :     0.000031
      dx2y2   :    -0.000413
      dxy     :    -0.000382
  9 H s       :     0.001350  s :     0.001350
      pz      :    -0.001425  p :    -0.001778
      px      :    -0.000154
      py      :    -0.000199
 10 H s       :    -0.002849  s :    -0.002849
      pz      :     0.002229  p :     0.002613
      px      :     0.000112
      py      :     0.000272
 11 C s       :    -0.000760  s :    -0.000760
      pz      :    -0.000612  p :    -0.003806
      px      :    -0.001443
      py      :    -0.001750
      dz2     :     0.000088  d :     0.004550
      dxz     :     0.002690
      dyz     :     0.001513
      dx2y2   :     0.000111
      dxy     :     0.000147
 12 H s       :     0.005390  s :     0.005390
      pz      :    -0.000060  p :    -0.000212
      px      :    -0.000118
      py      :    -0.000035
 13 H s       :     0.005403  s :     0.005403
      pz      :    -0.000060  p :    -0.000212
      px      :    -0.000118
      py      :    -0.000034
 14 C s       :     0.000001  s :     0.000001
      pz      :    -0.000125  p :    -0.000060
      px      :     0.000051
      py      :     0.000014
      dz2     :    -0.000008  d :    -0.000102
      dxz     :     0.000032
      dyz     :    -0.000025
      dx2y2   :    -0.000064
      dxy     :    -0.000036
 15 H s       :    -0.000071  s :    -0.000071
      pz      :     0.000001  p :    -0.000012
      px      :    -0.000008
      py      :    -0.000005
 16 H s       :    -0.000071  s :    -0.000071
      pz      :     0.000001  p :    -0.000012
      px      :    -0.000008
      py      :    -0.000005
 17 C s       :    -0.000029  s :    -0.000029
      pz      :     0.000098  p :     0.000029
      px      :    -0.000014
      py      :    -0.000055
      dz2     :    -0.000001  d :    -0.000016
      dxz     :    -0.000008
      dyz     :    -0.000001
      dx2y2   :    -0.000001
      dxy     :    -0.000005
 18 H s       :     0.000018  s :     0.000018
      pz      :     0.000000  p :     0.000009
      px      :     0.000003
      py      :     0.000005
 19 H s       :     0.000018  s :     0.000018
      pz      :     0.000000  p :     0.000009
      px      :     0.000003
      py      :     0.000005
 20 C s       :    -0.000006  s :    -0.000006
      pz      :    -0.000001  p :    -0.000029
      px      :    -0.000008
      py      :    -0.000020
      dz2     :    -0.000000  d :     0.000008
      dxz     :     0.000006
      dyz     :     0.000004
      dx2y2   :    -0.000002
      dxy     :     0.000001
 21 H s       :     0.000010  s :     0.000010
      pz      :    -0.000000  p :    -0.000001
      px      :    -0.000000
      py      :    -0.000001
 22 H s       :     0.000010  s :     0.000010
      pz      :    -0.000000  p :    -0.000001
      px      :    -0.000000
      py      :    -0.000001
 23 C s       :     0.000241  s :     0.000241
      pz      :     0.000483  p :     0.001595
      px      :     0.000499
      py      :     0.000612
      dz2     :    -0.000043  d :    -0.002049
      dxz     :    -0.001102
      dyz     :    -0.000656
      dx2y2   :    -0.000128
      dxy     :    -0.000121
 24 H s       :    -0.001631  s :    -0.001631
      pz      :     0.000014  p :     0.000056
      px      :     0.000034
      py      :     0.000008
 25 H s       :    -0.001629  s :    -0.001629
      pz      :     0.000014  p :     0.000056
      px      :     0.000034
      py      :     0.000008
 26 C s       :    -0.000045  s :    -0.000045
      pz      :     0.000104  p :    -0.000089
      px      :    -0.000083
      py      :    -0.000110
      dz2     :     0.000004  d :     0.000064
      dxz     :     0.000003
      dyz     :     0.000027
      dx2y2   :     0.000023
      dxy     :     0.000007
 27 H s       :     0.000063  s :     0.000063
      pz      :    -0.000003  p :    -0.000006
      px      :    -0.000001
      py      :    -0.000001
 28 H s       :     0.000063  s :     0.000063
      pz      :    -0.000003  p :    -0.000006
      px      :    -0.000001
      py      :    -0.000001
 29 C s       :     0.000007  s :     0.000007
      pz      :    -0.000043  p :    -0.000039
      px      :    -0.000003
      py      :     0.000007
      dz2     :    -0.000000  d :    -0.000002
      dxz     :     0.000004
      dyz     :    -0.000003
      dx2y2   :    -0.000004
      dxy     :     0.000001
 30 H s       :    -0.000008  s :    -0.000008
      pz      :     0.000000  p :    -0.000004
      px      :    -0.000001
      py      :    -0.000003
 31 H s       :    -0.000008  s :    -0.000008
      pz      :     0.000000  p :    -0.000004
      px      :    -0.000001
      py      :    -0.000003
 32 C s       :     0.000000  s :     0.000000
      pz      :     0.000002  p :     0.000009
      px      :     0.000002
      py      :     0.000005
      dz2     :    -0.000000  d :    -0.000006
      dxz     :    -0.000003
      dyz     :    -0.000001
      dx2y2   :    -0.000000
      dxy     :    -0.000001
 33 H s       :    -0.000004  s :    -0.000004
      pz      :     0.000000  p :     0.000000
      px      :     0.000000
      py      :     0.000000
 34 H s       :    -0.000004  s :    -0.000004
      pz      :     0.000000  p :     0.000000
      px      :     0.000000
      py      :     0.000000
 35 C s       :     0.003417  s :     0.003417
      pz      :     0.099118  p :     0.110999
      px      :     0.001608
      py      :     0.010273
      dz2     :    -0.000407  d :    -0.003916
      dxz     :    -0.002579
      dyz     :    -0.000000
      dx2y2   :    -0.000379
      dxy     :    -0.000550
 36 H s       :    -0.000003  s :    -0.000003
      pz      :    -0.000000  p :    -0.000002
      px      :    -0.000001
      py      :    -0.000001
 37 H s       :    -0.000003  s :    -0.000003
      pz      :     0.000000  p :     0.000001
      px      :     0.000000
      py      :     0.000000
 38 C s       :    -0.001278  s :    -0.001278
      pz      :    -0.015811  p :    -0.019116
      px      :    -0.002298
      py      :    -0.001007
      dz2     :     0.000112  d :     0.007276
      dxz     :     0.005508
      dyz     :     0.000669
      dx2y2   :     0.000350
      dxy     :     0.000636
 39 C s       :     0.001127  s :     0.001127
      pz      :     0.029962  p :     0.031633
      px      :     0.000852
      py      :     0.000820
      dz2     :    -0.000125  d :    -0.001459
      dxz     :    -0.000687
      dyz     :    -0.000329
      dx2y2   :    -0.000163
      dxy     :    -0.000156
 40 C s       :    -0.000693  s :    -0.000693
      pz      :    -0.013367  p :    -0.014790
      px      :    -0.000808
      py      :    -0.000616
      dz2     :     0.000067  d :     0.002995
      dxz     :     0.002056
      dyz     :     0.000626
      dx2y2   :     0.000118
      dxy     :     0.000128
 41 C s       :     0.001170  s :     0.001170
      pz      :     0.034319  p :     0.035953
      px      :     0.000764
      py      :     0.000869
      dz2     :    -0.000150  d :    -0.001205
      dxz     :    -0.000166
      dyz     :    -0.000675
      dx2y2   :    -0.000108
      dxy     :    -0.000106
 42 C s       :    -0.000693  s :    -0.000693
      pz      :    -0.013361  p :    -0.014785
      px      :    -0.000782
      py      :    -0.000642
      dz2     :     0.000067  d :     0.002995
      dxz     :     0.001916
      dyz     :     0.000766
      dx2y2   :     0.000122
      dxy     :     0.000124
 43 C s       :     0.001128  s :     0.001128
      pz      :     0.029945  p :     0.031617
      px      :     0.000867
      py      :     0.000806
      dz2     :    -0.000125  d :    -0.001460
      dxz     :    -0.000733
      dyz     :    -0.000282
      dx2y2   :    -0.000178
      dxy     :    -0.000141
 44 H s       :    -0.001055  s :    -0.001055
      pz      :     0.000990  p :     0.001153
      px      :     0.000146
      py      :     0.000017
 45 H s       :     0.000412  s :     0.000412
      pz      :    -0.000378  p :    -0.000465
      px      :    -0.000037
      py      :    -0.000050
 46 H s       :    -0.000930  s :    -0.000930
      pz      :     0.000771  p :     0.000921
      px      :     0.000046
      py      :     0.000104
 47 H s       :    -0.000928  s :    -0.000928
      pz      :     0.000770  p :     0.000919
      px      :     0.000039
      py      :     0.000111
 48 H s       :     0.000412  s :     0.000412
      pz      :    -0.000378  p :    -0.000465
      px      :    -0.000036
      py      :    -0.000051


                      *****************************
                      * MAYER POPULATION ANALYSIS *
                      *****************************

  NA   - Mulliken gross atomic population
  ZA   - Total nuclear charge
  QA   - Mulliken gross atomic charge
  VA   - Mayer's total valence
  BVA  - Mayer's bonded valence
  FA   - Mayer's free valence

  ATOM       NA         ZA         QA         VA         BVA        FA
  0 C      6.2736     6.0000    -0.2736     3.1169     3.0158     0.1010
  1 C      6.0993     6.0000    -0.0993     4.1767     4.1009     0.0758
  2 C      5.7114     6.0000     0.2886     2.5208     2.5180     0.0028
  3 C      5.9258     6.0000     0.0742     3.6824     3.6806     0.0018
  4 C      6.0598     6.0000    -0.0598     4.1489     4.1336     0.0152
  5 C      5.9789     6.0000     0.0211     3.8805     3.8761     0.0043
  6 C      6.1696     6.0000    -0.1696     3.8072     3.7772     0.0300
  7 C      6.0675     6.0000    -0.0675     4.1303     4.1272     0.0032
  8 C      5.9452     6.0000     0.0548     3.8914     3.8802     0.0112
  9 H      1.0444     1.0000    -0.0444     1.0054     1.0054     0.0000
 10 H      1.0321     1.0000    -0.0321     1.0096     1.0095     0.0000
 11 C      5.9449     6.0000     0.0551     4.0199     4.0198     0.0001
 12 H      0.9541     1.0000     0.0459     0.9753     0.9753     0.0001
 13 H      0.9542     1.0000     0.0458     0.9753     0.9752     0.0001
 14 C      6.0425     6.0000    -0.0425     4.1092     4.1092     0.0000
 15 H      0.9853     1.0000     0.0147     0.9626     0.9626     0.0000
 16 H      0.9854     1.0000     0.0146     0.9626     0.9626     0.0000
 17 C      6.0239     6.0000    -0.0239     4.1153     4.1153     0.0000
 18 H      0.9886     1.0000     0.0114     0.9684     0.9684     0.0000
 19 H      0.9886     1.0000     0.0114     0.9684     0.9684     0.0000
 20 C      5.9976     6.0000     0.0024     4.0161     4.0161     0.0000
 21 H      0.9842     1.0000     0.0158     0.9773     0.9773     0.0000
 22 H      0.9842     1.0000     0.0158     0.9774     0.9774     0.0000
 23 C      5.9641     6.0000     0.0359     4.0280     4.0280     0.0000
 24 H      0.9647     1.0000     0.0353     0.9692     0.9692     0.0000
 25 H      0.9647     1.0000     0.0353     0.9692     0.9691     0.0000
 26 C      6.0384     6.0000    -0.0384     4.1135     4.1135     0.0000
 27 H      0.9781     1.0000     0.0219     0.9641     0.9641     0.0000
 28 H      0.9781     1.0000     0.0219     0.9641     0.9641     0.0000
 29 C      6.0266     6.0000    -0.0266     4.1158     4.1158     0.0000
 30 H      0.9944     1.0000     0.0056     0.9673     0.9673     0.0000
 31 H      0.9943     1.0000     0.0057     0.9673     0.9673     0.0000
 32 C      5.9967     6.0000     0.0033     4.0169     4.0169     0.0000
 33 H      0.9796     1.0000     0.0204     0.9780     0.9780     0.0000
 34 H      0.9796     1.0000     0.0204     0.9780     0.9780     0.0000
 35 C      5.8343     6.0000     0.1657     2.6440     2.6305     0.0135
 36 H      0.9845     1.0000     0.0155     0.9749     0.9749     0.0000
 37 H      0.9863     1.0000     0.0137     0.9747     0.9747     0.0000
 38 C      6.2680     6.0000    -0.2680     3.9196     3.9191     0.0005
 39 C      5.9607     6.0000     0.0393     3.9940     3.9929     0.0012
 40 C      5.9573     6.0000     0.0427     4.0044     4.0041     0.0003
 41 C      5.9680     6.0000     0.0320     4.0003     3.9987     0.0016
 42 C      5.9540     6.0000     0.0460     4.0014     4.0012     0.0003
 43 C      5.9670     6.0000     0.0330     3.9956     3.9945     0.0012
 44 H      1.0139     1.0000    -0.0139     0.9700     0.9700     0.0000
 45 H      1.0205     1.0000    -0.0205     0.9701     0.9701     0.0000
 46 H      1.0326     1.0000    -0.0326     0.9848     0.9848     0.0000
 47 H      1.0320     1.0000    -0.0320     0.9844     0.9844     0.0000
 48 H      1.0208     1.0000    -0.0208     0.9703     0.9703     0.0000

  Mayer bond orders larger than 0.100000
B(  0-C ,  1-C ) :   2.8941 B(  1-C ,  3-C ) :   1.0591 B(  2-C ,  6-C ) :   0.9284 
B(  2-C , 35-C ) :   1.6918 B(  2-C , 38-C ) :  -0.1844 B(  3-C ,  4-C ) :   1.2797 
B(  3-C ,  8-C ) :   1.2715 B(  4-C ,  5-C ) :   1.4867 B(  4-C , 11-C ) :   1.1021 
B(  5-C ,  6-C ) :   1.3241 B(  5-C ,  9-H ) :   0.9256 B(  6-C ,  7-C ) :   1.3328 
B(  7-C ,  8-C ) :   1.4961 B(  7-C , 23-C ) :   1.0951 B(  8-C , 10-H ) :   0.9259 
B( 11-C , 12-H ) :   0.8931 B( 11-C , 13-H ) :   0.8930 B( 11-C , 14-C ) :   1.0995 
B( 14-C , 15-H ) :   0.9289 B( 14-C , 16-H ) :   0.9289 B( 14-C , 17-C ) :   1.0745 
B( 17-C , 18-H ) :   0.9419 B( 17-C , 19-H ) :   0.9419 B( 17-C , 20-C ) :   1.1037 
B( 20-C , 21-H ) :   0.9663 B( 20-C , 22-H ) :   0.9663 B( 20-C , 36-H ) :   0.9628 
B( 23-C , 24-H ) :   0.8970 B( 23-C , 25-H ) :   0.8970 B( 23-C , 26-C ) :   1.1028 
B( 26-C , 27-H ) :   0.9302 B( 26-C , 28-H ) :   0.9302 B( 26-C , 29-C ) :   1.0732 
B( 29-C , 30-H ) :   0.9416 B( 29-C , 31-H ) :   0.9416 B( 29-C , 32-C ) :   1.1046 
B( 32-C , 33-H ) :   0.9665 B( 32-C , 34-H ) :   0.9665 B( 32-C , 37-H ) :   0.9622 
B( 35-C , 38-C ) :   0.9567 B( 38-C , 39-C ) :   1.4264 B( 38-C , 43-C ) :   1.4258 
B( 39-C , 40-C ) :   1.4771 B( 39-C , 46-H ) :   0.9420 B( 40-C , 41-C ) :   1.4417 
B( 40-C , 48-H ) :   0.9386 B( 41-C , 42-C ) :   1.4392 B( 41-C , 44-H ) :   0.9449 
B( 42-C , 43-C ) :   1.4771 B( 42-C , 45-H ) :   0.9386 B( 43-C , 47-H ) :   0.9422 


-------
TIMINGS
-------

Total SCF time: 0 days 0 hours 0 min 54 sec 

Total time                  ....      54.798 sec
Sum of individual times     ....      53.454 sec  ( 97.5%)

Fock matrix formation       ....      48.120 sec  ( 87.8%)
  XC integration            ....       2.452 sec  (  5.1% of F)
    Basis function eval.    ....       0.497 sec  ( 20.3% of XC)
    Density eval.           ....       0.437 sec  ( 17.8% of XC)
    XC-Functional eval.     ....       0.079 sec  (  3.2% of XC)
    XC-Potential eval.      ....       0.449 sec  ( 18.3% of XC)
Diagonalization             ....       1.405 sec  (  2.6%)
Density matrix formation    ....       0.083 sec  (  0.2%)
Population analysis         ....       0.266 sec  (  0.5%)
Initial guess               ....       0.172 sec  (  0.3%)
Orbital Transformation      ....       0.000 sec  (  0.0%)
Orbital Orthonormalization  ....       0.130 sec  (  0.2%)
DIIS solution               ....       0.901 sec  (  1.6%)
Grid generation             ....       2.506 sec  (  4.6%)

-------------------------   --------------------
FINAL SINGLE POINT ENERGY      -928.844015489782
-------------------------   --------------------

                                *** OPTIMIZATION RUN DONE ***

                            ***************************************
                            *     ORCA property calculations      *
                            ***************************************

                                    ---------------------
                                    Active property flags
                                    ---------------------
   (+) Dipole Moment


------------------------------------------------------------------------------
                       ORCA ELECTRIC PROPERTIES CALCULATION
------------------------------------------------------------------------------

Dipole Moment Calculation                       ... on
Quadrupole Moment Calculation                   ... off
Polarizability Calculation                      ... off
GBWName                                         ... opt.gbw
Electron density file                           ... opt.scfp
The origin for moment calculation is the CENTER OF MASS  = ( 3.193923, -0.049062 -0.019792)

-------------
DIPOLE MOMENT
-------------
                                X             Y             Z
Electronic contribution:      8.93079      -0.20075       0.00157
Nuclear contribution   :     -5.19141       0.09798       0.00617
                        -----------------------------------------
Total Dipole Moment    :      3.73939      -0.10277       0.00773
                        -----------------------------------------
Magnitude (a.u.)       :      3.74081
Magnitude (Debye)      :      9.50837



--------------------
Rotational spectrum 
--------------------
 
Rotational constants in cm-1:     0.006518     0.004317     0.002607 
Rotational constants in MHz :   195.393866   129.427425    78.158665 

 Dipole components along the rotational axes: 
x,y,z [a.u.] :     3.407816    -1.542846     0.006386 
x,y,z [Debye]:     8.661980    -3.921603     0.016232 

 

Timings for individual modules:

Sum of individual times         ...     1397.507 sec (=  23.292 min)
GTO integral calculation        ...       21.334 sec (=   0.356 min)   1.5 %
SCF iterations                  ...     1104.692 sec (=  18.412 min)  79.0 %
SCF Gradient evaluation         ...      264.629 sec (=   4.410 min)  18.9 %
Geometry relaxation             ...        6.852 sec (=   0.114 min)   0.5 %
                             ****ORCA TERMINATED NORMALLY****
TOTAL RUN TIME: 0 days 0 hours 23 minutes 25 seconds 395 msec
