
                                 *****************
                                 * O   R   C   A *
                                 *****************

                                            #,                                       
                                            ###                                      
                                            ####                                     
                                            #####                                    
                                            ######                                   
                                           ########,                                 
                                     ,,################,,,,,                         
                               ,,#################################,,                 
                          ,,##########################################,,             
                       ,#########################################, ''#####,          
                    ,#############################################,,   '####,        
                  ,##################################################,,,,####,       
                ,###########''''           ''''###############################       
              ,#####''   ,,,,##########,,,,          '''####'''          '####       
            ,##' ,,,,###########################,,,                        '##       
           ' ,,###''''                  '''############,,,                           
         ,,##''                                '''############,,,,        ,,,,,,###''
      ,#''                                            '''#######################'''  
     '                                                          ''''####''''         
             ,#######,   #######,   ,#######,      ##                                
            ,#'     '#,  ##    ##  ,#'     '#,    #''#        ######   ,####,        
            ##       ##  ##   ,#'  ##            #'  '#       #        #'  '#        
            ##       ##  #######   ##           ,######,      #####,   #    #        
            '#,     ,#'  ##    ##  '#,     ,#' ,#      #,         ##   #,  ,#        
             '#######'   ##     ##  '#######'  #'      '#     #####' # '####'        



                  #######################################################
                  #                        -***-                        #
                  #          Department of theory and spectroscopy      #
                  #    Directorship and core code : Frank Neese         #
                  #        Max Planck Institute fuer Kohlenforschung    #
                  #                Kaiser Wilhelm Platz 1               #
                  #                 D-45470 Muelheim/Ruhr               #
                  #                      Germany                        #
                  #                                                     #
                  #                  All rights reserved                #
                  #                        -***-                        #
                  #######################################################


                         Program Version 5.0.4 -  RELEASE  -


 With contributions from (in alphabetic order):
   Daniel Aravena         : Magnetic Suceptibility
   Michael Atanasov       : Ab Initio Ligand Field Theory (pilot matlab implementation)
   Alexander A. Auer      : GIAO ZORA, VPT2 properties, NMR spectrum
   Ute Becker             : Parallelization
   Giovanni Bistoni       : ED, misc. LED, open-shell LED, HFLD
   Martin Brehm           : Molecular dynamics
   Dmytro Bykov           : SCF Hessian
   Vijay G. Chilkuri      : MRCI spin determinant printing, contributions to CSF-ICE
   Dipayan Datta          : RHF DLPNO-CCSD density
   Achintya Kumar Dutta   : EOM-CC, STEOM-CC
   Dmitry Ganyushin       : Spin-Orbit,Spin-Spin,Magnetic field MRCI
   Miquel Garcia          : C-PCM and meta-GGA Hessian, CC/C-PCM, Gaussian charge scheme
   Yang Guo               : DLPNO-NEVPT2, F12-NEVPT2, CIM, IAO-localization
   Andreas Hansen         : Spin unrestricted coupled pair/coupled cluster methods
   Benjamin Helmich-Paris : MC-RPA, TRAH-SCF, COSX integrals
   Lee Huntington         : MR-EOM, pCC
   Robert Izsak           : Overlap fitted RIJCOSX, COSX-SCS-MP3, EOM
   Marcus Kettner         : VPT2
   Christian Kollmar      : KDIIS, OOCD, Brueckner-CCSD(T), CCSD density, CASPT2, CASPT2-K
   Simone Kossmann        : Meta GGA functionals, TD-DFT gradient, OOMP2, MP2 Hessian
   Martin Krupicka        : Initial AUTO-CI
   Lucas Lang             : DCDCAS
   Marvin Lechner         : AUTO-CI (C++ implementation), FIC-MRCC
   Dagmar Lenk            : GEPOL surface, SMD
   Dimitrios Liakos       : Extrapolation schemes; Compound Job, initial MDCI parallelization
   Dimitrios Manganas     : Further ROCIS development; embedding schemes
   Dimitrios Pantazis     : SARC Basis sets
   Anastasios Papadopoulos: AUTO-CI, single reference methods and gradients
   Taras Petrenko         : DFT Hessian,TD-DFT gradient, ASA, ECA, R-Raman, ABS, FL, XAS/XES, NRVS
   Peter Pinski           : DLPNO-MP2, DLPNO-MP2 Gradient
   Christoph Reimann      : Effective Core Potentials
   Marius Retegan         : Local ZFS, SOC
   Christoph Riplinger    : Optimizer, TS searches, QM/MM, DLPNO-CCSD(T), (RO)-DLPNO pert. Triples
   Tobias Risthaus        : Range-separated hybrids, TD-DFT gradient, RPA, STAB
   Michael Roemelt        : Original ROCIS implementation
   Masaaki Saitow         : Open-shell DLPNO-CCSD energy and density
   Barbara Sandhoefer     : DKH picture change effects
   Avijit Sen             : IP-ROCIS
   Kantharuban Sivalingam : CASSCF convergence, NEVPT2, FIC-MRCI
   Bernardo de Souza      : ESD, SOC TD-DFT
   Georgi Stoychev        : AutoAux, RI-MP2 NMR, DLPNO-MP2 response
   Willem Van den Heuvel  : Paramagnetic NMR
   Boris Wezisla          : Elementary symmetry handling
   Frank Wennmohs         : Technical directorship


 We gratefully acknowledge several colleagues who have allowed us to
 interface, adapt or use parts of their codes:
   Stefan Grimme, W. Hujo, H. Kruse, P. Pracht,  : VdW corrections, initial TS optimization,
                  C. Bannwarth, S. Ehlert          DFT functionals, gCP, sTDA/sTD-DF
   Ed Valeev, F. Pavosevic, A. Kumar             : LibInt (2-el integral package), F12 methods
   Garnet Chan, S. Sharma, J. Yang, R. Olivares  : DMRG
   Ulf Ekstrom                                   : XCFun DFT Library
   Mihaly Kallay                                 : mrcc  (arbitrary order and MRCC methods)
   Jiri Pittner, Ondrej Demel                    : Mk-CCSD
   Frank Weinhold                                : gennbo (NPA and NBO analysis)
   Christopher J. Cramer and Donald G. Truhlar   : smd solvation model
   Lars Goerigk                                  : TD-DFT with DH, B97 family of functionals
   V. Asgeirsson, H. Jonsson                     : NEB implementation
   FAccTs GmbH                                   : IRC, NEB, NEB-TS, DLPNO-Multilevel, CI-OPT
                                                   MM, QMMM, 2- and 3-layer-ONIOM, Crystal-QMMM,
                                                   LR-CPCM, SF, NACMEs, symmetry and pop. for TD-DFT,
                                                   nearIR, NL-DFT gradient (VV10), updates on ESD,
                                                   ML-optimized integration grids
   S Lehtola, MJT Oliveira, MAL Marques          : LibXC Library
   Liviu Ungur et al                             : ANISO software


 Your calculation uses the libint2 library for the computation of 2-el integrals
 For citations please refer to: http://libint.valeyev.net

 Your ORCA version has been built with support for libXC version: 5.1.0
 For citations please refer to: https://tddft.org/programs/libxc/

 This ORCA versions uses:
   CBLAS   interface :  Fast vector & matrix operations
   LAPACKE interface :  Fast linear algebra routines
   SCALAPACK package :  Parallel linear algebra routines
   Shared memory     :  Shared parallel matrices
   BLAS/LAPACK       :  OpenBLAS 0.3.15  USE64BITINT DYNAMIC_ARCH NO_AFFINITY SkylakeX SINGLE_THREADED
        Core in use  :  SkylakeX
   Copyright (c) 2011-2014, The OpenBLAS Project




***************************************
The coordinates will be read from file: model.xyz
***************************************


================================================================================

----- Orbital basis set information -----
Your calculation utilizes the basis: cc-pVDZ 
       H, B-Ne : Obtained from the ccRepo (grant-hill.group.shef.ac.uk/ccrepo) Feb. 2017
                 T. H. Dunning, Jr., J. Chem. Phys. 90, 1007 (1989)
            He : Obtained from the ccRepo (grant-hill.group.shef.ac.uk/ccrepo) Feb. 2017
                 D. E. Woon, T. H. Dunning, Jr., J. Chem. Phys. 100, 2975 (1994)
  Li-Be, Na-Mg : Obtained from the ccRepo (grant-hill.group.shef.ac.uk/ccrepo) Feb. 2017
                 B. P. Prascher, D. E. Woon, K. A. Peterson, T. H. Dunning, Jr., A. K. Wilson, Theor. Chem. Acc. 128, 69 (2011)
         Al-Ar : Obtained from the ccRepo (grant-hill.group.shef.ac.uk/ccrepo) Feb. 2017
                 D. E. Woon, T. H. Dunning, Jr., J. Chem. Phys. 98, 1358 (1993)
            Ca : Obtained from the Peterson Research Group Website (tyr0.chem.wsu.edu/~kipeters) Feb. 2017
                 J. Koput, K. A. Peterson, J. Phys. Chem. 106, 9595 (2002)
         Sc-Zn : Obtained from the ccRepo (grant-hill.group.shef.ac.uk/ccrepo) Feb. 2017
                 N. B. Balabanov, K. A. Peterson, J. Chem. Phys. 123, 064107 (2005)
                 N. B. Balabanov, K. A. Peterson, J. Chem. Phys. 125, 074110 (2006)
         Ga-Kr : Obtained from the ccRepo (grant-hill.group.shef.ac.uk/ccrepo) Feb. 2017
                 A. K. Wilson, D. E. Woon, K. A. Peterson, T. H. Dunning, Jr., J. Chem. Phys. 110, 7667 (1999)

----- AuxJ basis set information -----
Your calculation utilizes the auxiliary basis: def2/J
   F. Weigend, Phys. Chem. Chem. Phys. 8, 1057 (2006).

================================================================================
                                        WARNINGS
                       Please study these warnings very carefully!
================================================================================

WARNING: Old DensityContainer found on disk!
         Will remove this file - 
         If you want to keep old densities, please start your calculation with a different basename. 


WARNING: your system is open-shell and RHF/RKS was chosen
  ===> : WILL SWITCH to UHF/UKS


WARNING: Geometry Optimization
  ===> : Switching off AutoStart
         For restart on a previous wavefunction, please use MOREAD

INFO   : the flag for use of the SHARK integral package has been found!

================================================================================
                                       INPUT FILE
================================================================================
NAME = opt_cc-pVDZ.inp
|  1> ! B3LYP cc-pVDZ OPT
|  2> %pal nprocs 16 end
|  3> *XYZFile 0 2 model.xyz
|  4> 
|  5>                          ****END OF INPUT****
================================================================================

                       *****************************
                       * Geometry Optimization Run *
                       *****************************

Geometry optimization settings:
Update method            Update   .... BFGS
Choice of coordinates    CoordSys .... Z-matrix Internals
Initial Hessian          InHess   .... Almoef's Model

Convergence Tolerances:
Energy Change            TolE     ....  5.0000e-06 Eh
Max. Gradient            TolMAXG  ....  3.0000e-04 Eh/bohr
RMS Gradient             TolRMSG  ....  1.0000e-04 Eh/bohr
Max. Displacement        TolMAXD  ....  4.0000e-03 bohr
RMS Displacement         TolRMSD  ....  2.0000e-03 bohr
Strict Convergence                ....  False
------------------------------------------------------------------------------
                        ORCA OPTIMIZATION COORDINATE SETUP
------------------------------------------------------------------------------

The optimization will be done in new redundant internal coordinates
Making redundant internal coordinates   ...  (new redundants) done
Evaluating the initial hessian          ...  (Almloef) done
Evaluating the coordinates              ...  done
Calculating the B-matrix                .... done
Calculating the G-matrix                .... done
Diagonalizing the G-matrix              .... done
Small eigenvalue found = 7.063e-04
Small eigenvalue found = 1.973e-03
Small eigenvalue found = 6.800e-03
Small eigenvalue found = 8.817e-03
Small eigenvalue found = 1.949e-02
Small eigenvalue found = 2.131e-02
Small eigenvalue found = 2.363e-02
Small eigenvalue found = 2.716e-02
Small eigenvalue found = 2.973e-02
The first mode is                       ....  117
The number of degrees of freedom        ....  141

    -----------------------------------------------------------------
                    Redundant Internal Coordinates


    -----------------------------------------------------------------
         Definition                    Initial Value    Approx d2E/dq
    -----------------------------------------------------------------
      1. B(C   1,C   0)                  1.2846         0.920269   
      2. B(C   3,C   1)                  1.3933         0.617253   
      3. B(C   4,C   3)                  1.4430         0.514269   
      4. B(C   5,C   4)                  1.3852         0.635965   
      5. B(C   6,C   2)                  1.4155         0.568882   
      6. B(C   6,C   5)                  1.4204         0.558770   
      7. B(C   7,C   6)                  1.4333         0.532903   
      8. B(C   8,C   7)                  1.3828         0.641601   
      9. B(C   8,C   3)                  1.4305         0.538361   
     10. B(H   9,C   5)                  1.0897         0.360497   
     11. B(H  10,C   8)                  1.0895         0.360716   
     12. B(C  11,C   4)                  1.5118         0.399345   
     13. B(H  12,C  11)                  1.1047         0.341115   
     14. B(H  13,C  11)                  1.1047         0.341110   
     15. B(C  14,C  11)                  1.5305         0.372879   
     16. B(H  15,C  14)                  1.1059         0.339666   
     17. B(H  16,C  14)                  1.1059         0.339662   
     18. B(C  17,C  14)                  1.5338         0.368442   
     19. B(H  18,C  17)                  1.1054         0.340296   
     20. B(H  19,C  17)                  1.1054         0.340296   
     21. B(C  20,C  17)                  1.5306         0.372718   
     22. B(H  21,C  20)                  1.1038         0.342274   
     23. B(H  22,C  20)                  1.1038         0.342276   
     24. B(C  23,C   7)                  1.5151         0.394614   
     25. B(H  24,C  23)                  1.1057         0.339904   
     26. B(H  25,C  23)                  1.1057         0.339897   
     27. B(C  26,C  23)                  1.5309         0.372401   
     28. B(H  27,C  26)                  1.1053         0.340472   
     29. B(H  28,C  26)                  1.1053         0.340475   
     30. B(C  29,C  26)                  1.5336         0.368616   
     31. B(H  30,C  29)                  1.1059         0.339646   
     32. B(H  31,C  29)                  1.1059         0.339647   
     33. B(C  32,C  29)                  1.5307         0.372556   
     34. B(H  33,C  32)                  1.1035         0.342694   
     35. B(H  34,C  32)                  1.1035         0.342693   
     36. B(C  35,C   2)                  1.2256         1.143070   
     37. B(H  36,C  20)                  1.1020         0.344619   
     38. B(H  37,C  32)                  1.1020         0.344591   
     39. B(C  38,C  35)                  1.4238         0.551891   
     40. B(C  39,C  38)                  1.4134         0.573416   
     41. B(C  40,C  39)                  1.3935         0.616744   
     42. B(C  41,C  40)                  1.4001         0.601993   
     43. B(C  42,C  41)                  1.4002         0.601783   
     44. B(C  43,C  42)                  1.3935         0.616861   
     45. B(C  43,C  38)                  1.4134         0.573293   
     46. B(H  44,C  41)                  1.0924         0.356981   
     47. B(H  45,C  42)                  1.0923         0.357007   
     48. B(H  46,C  39)                  1.0915         0.358166   
     49. B(H  47,C  43)                  1.0915         0.358181   
     50. B(H  48,C  40)                  1.0923         0.357013   
     51. L(C   0,C   1,C   3,C   8, 1) 179.7438         0.465954   
     52. L(C   0,C   1,C   3,C   8, 2) 180.4577         0.465954   
     53. L(C   6,C   2,C  35,C   5, 2) 179.8189         0.477667   
     54. L(C   6,C   2,C  35,C   5, 1) 179.2792         0.477667   
     55. A(C   4,C   3,C   8)          119.4622         0.409365   
     56. A(C   1,C   3,C   8)          119.3223         0.422878   
     57. A(C   1,C   3,C   4)          121.2155         0.419436   
     58. A(C   5,C   4,C  11)          122.9690         0.403167   
     59. A(C   3,C   4,C  11)          119.4943         0.388422   
     60. A(C   3,C   4,C   5)          117.5367         0.421677   
     61. A(C   4,C   5,H   9)          120.2416         0.354498   
     62. A(C   6,C   5,H   9)          117.3730         0.346835   
     63. A(C   4,C   5,C   6)          122.3854         0.427985   
     64. A(C   2,C   6,C   7)          120.6716         0.416012   
     65. A(C   5,C   6,C   7)          120.5942         0.414687   
     66. A(C   2,C   6,C   5)          118.7343         0.419539   
     67. A(C   8,C   7,C  23)          123.1736         0.402947   
     68. A(C   6,C   7,C  23)          119.6848         0.390030   
     69. A(C   6,C   7,C   8)          117.1415         0.425038   
     70. A(C   3,C   8,H  10)          116.5168         0.344708   
     71. A(C   7,C   8,H  10)          120.6032         0.355066   
     72. A(C   3,C   8,C   7)          122.8800         0.425814   
     73. A(H  13,C  11,C  14)          109.7451         0.321353   
     74. A(H  12,C  11,C  14)          109.7499         0.321354   
     75. A(C   4,C  11,H  12)          107.8768         0.324988   
     76. A(C   4,C  11,H  13)          107.8755         0.324987   
     77. A(C   4,C  11,C  14)          116.8857         0.367408   
     78. A(H  12,C  11,H  13)          103.9022         0.285950   
     79. A(H  16,C  14,C  17)          109.0125         0.320501   
     80. A(H  15,C  14,C  17)          109.0128         0.320502   
     81. A(C  11,C  14,C  17)          112.4564         0.362378   
     82. A(H  15,C  14,H  16)          106.2621         0.285571   
     83. A(C  11,C  14,H  16)          109.9489         0.321129   
     84. A(C  11,C  14,H  15)          109.9502         0.321130   
     85. A(C  14,C  17,H  18)          109.1704         0.320599   
     86. A(H  19,C  17,C  20)          109.6374         0.321205   
     87. A(H  18,C  17,C  20)          109.6384         0.321205   
     88. A(C  14,C  17,C  20)          113.1379         0.362352   
     89. A(H  18,C  17,H  19)          105.8231         0.285737   
     90. A(C  14,C  17,H  19)          109.1709         0.320599   
     91. A(H  21,C  20,H  22)          107.4097         0.286254   
     92. A(C  17,C  20,H  22)          111.3179         0.321510   
     93. A(C  17,C  20,H  21)          111.3183         0.321509   
     94. A(H  22,C  20,H  36)          107.5731         0.286559   
     95. A(H  21,C  20,H  36)          107.5737         0.286559   
     96. A(C  17,C  20,H  36)          111.4416         0.321869   
     97. A(H  25,C  23,C  26)          109.3208         0.321098   
     98. A(H  24,C  23,C  26)          109.3225         0.321099   
     99. A(C   7,C  23,C  26)          116.6820         0.366577   
    100. A(H  24,C  23,H  25)          104.6532         0.285633   
    101. A(C   7,C  23,H  24)          108.0937         0.324163   
    102. A(C   7,C  23,H  25)          108.0919         0.324162   
    103. A(H  28,C  26,C  29)          109.0900         0.320651   
    104. A(H  27,C  26,C  29)          109.0897         0.320651   
    105. A(C  23,C  26,C  29)          112.5620         0.362328   
    106. A(H  27,C  26,H  28)          106.2277         0.285783   
    107. A(C  23,C  26,H  28)          109.8351         0.321187   
    108. A(C  23,C  26,H  27)          109.8329         0.321187   
    109. A(H  31,C  29,C  32)          109.5820         0.321081   
    110. A(H  30,C  29,C  32)          109.5807         0.321081   
    111. A(C  26,C  29,C  32)          113.1028         0.362354   
    112. A(H  30,C  29,H  31)          105.9068         0.285567   
    113. A(C  26,C  29,H  31)          109.2068         0.320524   
    114. A(C  26,C  29,H  30)          109.2077         0.320523   
    115. A(H  33,C  32,H  34)          107.3864         0.286363   
    116. A(C  29,C  32,H  34)          111.2757         0.321551   
    117. A(C  29,C  32,H  33)          111.2751         0.321551   
    118. A(H  34,C  32,H  37)          107.6230         0.286610   
    119. A(H  33,C  32,H  37)          107.6224         0.286610   
    120. A(C  29,C  32,H  37)          111.4561         0.321842   
    121. L(C   2,C  35,C  38,C  39, 2) 180.1522         0.475009   
    122. L(C   2,C  35,C  38,C  39, 1) 179.9750         0.475009   
    123. A(C  39,C  38,C  43)          119.0331         0.422062   
    124. A(C  35,C  38,C  43)          120.5006         0.419190   
    125. A(C  35,C  38,C  39)          120.4663         0.419207   
    126. A(C  40,C  39,H  46)          120.5772         0.352274   
    127. A(C  38,C  39,H  46)          119.1821         0.347969   
    128. A(C  38,C  39,C  40)          120.2408         0.427615   
    129. A(C  41,C  40,H  48)          120.0471         0.350644   
    130. A(C  39,C  40,H  48)          119.6858         0.352081   
    131. A(C  39,C  40,C  41)          120.2672         0.431363   
    132. A(C  42,C  41,H  44)          120.0344         0.350618   
    133. A(C  40,C  41,H  44)          120.0133         0.350639   
    134. A(C  40,C  41,C  42)          119.9522         0.429466   
    135. A(C  43,C  42,H  45)          119.6819         0.352092   
    136. A(C  41,C  42,H  45)          120.0660         0.350622   
    137. A(C  41,C  42,C  43)          120.2522         0.431351   
    138. A(C  42,C  43,H  47)          120.5651         0.352287   
    139. A(C  38,C  43,H  47)          119.1804         0.347958   
    140. A(C  38,C  43,C  42)          120.2545         0.427614   
    141. D(C  11,C   4,C   3,C   8)   -179.9935         0.018029   
    142. D(C   5,C   4,C   3,C   8)      0.0064         0.018029   
    143. D(C   5,C   4,C   3,C   1)   -179.9876         0.018029   
    144. D(C  11,C   4,C   3,C   1)      0.0125         0.018029   
    145. D(C   6,C   5,C   4,C  11)    179.9904         0.028077   
    146. D(H   9,C   5,C   4,C  11)     -0.0024         0.028077   
    147. D(H   9,C   5,C   4,C   3)    179.9976         0.028077   
    148. D(C   6,C   5,C   4,C   3)     -0.0095         0.028077   
    149. D(C   2,C   6,C   5,H   9)      0.0077         0.021383   
    150. D(C   7,C   6,C   5,H   9)   -179.9948         0.021383   
    151. D(C   7,C   6,C   5,C   4)      0.0122         0.021383   
    152. D(C   2,C   6,C   5,C   4)   -179.9853         0.021383   
    153. D(C   8,C   7,C   6,C   5)     -0.0111         0.019390   
    154. D(C  23,C   7,C   6,C   2)     -0.0091         0.019390   
    155. D(C   8,C   7,C   6,C   2)    179.9864         0.019390   
    156. D(C  23,C   7,C   6,C   5)    179.9935         0.019390   
    157. D(H  10,C   8,C   7,C  23)      0.0015         0.028611   
    158. D(C   3,C   8,C   7,C  23)   -179.9963         0.028611   
    159. D(C   3,C   8,C   7,C   6)      0.0084         0.028611   
    160. D(H  10,C   8,C   7,C   6)   -179.9937         0.028611   
    161. D(C   7,C   8,C   3,C   4)     -0.0063         0.019800   
    162. D(C   7,C   8,C   3,C   1)    179.9878         0.019800   
    163. D(H  10,C   8,C   3,C   4)    179.9958         0.019800   
    164. D(H  10,C   8,C   3,C   1)     -0.0101         0.019800   
    165. D(C  14,C  11,C   4,C   5)     -0.0114         0.011837   
    166. D(C  14,C  11,C   4,C   3)    179.9886         0.011837   
    167. D(H  13,C  11,C   4,C   5)    124.1491         0.011837   
    168. D(H  12,C  11,C   4,C   5)   -124.1793         0.011837   
    169. D(H  13,C  11,C   4,C   3)    -55.8509         0.011837   
    170. D(H  12,C  11,C   4,C   3)     55.8206         0.011837   
    171. D(H  15,C  14,C  11,C   4)    -58.3173         0.011105   
    172. D(C  17,C  14,C  11,H  12)    -56.7779         0.011105   
    173. D(C  17,C  14,C  11,C   4)   -179.9886         0.011105   
    174. D(H  16,C  14,C  11,H  13)    -64.8635         0.011105   
    175. D(H  16,C  14,C  11,H  12)   -178.4479         0.011105   
    176. D(H  16,C  14,C  11,C   4)     58.3414         0.011105   
    177. D(H  15,C  14,C  11,H  13)    178.4778         0.011105   
    178. D(C  17,C  14,C  11,H  13)     56.8065         0.011105   
    179. D(H  15,C  14,C  11,H  12)     64.8934         0.011105   
    180. D(C  20,C  17,C  14,H  16)    -57.7870         0.010858   
    181. D(C  20,C  17,C  14,C  11)   -179.9883         0.010858   
    182. D(H  19,C  17,C  14,H  16)    179.8361         0.010858   
    183. D(H  19,C  17,C  14,H  15)    -64.5685         0.010858   
    184. D(H  19,C  17,C  14,C  11)     57.6347         0.010858   
    185. D(H  18,C  17,C  14,H  16)     64.5908         0.010858   
    186. D(C  20,C  17,C  14,H  15)     57.8084         0.010858   
    187. D(H  18,C  17,C  14,H  15)   -179.8139         0.010858   
    188. D(H  18,C  17,C  14,C  11)    -57.6106         0.010858   
    189. D(H  36,C  20,C  17,H  19)    -57.8714         0.011096   
    190. D(H  36,C  20,C  17,H  18)     57.8957         0.011096   
    191. D(H  36,C  20,C  17,C  14)   -179.9879         0.011096   
    192. D(H  22,C  20,C  17,H  19)     62.2251         0.011096   
    193. D(H  22,C  20,C  17,H  18)    177.9923         0.011096   
    194. D(H  22,C  20,C  17,C  14)    -59.8913         0.011096   
    195. D(H  21,C  20,C  17,H  19)   -177.9690         0.011096   
    196. D(H  21,C  20,C  17,H  18)    -62.2019         0.011096   
    197. D(H  21,C  20,C  17,C  14)     59.9145         0.011096   
    198. D(C  26,C  23,C   7,C   6)   -179.9948         0.011571   
    199. D(H  25,C  23,C   7,C   8)   -123.6130         0.011571   
    200. D(H  25,C  23,C   7,C   6)     56.3821         0.011571   
    201. D(H  24,C  23,C   7,C   6)    -56.3678         0.011571   
    202. D(C  26,C  23,C   7,C   8)      0.0101         0.011571   
    203. D(H  24,C  23,C   7,C   8)    123.6370         0.011571   
    204. D(C  29,C  26,C  23,H  25)    -57.0250         0.011078   
    205. D(C  29,C  26,C  23,C   7)    179.9852         0.011078   
    206. D(H  28,C  26,C  23,H  25)   -178.7851         0.011078   
    207. D(H  28,C  26,C  23,H  24)    -64.7686         0.011078   
    208. D(H  28,C  26,C  23,C   7)     58.2250         0.011078   
    209. D(H  27,C  26,C  23,H  25)     64.7332         0.011078   
    210. D(C  29,C  26,C  23,H  24)     56.9915         0.011078   
    211. D(H  27,C  26,C  23,H  24)    178.7497         0.011078   
    212. D(H  27,C  26,C  23,C   7)    -58.2566         0.011078   
    213. D(C  32,C  29,C  26,H  28)    -57.8313         0.010867   
    214. D(C  32,C  29,C  26,H  27)     57.8076         0.010867   
    215. D(C  32,C  29,C  26,C  23)    179.9867         0.010867   
    216. D(H  31,C  29,C  26,H  28)    179.8609         0.010867   
    217. D(H  31,C  29,C  26,H  27)    -64.5002         0.010867   
    218. D(H  31,C  29,C  26,C  23)     57.6789         0.010867   
    219. D(H  30,C  29,C  26,H  28)     64.4755         0.010867   
    220. D(H  30,C  29,C  26,H  27)   -179.8856         0.010867   
    221. D(H  30,C  29,C  26,C  23)    -57.7065         0.010867   
    222. D(H  37,C  32,C  29,H  31)    -57.9177         0.011086   
    223. D(H  37,C  32,C  29,H  30)     57.8859         0.011086   
    224. D(H  37,C  32,C  29,C  26)    179.9842         0.011086   
    225. D(H  34,C  32,C  29,H  31)     62.2234         0.011086   
    226. D(H  34,C  32,C  29,H  30)    178.0269         0.011086   
    227. D(H  34,C  32,C  29,C  26)    -59.8747         0.011086   
    228. D(H  33,C  32,C  29,H  31)   -178.0576         0.011086   
    229. D(H  33,C  32,C  29,H  30)    -62.2541         0.011086   
    230. D(H  33,C  32,C  29,C  26)     59.8443         0.011086   
    231. D(C  43,C  38,C   6,C   7)      0.0195         0.001500   
    232. D(C  43,C  38,C   6,C   5)    179.9769         0.001500   
    233. D(C  39,C  38,C   6,C   7)   -179.9970         0.001500   
    234. D(C  39,C  38,C   6,C   5)     -0.0397         0.001500   
    235. D(H  46,C  39,C  38,C  43)   -179.9978         0.022567   
    236. D(H  46,C  39,C  38,C  35)     -0.0001         0.022567   
    237. D(C  40,C  39,C  38,C  43)      0.0053         0.022567   
    238. D(C  40,C  39,C  38,C  35)   -179.9970         0.022567   
    239. D(H  48,C  40,C  39,H  46)      0.0005         0.026304   
    240. D(H  48,C  40,C  39,C  38)    179.9974         0.026304   
    241. D(C  41,C  40,C  39,H  46)    179.9996         0.026304   
    242. D(C  41,C  40,C  39,C  38)     -0.0036         0.026304   
    243. D(H  44,C  41,C  40,H  48)      0.0006         0.024992   
    244. D(H  44,C  41,C  40,C  39)   -179.9984         0.024992   
    245. D(C  42,C  41,C  40,H  48)    179.9996         0.024992   
    246. D(C  42,C  41,C  40,C  39)      0.0005         0.024992   
    247. D(H  45,C  42,C  41,H  44)      0.0005         0.024973   
    248. D(H  45,C  42,C  41,C  40)   -179.9984         0.024973   
    249. D(C  43,C  42,C  41,H  44)    179.9997         0.024973   
    250. D(C  43,C  42,C  41,C  40)      0.0007         0.024973   
    251. D(H  47,C  43,C  42,H  45)      0.0012         0.026315   
    252. D(H  47,C  43,C  42,C  41)   -179.9980         0.026315   
    253. D(C  38,C  43,C  42,H  45)   -179.9998         0.026315   
    254. D(C  38,C  43,C  42,C  41)      0.0011         0.026315   
    255. D(H  47,C  43,C  38,C  39)    179.9950         0.022557   
    256. D(H  47,C  43,C  38,C  35)     -0.0027         0.022557   
    257. D(C  42,C  43,C  38,C  39)     -0.0041         0.022557   
    258. D(C  42,C  43,C  38,C  35)    179.9982         0.022557   
    -----------------------------------------------------------------

Number of atoms                         .... 49
Number of degrees of freedom            .... 258

         *************************************************************
         *                GEOMETRY OPTIMIZATION CYCLE   1            *
         *************************************************************
---------------------------------
CARTESIAN COORDINATES (ANGSTROEM)
---------------------------------
  C     -4.099903    0.083492   -0.018353
  C     -2.815946    0.043661   -0.012330
  C      2.806008   -0.004269   -0.008539
  C     -1.423131    0.006681   -0.011521
  C     -0.708303   -1.246812   -0.013959
  C      0.675892   -1.194656   -0.012684
  C      1.390969    0.032616   -0.009322
  C      0.692187    1.284040   -0.006826
  C     -0.689714    1.234894   -0.008082
  H      1.259776   -2.114722   -0.014385
  H     -1.277365    2.152363   -0.006417
  C     -1.482678   -2.545270   -0.017742
  H     -2.162956   -2.531884   -0.888087
  H     -2.164001   -2.536305    0.851848
  C     -0.664773   -3.838900   -0.020463
  H     -0.001060   -3.863836   -0.904705
  H     -0.002550   -3.868472    0.864757
  C     -1.549765   -5.091581   -0.024486
  H     -2.216738   -5.067647    0.856694
  H     -2.214979   -5.063238   -0.906864
  C     -0.747242   -6.394947   -0.026958
  H     -0.098785   -6.468624    0.863263
  H     -0.096713   -6.463963   -0.916039
  C      1.475610    2.580851   -0.003105
  H      2.150780    2.571663    0.872485
  H      2.151902    2.575969   -0.877872
  C      0.660276    3.876516   -0.000466
  H     -0.001813    3.904739   -0.885019
  H     -0.003430    3.900164    0.883007
  C      1.545553    5.128838    0.003581
  H      2.210398    5.101571    0.886923
  H      2.212314    5.105900   -0.878438
  C      0.742544    6.432044    0.005924
  H      0.091762    6.499753    0.894507
  H      0.094086    6.504395   -0.883993
  C      4.030665   -0.051608   -0.009917
  H     -1.409442   -7.275742   -0.030044
  H      1.404248    7.313240    0.009096
  C      5.453353   -0.107226   -0.009647
  C      6.121835   -1.352501   -0.012193
  C      7.514506   -1.401458   -0.011853
  C      8.262259   -0.217737   -0.009063
  C      7.609924    1.021237   -0.006590
  C      6.217754    1.081653   -0.006879
  H      9.353772   -0.260949   -0.008833
  H      8.191473    1.945911   -0.004438
  H      5.533939   -2.272105   -0.014369
  H      5.703998    2.044629   -0.004992
  H      8.021809   -2.368853   -0.013791

----------------------------
CARTESIAN COORDINATES (A.U.)
----------------------------
  NO LB      ZA    FRAG     MASS         X           Y           Z
   0 C     6.0000    0    12.011   -7.747695    0.157777   -0.034681
   1 C     6.0000    0    12.011   -5.321367    0.082508   -0.023300
   2 C     6.0000    0    12.011    5.302587   -0.008067   -0.016136
   3 C     6.0000    0    12.011   -2.689327    0.012626   -0.021772
   4 C     6.0000    0    12.011   -1.338498   -2.356134   -0.026378
   5 C     6.0000    0    12.011    1.277250   -2.257573   -0.023968
   6 C     6.0000    0    12.011    2.628550    0.061636   -0.017615
   7 C     6.0000    0    12.011    1.308044    2.426484   -0.012899
   8 C     6.0000    0    12.011   -1.303370    2.333612   -0.015274
   9 H     1.0000    0     1.008    2.380632   -3.996246   -0.027183
  10 H     1.0000    0     1.008   -2.413870    4.067376   -0.012127
  11 C     6.0000    0    12.011   -2.801855   -4.809864   -0.033528
  12 H     1.0000    0     1.008   -4.087394   -4.784568   -1.678241
  13 H     1.0000    0     1.008   -4.089368   -4.792922    1.609759
  14 C     6.0000    0    12.011   -1.256239   -7.254469   -0.038669
  15 H     1.0000    0     1.008   -0.002004   -7.301591   -1.709645
  16 H     1.0000    0     1.008   -0.004819   -7.310352    1.634154
  17 C     6.0000    0    12.011   -2.928631   -9.621693   -0.046271
  18 H     1.0000    0     1.008   -4.189027   -9.576465    1.618917
  19 H     1.0000    0     1.008   -4.185703   -9.568134   -1.713724
  20 C     6.0000    0    12.011   -1.412082  -12.084699   -0.050944
  21 H     1.0000    0     1.008   -0.186676  -12.223929    1.631331
  22 H     1.0000    0     1.008   -0.182760  -12.215120   -1.731062
  23 C     6.0000    0    12.011    2.788498    4.877102   -0.005869
  24 H     1.0000    0     1.008    4.064385    4.859738    1.648758
  25 H     1.0000    0     1.008    4.066505    4.867877   -1.658937
  26 C     6.0000    0    12.011    1.247740    7.325553   -0.000880
  27 H     1.0000    0     1.008   -0.003427    7.378887   -1.672443
  28 H     1.0000    0     1.008   -0.006481    7.370242    1.668641
  29 C     6.0000    0    12.011    2.920672    9.692100    0.006766
  30 H     1.0000    0     1.008    4.177046    9.640572    1.676042
  31 H     1.0000    0     1.008    4.180668    9.648753   -1.660007
  32 C     6.0000    0    12.011    1.403204   12.154802    0.011194
  33 H     1.0000    0     1.008    0.173404   12.282753    1.690374
  34 H     1.0000    0     1.008    0.177797   12.291525   -1.670505
  35 C     6.0000    0    12.011    7.616852   -0.097524   -0.018740
  36 H     1.0000    0     1.008   -2.663459  -13.749160   -0.056774
  37 H     1.0000    0     1.008    2.653644   13.820020    0.017189
  38 C     6.0000    0    12.011   10.305343   -0.202628   -0.018229
  39 C     6.0000    0    12.011   11.568592   -2.555857   -0.023041
  40 C     6.0000    0    12.011   14.200358   -2.648371   -0.022399
  41 C     6.0000    0    12.011   15.613407   -0.411462   -0.017127
  42 C     6.0000    0    12.011   14.380671    1.929859   -0.012454
  43 C     6.0000    0    12.011   11.749853    2.044027   -0.012999
  44 H     1.0000    0     1.008   17.676068   -0.493123   -0.016692
  45 H     1.0000    0     1.008   15.479640    3.677238   -0.008386
  46 H     1.0000    0     1.008   10.457630   -4.293656   -0.027154
  47 H     1.0000    0     1.008   10.778994    3.863789   -0.009434
  48 H     1.0000    0     1.008   15.159023   -4.476483   -0.026062

--------------------------------
INTERNAL COORDINATES (ANGSTROEM)
--------------------------------
 C      0   0   0     0.000000000000     0.00000000     0.00000000
 C      1   0   0     1.284589265702     0.00000000     0.00000000
 C      2   1   0     5.622159564040   178.69126092     0.00000000
 C      2   1   3     1.393306467235   179.65227083   327.51862601
 C      4   2   1     1.442993883273   121.21551837   222.73457308
 C      5   4   2     1.385177188993   117.53671655   180.01241966
 C      3   2   1     1.415520374158     1.00472520    10.51896560
 C      7   3   6     1.433304942608   120.67155711   180.00251040
 C      8   7   3     1.382775381372   117.14154389   179.98635314
 H      6   5   4     1.089699859879   120.24164121   179.99764177
 H      9   8   7     1.089534381280   120.60315497   180.00627168
 C      5   4   2     1.511841308952   119.49432899     0.00000000
 H     12   5   4     1.104743120331   107.87680572    55.82062536
 H     12   5   4     1.104747614791   107.87550603   304.14905360
 C     12   5   4     1.530507626416   116.88572550   179.98859445
 H     15  12   5     1.105902563797   109.95017923   301.68270487
 H     15  12   5     1.105905796946   109.94886218    58.34142276
 C     15  12   5     1.533765592879   112.45643147   180.01139442
 H     18  15  12     1.105397466238   109.17036193   302.38938945
 H     18  15  12     1.105397471384   109.17092419    57.63473439
 C     18  15  12     1.530625053453   113.13789375   180.01165525
 H     21  18  15     1.103820012046   111.31832012    59.91451649
 H     21  18  15     1.103818579039   111.31786680   300.10869648
 C      8   7   3     1.515085539117   119.68484965     0.00000000
 H     24   8   7     1.105711363744   108.09370501   303.63215986
 H     24   8   7     1.105717523955   108.09186412    56.38210693
 C     24   8   7     1.530856693276   116.68202454   180.00524344
 H     27  24   8     1.105257054054   109.83292962   301.74343574
 H     27  24   8     1.105254637747   109.83506491    58.22504828
 C     27  24   8     1.533637708065   112.56201510   179.98517391
 H     30  27  24     1.105918558839   109.20769736   302.29351001
 H     30  27  24     1.105917187097   109.20681994    57.67887704
 C     30  27  24     1.530743191815   113.10279452   179.98667424
 H     33  30  27     1.103486639694   111.27512830    59.84427318
 H     33  30  27     1.103487301721   111.27567707   300.12528013
 C      3   2   1     1.225571968783   178.27174768   193.54086091
 H     21  18  15     1.101961246509   111.44164475   180.01211336
 H     33  30  27     1.101983520380   111.45612407   179.98418205
 C     36   3   7     1.423774642696   179.92062648   280.85853904
 C     39  36   3     1.413359540444   120.46627745    71.67101810
 C     40  39  36     1.393531182661   120.24078976   180.00300340
 C     41  40  39     1.400120858211   120.26715974     0.00000000
 C     42  41  40     1.400215882953   119.95224590     0.00000000
 C     43  42  41     1.393479491271   120.25218298     0.00000000
 H     42  41  40     1.092368032818   120.01330674   180.00156118
 H     43  42  41     1.092348237933   120.06596006   180.00156057
 H     40  39  36     1.091465535315   119.18205456     0.00000000
 H     44  43  42     1.091454396523   120.56513382   180.00202302
 H     41  40  39     1.092343317309   119.68577979   179.99739793

---------------------------
INTERNAL COORDINATES (A.U.)
---------------------------
 C      0   0   0     0.000000000000     0.00000000     0.00000000
 C      1   0   0     2.427521906753     0.00000000     0.00000000
 C      2   1   0    10.624341857241   178.69126092     0.00000000
 C      2   1   3     2.632967643696   179.65227083   327.51862601
 C      4   2   1     2.726863252309   121.21551837   222.73457308
 C      5   4   2     2.617605534151   117.53671655   180.01241966
 C      3   2   1     2.674945844144     1.00472520    10.51896560
 C      7   3   6     2.708553807925   120.67155711   180.00251040
 C      8   7   3     2.613066775522   117.14154389   179.98635314
 H      6   5   4     2.059234303345   120.24164121   179.99764177
 H      9   8   7     2.058921594110   120.60315497   180.00627168
 C      5   4   2     2.856966031868   119.49432899     0.00000000
 H     12   5   4     2.087661945760   107.87680572    55.82062536
 H     12   5   4     2.087670439058   107.87550603   304.14905360
 C     12   5   4     2.892240259804   116.88572550   179.98859445
 H     15  12   5     2.089852976379   109.95017923   301.68270487
 H     15  12   5     2.089859086144   109.94886218    58.34142276
 C     15  12   5     2.898396924173   112.45643147   180.01139442
 H     18  15  12     2.088898480320   109.17036193   302.38938945
 H     18  15  12     2.088898490044   109.17092419    57.63473439
 C     18  15  12     2.892462164744   113.13789375   180.01165525
 H     21  18  15     2.085917523909   111.31832012    59.91451649
 H     21  18  15     2.085914815918   111.31786680   300.10869648
 C      8   7   3     2.863096738396   119.68484965     0.00000000
 H     24   8   7     2.089491660641   108.09370501   303.63215986
 H     24   8   7     2.089503301752   108.09186412    56.38210693
 C     24   8   7     2.892899900573   116.68202454   180.00524344
 H     27  24   8     2.088633139747   109.83292962   301.74343574
 H     27  24   8     2.088628573588   109.83506491    58.22504828
 C     27  24   8     2.898155256898   112.56201510   179.98517391
 H     30  27  24     2.089883202627   109.20769736   302.29351001
 H     30  27  24     2.089880610411   109.20681994    57.67887704
 C     30  27  24     2.892685413895   113.10279452   179.98667424
 H     33  30  27     2.085287541462   111.27512830    59.84427318
 H     33  30  27     2.085288792513   111.27567707   300.12528013
 C      3   2   1     2.315995378411   178.27174768   193.54086091
 H     21  18  15     2.082404966096   111.44164475   180.01211336
 H     33  30  27     2.082447057613   111.45612407   179.98418205
 C     36   3   7     2.690544151116   179.92062648   280.85853904
 C     39  36   3     2.670862460204   120.46627745    71.67101810
 C     40  39  36     2.633392294308   120.24078976   180.00300340
 C     41  40  39     2.645844976410   120.26715974     0.00000000
 C     42  41  40     2.646024547148   119.95224590     0.00000000
 C     43  42  41     2.633294611738   120.25218298     0.00000000
 H     42  41  40     2.064276419477   120.01330674   180.00156118
 H     43  42  41     2.064239012566   120.06596006   180.00156057
 H     40  39  36     2.062570946359   119.18205456     0.00000000
 H     44  43  42     2.062549897092   120.56513382   180.00202302
 H     41  40  39     2.064229713932   119.68577979   179.99739793

---------------------
BASIS SET INFORMATION
---------------------
There are 2 groups of distinct atoms

 Group   1 Type C   : 17s4p1d contracted to 3s2p1d pattern {881/31/1}
 Group   2 Type H   : 4s1p contracted to 2s1p pattern {31/1}

Atom   0C    basis set group =>   1
Atom   1C    basis set group =>   1
Atom   2C    basis set group =>   1
Atom   3C    basis set group =>   1
Atom   4C    basis set group =>   1
Atom   5C    basis set group =>   1
Atom   6C    basis set group =>   1
Atom   7C    basis set group =>   1
Atom   8C    basis set group =>   1
Atom   9H    basis set group =>   2
Atom  10H    basis set group =>   2
Atom  11C    basis set group =>   1
Atom  12H    basis set group =>   2
Atom  13H    basis set group =>   2
Atom  14C    basis set group =>   1
Atom  15H    basis set group =>   2
Atom  16H    basis set group =>   2
Atom  17C    basis set group =>   1
Atom  18H    basis set group =>   2
Atom  19H    basis set group =>   2
Atom  20C    basis set group =>   1
Atom  21H    basis set group =>   2
Atom  22H    basis set group =>   2
Atom  23C    basis set group =>   1
Atom  24H    basis set group =>   2
Atom  25H    basis set group =>   2
Atom  26C    basis set group =>   1
Atom  27H    basis set group =>   2
Atom  28H    basis set group =>   2
Atom  29C    basis set group =>   1
Atom  30H    basis set group =>   2
Atom  31H    basis set group =>   2
Atom  32C    basis set group =>   1
Atom  33H    basis set group =>   2
Atom  34H    basis set group =>   2
Atom  35C    basis set group =>   1
Atom  36H    basis set group =>   2
Atom  37H    basis set group =>   2
Atom  38C    basis set group =>   1
Atom  39C    basis set group =>   1
Atom  40C    basis set group =>   1
Atom  41C    basis set group =>   1
Atom  42C    basis set group =>   1
Atom  43C    basis set group =>   1
Atom  44H    basis set group =>   2
Atom  45H    basis set group =>   2
Atom  46H    basis set group =>   2
Atom  47H    basis set group =>   2
Atom  48H    basis set group =>   2
---------------------------------
AUXILIARY/J BASIS SET INFORMATION
---------------------------------
There are 2 groups of distinct atoms

 Group   1 Type C   : 12s5p4d2f1g contracted to 6s4p3d1f1g pattern {711111/2111/211/2/1}
 Group   2 Type H   : 5s2p1d contracted to 3s1p1d pattern {311/2/1}

Atom   0C    basis set group =>   1
Atom   1C    basis set group =>   1
Atom   2C    basis set group =>   1
Atom   3C    basis set group =>   1
Atom   4C    basis set group =>   1
Atom   5C    basis set group =>   1
Atom   6C    basis set group =>   1
Atom   7C    basis set group =>   1
Atom   8C    basis set group =>   1
Atom   9H    basis set group =>   2
Atom  10H    basis set group =>   2
Atom  11C    basis set group =>   1
Atom  12H    basis set group =>   2
Atom  13H    basis set group =>   2
Atom  14C    basis set group =>   1
Atom  15H    basis set group =>   2
Atom  16H    basis set group =>   2
Atom  17C    basis set group =>   1
Atom  18H    basis set group =>   2
Atom  19H    basis set group =>   2
Atom  20C    basis set group =>   1
Atom  21H    basis set group =>   2
Atom  22H    basis set group =>   2
Atom  23C    basis set group =>   1
Atom  24H    basis set group =>   2
Atom  25H    basis set group =>   2
Atom  26C    basis set group =>   1
Atom  27H    basis set group =>   2
Atom  28H    basis set group =>   2
Atom  29C    basis set group =>   1
Atom  30H    basis set group =>   2
Atom  31H    basis set group =>   2
Atom  32C    basis set group =>   1
Atom  33H    basis set group =>   2
Atom  34H    basis set group =>   2
Atom  35C    basis set group =>   1
Atom  36H    basis set group =>   2
Atom  37H    basis set group =>   2
Atom  38C    basis set group =>   1
Atom  39C    basis set group =>   1
Atom  40C    basis set group =>   1
Atom  41C    basis set group =>   1
Atom  42C    basis set group =>   1
Atom  43C    basis set group =>   1
Atom  44H    basis set group =>   2
Atom  45H    basis set group =>   2
Atom  46H    basis set group =>   2
Atom  47H    basis set group =>   2
Atom  48H    basis set group =>   2


           ************************************************************
           *        Program running with 16 parallel MPI-processes    *
           *              working on a common directory               *
           ************************************************************
------------------------------------------------------------------------------
                           ORCA GTO INTEGRAL CALCULATION
                           -- RI-GTO INTEGRALS CHOSEN --
------------------------------------------------------------------------------
------------------------------------------------------------------------------
                   ___                                                        
                  /   \      - P O W E R E D   B Y -                         
                 /     \                                                     
                 |  |  |   _    _      __       _____    __    __             
                 |  |  |  | |  | |    /  \     |  _  \  |  |  /  |          
                  \  \/   | |  | |   /    \    | | | |  |  | /  /          
                 / \  \   | |__| |  /  /\  \   | |_| |  |  |/  /          
                |  |  |   |  __  | /  /__\  \  |    /   |      \           
                |  |  |   | |  | | |   __   |  |    \   |  |\   \          
                \     /   | |  | | |  |  |  |  | |\  \  |  | \   \       
                 \___/    |_|  |_| |__|  |__|  |_| \__\ |__|  \__/        
                                                                              
                      - O R C A' S   B I G   F R I E N D -                    
                                      &                                       
                       - I N T E G R A L  F E E D E R -                       
                                                                              
 v1 FN, 2020, v2 2021                                                         
------------------------------------------------------------------------------


Reading SHARK input file opt_cc-pVDZ.SHARKINP.tmp ... ok
----------------------
SHARK INTEGRAL PACKAGE
----------------------

Number of atoms                             ...     49
Number of basis functions                   ...    605
Number of shells                            ...    363
Maximum angular momentum                    ...      2
Integral batch strategy                     ... SHARK/LIBINT Hybrid
RI-J (if used) integral strategy            ... SPLIT-RIJ (Revised 2003 algorithm where possible)
Printlevel                                  ...      1
Contraction scheme used                     ... PARTIAL GENERAL contraction
Coulomb Range Separation                    ... NOT USED
Exchange Range Separation                   ... NOT USED
Finite Nucleus Model                        ... NOT USED
Auxiliary Coulomb fitting basis             ... AVAILABLE
   # of basis functions in Aux-J            ...   1451
   # of shells in Aux-J                     ...    485
   Maximum angular momentum in Aux-J        ...      4
Auxiliary J/K fitting basis                 ... NOT available
Auxiliary Correlation fitting basis         ... NOT available
Auxiliary 'external' fitting basis          ... NOT available
Integral threshold                          ...     2.500000e-11
Primitive cut-off                           ...     2.500000e-12
Primitive pair pre-selection threshold      ...     2.500000e-12

Calculating pre-screening integrals         ... done (  0.0 sec) Dimension = 363
Calculating pre-screening integrals (ORCA)  ... done (  0.1 sec) Dimension = 219
Organizing shell pair data                  ... done (  0.2 sec)
Shell pair information
Total number of shell pairs                 ...     66066
Shell pairs after pre-screening             ...     26491
Total number of primitive shell pairs       ...    106638
Primitive shell pairs kept                  ...     35948
          la=0 lb=0:  11480 shell pairs
          la=1 lb=0:   9361 shell pairs
          la=1 lb=1:   1669 shell pairs
          la=2 lb=0:   2816 shell pairs
          la=2 lb=1:   1001 shell pairs
          la=2 lb=2:    164 shell pairs

Calculating one electron integrals          ... done (  0.0 sec)
Calculating RI/J V-Matrix + Cholesky decomp.... done (  0.2 sec)
Calculating Nuclear repulsion               ... done (  0.0 sec) ENN=   1728.320371376087 Eh

SHARK setup successfully completed in   1.1 seconds

Maximum memory used throughout the entire GTOINT-calculation: 38.0 MB


           ************************************************************
           *        Program running with 16 parallel MPI-processes    *
           *              working on a common directory               *
           ************************************************************
-------------------------------------------------------------------------------
                                 ORCA SCF
-------------------------------------------------------------------------------

------------
SCF SETTINGS
------------
Hamiltonian:
 Density Functional     Method          .... DFT(GTOs)
 Exchange Functional    Exchange        .... B88
   X-Alpha parameter    XAlpha          ....  0.666667
   Becke's b parameter  XBeta           ....  0.004200
 Correlation Functional Correlation     .... LYP
 LDA part of GGA corr.  LDAOpt          .... VWN-5
 Gradients option       PostSCFGGA      .... off
 Hybrid DFT is turned on
   Fraction HF Exchange ScalHFX         ....  0.200000
   Scaling of DF-GGA-X  ScalDFX         ....  0.720000
   Scaling of DF-GGA-C  ScalDFC         ....  0.810000
   Scaling of DF-LDA-C  ScalLDAC        ....  1.000000
   Perturbative correction              ....  0.000000
   Density functional embedding theory  .... OFF
   NL short-range parameter             ....  4.800000
 RI-approximation to the Coulomb term is turned on
   Number of AuxJ basis functions       .... 1451
   RIJ-COSX (HFX calculated with COS-X)).... on


General Settings:
 Integral files         IntName         .... opt_cc-pVDZ
 Hartree-Fock type      HFTyp           .... UHF
 Total Charge           Charge          ....    0
 Multiplicity           Mult            ....    2
 Number of Electrons    NEL             ....  169
 Basis Dimension        Dim             ....  461
 Nuclear Repulsion      ENuc            ....   1728.3203713761 Eh

Convergence Acceleration:
 DIIS                   CNVDIIS         .... on
   Start iteration      DIISMaxIt       ....    12
   Startup error        DIISStart       ....  0.200000
   # of expansion vecs  DIISMaxEq       ....     5
   Bias factor          DIISBfac        ....   1.050
   Max. coefficient     DIISMaxC        ....  10.000
 Trust-Rad. Augm. Hess. CNVTRAH         .... auto
   Auto Start mean grad. ratio tolernc. ....  1.125000
   Auto Start start iteration           ....    20
   Auto Start num. interpolation iter.  ....    10
   Max. Number of Micro iterations      ....    16
   Max. Number of Macro iterations      .... Maxiter - #DIIS iter
   Number of Davidson start vectors     ....     2
   Converg. threshold I  (grad. norm)   ....   1.000e-05
   Converg. threshold II (energy diff.) ....   1.000e-08
   Grad. Scal. Fac. for Micro threshold ....   0.100
   Minimum threshold for Micro iter.    ....   0.010
   NR start threshold (gradient norm)   ....   0.001
   Initial trust radius                 ....   0.400
   Minimum AH scaling param. (alpha)    ....   1.000
   Maximum AH scaling param. (alpha)    .... 1000.000
   Orbital update algorithm             .... Taylor
   White noise on init. David. guess    .... on
   Maximum white noise                  ....   0.010
   Quad. conv. algorithm                .... NR
 SOSCF                  CNVSOSCF        .... off
 Level Shifting         CNVShift        .... on
   Level shift para.    LevelShift      ....    0.2500
   Turn off err/grad.   ShiftErr        ....    0.0010
 Zerner damping         CNVZerner       .... off
 Static damping         CNVDamp         .... on
   Fraction old density DampFac         ....    0.7000
   Max. Damping (<1)    DampMax         ....    0.9800
   Min. Damping (>=0)   DampMin         ....    0.0000
   Turn off err/grad.   DampErr         ....    0.1000
 Fernandez-Rico         CNVRico         .... off

SCF Procedure:
 Maximum # iterations   MaxIter         ....   125
 SCF integral mode      SCFMode         .... Direct
   Integral package                     .... SHARK and LIBINT hybrid scheme
 Reset frequency        DirectResetFreq ....    20
 Integral Threshold     Thresh          ....  2.500e-11 Eh
 Primitive CutOff       TCut            ....  2.500e-12 Eh

Convergence Tolerance:
 Convergence Check Mode ConvCheckMode   .... Total+1el-Energy
 Convergence forced     ConvForced      .... 0
 Energy Change          TolE            ....  1.000e-08 Eh
 1-El. energy change                    ....  1.000e-05 Eh
 DIIS Error             TolErr          ....  5.000e-07


Diagonalization of the overlap matrix:
Smallest eigenvalue                        ... 5.177e-05
Time for diagonalization                   ...    0.039 sec
Threshold for overlap eigenvalues          ... 1.000e-08
Number of eigenvalues below threshold      ... 0
Time for construction of square roots      ...    0.044 sec
Total time needed                          ...    0.084 sec

Time for model grid setup =    0.382 sec

------------------------------
INITIAL GUESS: MODEL POTENTIAL
------------------------------
Loading Hartree-Fock densities                     ... done
Calculating cut-offs                               ... done
Initializing the effective Hamiltonian             ... done
Setting up the integral package (SHARK)            ... done
Starting the Coulomb interaction                   ... done (   0.3 sec)
Reading the grid                                   ... done
Mapping shells                                     ... done
Starting the XC term evaluation                    ... done (   0.1 sec)
  promolecular density results
     # of electrons  =    168.999354084
     EX              =   -130.640432708
     EC              =     -5.563948925
     EX+EC           =   -136.204381634
Transforming the Hamiltonian                       ... done (   0.0 sec)
Diagonalizing the Hamiltonian                      ... done (   0.0 sec)
Back transforming the eigenvectors                 ... done (   0.0 sec)
Now organizing SCF variables                       ... done
                      ------------------
                      INITIAL GUESS DONE (   1.1 sec)
                      ------------------
-------------------
DFT GRID GENERATION
-------------------

General Integration Accuracy     IntAcc      ... 4.388
Radial Grid Type                 RadialGrid  ... OptM3 with GC (2021)
Angular Grid (max. ang.)         AngularGrid ... 4 (Lebedev-302)
Angular grid pruning method      GridPruning ... 4 (adaptive)
Weight generation scheme         WeightScheme... Becke
Basis function cutoff            BFCut       ... 1.0000e-11
Integration weight cutoff        WCut        ... 1.0000e-14
Angular grids for H and He will be reduced by one unit
Partially contracted basis set               ... off
Rotationally invariant grid construction     ... off

Total number of grid points                  ...   223003
Total number of batches                      ...     3511
Average number of points per batch           ...       63
Average number of grid points per atom       ...     4551
Time for grid setup =    1.559 sec

--------------------
COSX GRID GENERATION
--------------------

GRIDX 1
-------
General Integration Accuracy     IntAcc      ... 3.816
Radial Grid Type                 RadialGrid  ... OptM3 with GC (2021)
Angular Grid (max. ang.)         AngularGrid ... 1 (Lebedev-50)
Angular grid pruning method      GridPruning ... 4 (adaptive)
Weight generation scheme         WeightScheme... Becke
Basis function cutoff            BFCut       ... 1.0000e-11
Integration weight cutoff        WCut        ... 1.0000e-14
Angular grids for H and He will be reduced by one unit
Partially contracted basis set               ... on
Rotationally invariant grid construction     ... off

Total number of grid points                  ...    28396
Total number of batches                      ...      471
Average number of points per batch           ...       60
Average number of grid points per atom       ...      580
UseSFitting                                  ... on

GRIDX 2
-------
General Integration Accuracy     IntAcc      ... 4.020
Radial Grid Type                 RadialGrid  ... OptM3 with GC (2021)
Angular Grid (max. ang.)         AngularGrid ... 2 (Lebedev-110)
Angular grid pruning method      GridPruning ... 4 (adaptive)
Weight generation scheme         WeightScheme... Becke
Basis function cutoff            BFCut       ... 1.0000e-11
Integration weight cutoff        WCut        ... 1.0000e-14
Angular grids for H and He will be reduced by one unit
Partially contracted basis set               ... on
Rotationally invariant grid construction     ... off

Total number of grid points                  ...    60558
Total number of batches                      ...      971
Average number of points per batch           ...       62
Average number of grid points per atom       ...     1236
UseSFitting                                  ... on

GRIDX 3
-------
General Integration Accuracy     IntAcc      ... 4.338
Radial Grid Type                 RadialGrid  ... OptM3 with GC (2021)
Angular Grid (max. ang.)         AngularGrid ... 3 (Lebedev-194)
Angular grid pruning method      GridPruning ... 4 (adaptive)
Weight generation scheme         WeightScheme... Becke
Basis function cutoff            BFCut       ... 1.0000e-11
Integration weight cutoff        WCut        ... 1.0000e-14
Angular grids for H and He will be reduced by one unit
Partially contracted basis set               ... on
Rotationally invariant grid construction     ... off

Total number of grid points                  ...   132523
Total number of batches                      ...     2094
Average number of points per batch           ...       63
Average number of grid points per atom       ...     2705
UseSFitting                                  ... on

Time for X-Grid setup             =    2.561 sec

 re-compute Schwartz prescreening matrix in partically contracted basis (1) ...done (   0.113 sec)
--------------
SCF ITERATIONS
--------------
ITER       Energy         Delta-E        Max-DP      RMS-DP      [F,P]     Damp
               ***  Starting incremental Fock matrix formation  ***
  0   -928.2942364095   0.000000000000 0.05629757  0.00081833  0.0873493 0.7000
  1   -928.5363746150  -0.242138205560 0.05899258  0.00068674  0.0460148 0.7000
                               ***Turning on DIIS***
  2   -928.6453676205  -0.108993005437 0.11927087  0.00134074  0.0178671 0.0000
  3   -928.7979011235  -0.152533502976 0.07673688  0.00051986  0.0253239 0.0000
  4   -928.8399924083  -0.042091284839 0.03838030  0.00025692  0.0072121 0.0000
  5   -928.8432287529  -0.003236344646 0.01729621  0.00009800  0.0039173 0.0000
  6   -928.8438419856  -0.000613232655 0.00409687  0.00003205  0.0020854 0.0000
  7   -928.8441141987  -0.000272213089 0.00198049  0.00002138  0.0015080 0.0000
  8   -928.8442739788  -0.000159780118 0.00197573  0.00001820  0.0010449 0.0000
  9   -928.8443746367  -0.000100657892 0.00410659  0.00003431  0.0008646 0.0000
               *** Restarting incremental Fock matrix formation ***
                                   *** Resetting DIIS ***
 10   -928.8447324971  -0.000357860438 0.00385494  0.00002977  0.0007279 0.0000
 11   -928.8447134410   0.000019056105 0.00103449  0.00000919  0.0012469 0.0000
 12   -928.8447426772  -0.000029236200 0.00143944  0.00001032  0.0005492 0.0000
 13   -928.8447501108  -0.000007433608 0.00039543  0.00000348  0.0002350 0.0000
 14   -928.8447516998  -0.000001588973 0.00040178  0.00000284  0.0002078 0.0000
 15   -928.8447524685  -0.000000768703 0.00015208  0.00000101  0.0000870 0.0000
 16   -928.8447525465  -0.000000078013 0.00017932  0.00000133  0.0000643 0.0000
 17   -928.8447526651  -0.000000118550 0.00004059  0.00000036  0.0000217 0.0000
 18   -928.8447526844  -0.000000019281 0.00003826  0.00000039  0.0000199 0.0000
 19   -928.8447527008  -0.000000016483 0.00002334  0.00000021  0.0000081 0.0000
 20   -928.8447527103  -0.000000009497 0.00001982  0.00000017  0.0000071 0.0000
 21   -928.8447527060   0.000000004322 0.00001816  0.00000015  0.0000063 0.0000
 22   -928.8447527022   0.000000003832 0.00002427  0.00000020  0.0000056 0.0000
 23   -928.8447527072  -0.000000005050 0.00002184  0.00000017  0.0000046 0.0000
 24   -928.8447527186  -0.000000011415 0.00001601  0.00000013  0.0000036 0.0000
 25   -928.8447527154   0.000000003209 0.00001496  0.00000012  0.0000030 0.0000
 26   -928.8447527105   0.000000004909 0.00001075  0.00000009  0.0000024 0.0000
 27   -928.8447527067   0.000000003843 0.00001064  0.00000010  0.0000019 0.0000
 28   -928.8447527144  -0.000000007746 0.00000888  0.00000008  0.0000018 0.0000
 29   -928.8447527198  -0.000000005363 0.00001073  0.00000010  0.0000013 0.0000
               *** Restarting incremental Fock matrix formation ***
                                   *** Resetting DIIS ***
 30   -928.8447527063   0.000000013447 0.00004439  0.00000039  0.0000011 0.0000
 31   -928.8447527123  -0.000000005912 0.00000574  0.00000003  0.0000014 0.0000
                 **** Energy Check signals convergence ****

               *****************************************************
               *                     SUCCESS                       *
               *           SCF CONVERGED AFTER  32 CYCLES          *
               *****************************************************

Old exchange energy                            =    -26.626481422 Eh
New exchange energy                            =    -26.626588283 Eh
Exchange energy change after final integration =     -0.000106862 Eh
Total energy after final integration           =   -928.844859572 Eh
Final COS-X integration done in                =     7.780 sec

----------------
TOTAL SCF ENERGY
----------------

Total Energy       :         -928.84485957 Eh          -25275.15359 eV

Components:
Nuclear Repulsion  :         1728.32037138 Eh           47029.98826 eV
Electronic Energy  :        -2657.16523095 Eh          -72305.14186 eV
One Electron Energy:        -4683.88158498 Eh         -127454.89761 eV
Two Electron Energy:         2026.71635403 Eh           55149.75575 eV
Max COSX asymmetry :            0.00000064 Eh               0.00002 eV

Virial components:
Potential Energy   :        -1851.30249025 Eh          -50376.50185 eV
Kinetic Energy     :          922.45763068 Eh           25101.34826 eV
Virial Ratio       :            2.00692414


DFT components:
N(Alpha)           :       85.000198244077 electrons
N(Beta)            :       84.000199779920 electrons
N(Total)           :      169.000398023997 electrons
E(X)               :     -105.616102269033 Eh       
E(C)               :       -6.571936632385 Eh       
E(XC)              :     -112.188038901418 Eh       
DFET-embed. en.    :        0.000000000000 Eh       

---------------
SCF CONVERGENCE
---------------

  Last Energy change         ...    1.8329e-09  Tolerance :   1.0000e-08
  Last MAX-Density change    ...    0.0000e+00  Tolerance :   1.0000e-07
  Last RMS-Density change    ...    0.0000e+00  Tolerance :   5.0000e-09
  Last DIIS Error            ...    8.9616e-07  Tolerance :   5.0000e-07

             **** THE GBW FILE WAS UPDATED (opt_cc-pVDZ.gbw) ****
             **** DENSITY opt_cc-pVDZ.scfp WAS UPDATED ****
             **** ENERGY FILE WAS UPDATED (opt_cc-pVDZ.en.tmp) ****
----------------------
UHF SPIN CONTAMINATION
----------------------

Warning: in a DFT calculation there is little theoretical justification to 
         calculate <S**2> as in Hartree-Fock theory. We will do it anyways
         but you should keep in mind that the values have only limited relevance

Expectation value of <S**2>     :     0.773530
Ideal value S*(S+1) for S=0.5   :     0.750000
Deviation                       :     0.023530

             **** THE GBW FILE WAS UPDATED (opt_cc-pVDZ.gbw) ****
             **** DENSITY opt_cc-pVDZ.scfp WAS UPDATED ****
----------------
ORBITAL ENERGIES
----------------
                 SPIN UP ORBITALS
  NO   OCC          E(Eh)            E(eV) 
   0   1.0000     -10.243930      -278.7515 
   1   1.0000     -10.235758      -278.5291 
   2   1.0000     -10.229518      -278.3593 
   3   1.0000     -10.222990      -278.1817 
   4   1.0000     -10.219877      -278.0970 
   5   1.0000     -10.219368      -278.0831 
   6   1.0000     -10.217101      -278.0214 
   7   1.0000     -10.216954      -278.0174 
   8   1.0000     -10.215127      -277.9677 
   9   1.0000     -10.212608      -277.8992 
  10   1.0000     -10.212523      -277.8969 
  11   1.0000     -10.212493      -277.8961 
  12   1.0000     -10.210880      -277.8522 
  13   1.0000     -10.209946      -277.8268 
  14   1.0000     -10.201245      -277.5900 
  15   1.0000     -10.192737      -277.3585 
  16   1.0000     -10.191168      -277.3158 
  17   1.0000     -10.189623      -277.2737 
  18   1.0000     -10.187875      -277.2262 
  19   1.0000     -10.184334      -277.1298 
  20   1.0000     -10.180734      -277.0319 
  21   1.0000     -10.178294      -276.9655 
  22   1.0000     -10.170879      -276.7637 
  23   1.0000     -10.168866      -276.7089 
  24   1.0000      -0.892953       -24.2985 
  25   1.0000      -0.882811       -24.0225 
  26   1.0000      -0.833108       -22.6700 
  27   1.0000      -0.814696       -22.1690 
  28   1.0000      -0.802339       -21.8327 
  29   1.0000      -0.796073       -21.6623 
  30   1.0000      -0.777318       -21.1519 
  31   1.0000      -0.769776       -20.9467 
  32   1.0000      -0.753149       -20.4942 
  33   1.0000      -0.738893       -20.1063 
  34   1.0000      -0.717980       -19.5372 
  35   1.0000      -0.706753       -19.2317 
  36   1.0000      -0.663041       -18.0423 
  37   1.0000      -0.657170       -17.8825 
  38   1.0000      -0.632566       -17.2130 
  39   1.0000      -0.629921       -17.1410 
  40   1.0000      -0.627391       -17.0722 
  41   1.0000      -0.601793       -16.3756 
  42   1.0000      -0.586005       -15.9460 
  43   1.0000      -0.572889       -15.5891 
  44   1.0000      -0.557501       -15.1704 
  45   1.0000      -0.524895       -14.2831 
  46   1.0000      -0.522231       -14.2106 
  47   1.0000      -0.498041       -13.5524 
  48   1.0000      -0.492793       -13.4096 
  49   1.0000      -0.480680       -13.0800 
  50   1.0000      -0.476554       -12.9677 
  51   1.0000      -0.475451       -12.9377 
  52   1.0000      -0.453689       -12.3455 
  53   1.0000      -0.445472       -12.1219 
  54   1.0000      -0.442471       -12.0403 
  55   1.0000      -0.435291       -11.8449 
  56   1.0000      -0.434862       -11.8332 
  57   1.0000      -0.429952       -11.6996 
  58   1.0000      -0.423937       -11.5359 
  59   1.0000      -0.418343       -11.3837 
  60   1.0000      -0.409792       -11.1510 
  61   1.0000      -0.403743       -10.9864 
  62   1.0000      -0.391179       -10.6445 
  63   1.0000      -0.382282       -10.4024 
  64   1.0000      -0.378824       -10.3083 
  65   1.0000      -0.374321       -10.1858 
  66   1.0000      -0.369235       -10.0474 
  67   1.0000      -0.367096        -9.9892 
  68   1.0000      -0.366852        -9.9826 
  69   1.0000      -0.353932        -9.6310 
  70   1.0000      -0.344102        -9.3635 
  71   1.0000      -0.341278        -9.2867 
  72   1.0000      -0.336172        -9.1477 
  73   1.0000      -0.332613        -9.0509 
  74   1.0000      -0.330822        -9.0021 
  75   1.0000      -0.330218        -8.9857 
  76   1.0000      -0.326484        -8.8841 
  77   1.0000      -0.310992        -8.4625 
  78   1.0000      -0.291544        -7.9333 
  79   1.0000      -0.277550        -7.5525 
  80   1.0000      -0.265907        -7.2357 
  81   1.0000      -0.262491        -7.1427 
  82   1.0000      -0.243660        -6.6303 
  83   1.0000      -0.242743        -6.6054 
  84   1.0000      -0.218488        -5.9454 
  85   0.0000      -0.080227        -2.1831 
  86   0.0000      -0.028695        -0.7808 
  87   0.0000      -0.028628        -0.7790 
  88   0.0000      -0.019197        -0.5224 
  89   0.0000       0.023089         0.6283 
  90   0.0000       0.039857         1.0846 
  91   0.0000       0.050838         1.3834 
  92   0.0000       0.054569         1.4849 
  93   0.0000       0.057271         1.5584 
  94   0.0000       0.067518         1.8373 
  95   0.0000       0.069740         1.8977 
  96   0.0000       0.076085         2.0704 
  97   0.0000       0.086239         2.3467 
  98   0.0000       0.087459         2.3799 
  99   0.0000       0.088174         2.3993 
 100   0.0000       0.090824         2.4714 
 101   0.0000       0.091325         2.4851 
 102   0.0000       0.101737         2.7684 
 103   0.0000       0.104961         2.8561 
 104   0.0000       0.118742         3.2311 
 105   0.0000       0.122531         3.3342 
 106   0.0000       0.127177         3.4607 
 107   0.0000       0.132208         3.5976 
 108   0.0000       0.141912         3.8616 
 109   0.0000       0.144165         3.9229 
 110   0.0000       0.145205         3.9512 
 111   0.0000       0.145276         3.9532 
 112   0.0000       0.151973         4.1354 
 113   0.0000       0.152944         4.1618 
 114   0.0000       0.156616         4.2617 
 115   0.0000       0.159327         4.3355 
 116   0.0000       0.166396         4.5279 
 117   0.0000       0.168694         4.5904 
 118   0.0000       0.178643         4.8611 
 119   0.0000       0.189746         5.1632 
 120   0.0000       0.191312         5.2059 
 121   0.0000       0.198550         5.4028 
 122   0.0000       0.205094         5.5809 
 123   0.0000       0.209686         5.7058 
 124   0.0000       0.212838         5.7916 
 125   0.0000       0.230638         6.2760 
 126   0.0000       0.235070         6.3966 
 127   0.0000       0.253169         6.8891 
 128   0.0000       0.260047         7.0762 
 129   0.0000       0.262745         7.1496 
 130   0.0000       0.268602         7.3090 
 131   0.0000       0.276396         7.5211 
 132   0.0000       0.288787         7.8583 
 133   0.0000       0.296023         8.0552 
 134   0.0000       0.311052         8.4641 
 135   0.0000       0.324446         8.8286 
 136   0.0000       0.347041         9.4435 
 137   0.0000       0.352282         9.5861 
 138   0.0000       0.359675         9.7873 
 139   0.0000       0.364873         9.9287 
 140   0.0000       0.386835        10.5263 
 141   0.0000       0.394996        10.7484 
 142   0.0000       0.403343        10.9755 
 143   0.0000       0.403400        10.9771 
 144   0.0000       0.406505        11.0616 
 145   0.0000       0.410370        11.1667 
 146   0.0000       0.414136        11.2692 
 147   0.0000       0.417464        11.3598 
 148   0.0000       0.421167        11.4605 
 149   0.0000       0.431977        11.7547 
 150   0.0000       0.432246        11.7620 
 151   0.0000       0.438444        11.9307 
 152   0.0000       0.450365        12.2550 
 153   0.0000       0.451233        12.2787 
 154   0.0000       0.456865        12.4319 
 155   0.0000       0.465466        12.6660 
 156   0.0000       0.466534        12.6950 
 157   0.0000       0.466880        12.7045 
 158   0.0000       0.477413        12.9911 
 159   0.0000       0.485484        13.2107 
 160   0.0000       0.487401        13.2629 
 161   0.0000       0.491638        13.3782 
 162   0.0000       0.492019        13.3885 
 163   0.0000       0.493473        13.4281 
 164   0.0000       0.497480        13.5371 
 165   0.0000       0.500676        13.6241 
 166   0.0000       0.503975        13.7139 
 167   0.0000       0.504661        13.7325 
 168   0.0000       0.509019        13.8511 
 169   0.0000       0.519426        14.1343 
 170   0.0000       0.527228        14.3466 
 171   0.0000       0.538016        14.6402 
 172   0.0000       0.538156        14.6440 
 173   0.0000       0.562879        15.3167 
 174   0.0000       0.565081        15.3766 
 175   0.0000       0.566898        15.4261 
 176   0.0000       0.568582        15.4719 
 177   0.0000       0.579292        15.7633 
 178   0.0000       0.580301        15.7908 
 179   0.0000       0.585757        15.9393 
 180   0.0000       0.596583        16.2339 
 181   0.0000       0.601999        16.3812 
 182   0.0000       0.610096        16.6016 
 183   0.0000       0.612160        16.6577 
 184   0.0000       0.613899        16.7050 
 185   0.0000       0.618133        16.8203 
 186   0.0000       0.623613        16.9694 
 187   0.0000       0.627503        17.0752 
 188   0.0000       0.630671        17.1614 
 189   0.0000       0.634672        17.2703 
 190   0.0000       0.638192        17.3661 
 191   0.0000       0.642501        17.4833 
 192   0.0000       0.647008        17.6060 
 193   0.0000       0.651486        17.7278 
 194   0.0000       0.652373        17.7520 
 195   0.0000       0.654939        17.8218 
 196   0.0000       0.655230        17.8297 
 197   0.0000       0.657395        17.8886 
 198   0.0000       0.659301        17.9405 
 199   0.0000       0.663429        18.0528 
 200   0.0000       0.666160        18.1271 
 201   0.0000       0.668409        18.1883 
 202   0.0000       0.669320        18.2131 
 203   0.0000       0.670897        18.2560 
 204   0.0000       0.677789        18.4436 
 205   0.0000       0.679374        18.4867 
 206   0.0000       0.685527        18.6541 
 207   0.0000       0.687072        18.6962 
 208   0.0000       0.691193        18.8083 
 209   0.0000       0.697112        18.9694 
 210   0.0000       0.703477        19.1426 
 211   0.0000       0.705299        19.1922 
 212   0.0000       0.710617        19.3369 
 213   0.0000       0.726439        19.7674 
 214   0.0000       0.729910        19.8619 
 215   0.0000       0.732753        19.9392 
 216   0.0000       0.736471        20.0404 
 217   0.0000       0.747943        20.3526 
 218   0.0000       0.754361        20.5272 
 219   0.0000       0.759045        20.6547 
 220   0.0000       0.771143        20.9839 
 221   0.0000       0.777184        21.1482 
 222   0.0000       0.788370        21.4526 
 223   0.0000       0.809224        22.0201 
 224   0.0000       0.817923        22.2568 
 225   0.0000       0.822560        22.3830 
 226   0.0000       0.830876        22.6093 
 227   0.0000       0.835909        22.7462 
 228   0.0000       0.837398        22.7867 
 229   0.0000       0.848494        23.0887 
 230   0.0000       0.860543        23.4166 
 231   0.0000       0.863760        23.5041 
 232   0.0000       0.869609        23.6633 
 233   0.0000       0.881749        23.9936 
 234   0.0000       0.892183        24.2775 
 235   0.0000       0.896489        24.3947 
 236   0.0000       0.900442        24.5023 
 237   0.0000       0.921519        25.0758 
 238   0.0000       0.923449        25.1283 
 239   0.0000       0.930302        25.3148 
 240   0.0000       0.949531        25.8380 
 241   0.0000       0.956636        26.0314 
 242   0.0000       0.964131        26.2353 
 243   0.0000       0.967932        26.3388 
 244   0.0000       0.977496        26.5990 
 245   0.0000       0.982882        26.7456 
 246   0.0000       0.985053        26.8046 
 247   0.0000       0.996644        27.1201 
 248   0.0000       1.008140        27.4329 
 249   0.0000       1.016205        27.6523 
 250   0.0000       1.023675        27.8556 
 251   0.0000       1.027360        27.9559 
 252   0.0000       1.030318        28.0364 
 253   0.0000       1.037048        28.2195 
 254   0.0000       1.040158        28.3041 
 255   0.0000       1.054648        28.6984 
 256   0.0000       1.072264        29.1778 
 257   0.0000       1.076043        29.2806 
 258   0.0000       1.094361        29.7791 
[...]
      py      :    -0.010183
      dz2     :     0.000182  d :     0.018266
      dxz     :     0.016783
      dyz     :     0.000004
      dx2y2   :     0.000591
      dxy     :     0.000706
  3 C s       :    -0.001921  s :    -0.001921
      pz      :    -0.006560  p :    -0.012931
      px      :    -0.003531
      py      :    -0.002840
      dz2     :     0.000117  d :     0.016555
      dxz     :     0.013574
      dyz     :     0.002191
      dx2y2   :     0.000614
      dxy     :     0.000059
  4 C s       :     0.003433  s :     0.003433
      pz      :     0.106297  p :     0.110950
      px      :     0.002533
      py      :     0.002120
      dz2     :    -0.000451  d :    -0.003234
      dxz     :    -0.002407
      dyz     :     0.000391
      dx2y2   :    -0.000409
      dxy     :    -0.000358
  5 C s       :    -0.002816  s :    -0.002816
      pz      :    -0.050808  p :    -0.056751
      px      :    -0.002953
      py      :    -0.002989
      dz2     :     0.000231  d :     0.011701
      dxz     :     0.007557
      dyz     :     0.003028
      dx2y2   :     0.000436
      dxy     :     0.000449
  6 C s       :     0.005131  s :     0.005131
      pz      :     0.146394  p :     0.153792
      px      :     0.003685
      py      :     0.003713
      dz2     :    -0.000684  d :    -0.006354
      dxz     :    -0.002402
      dyz     :    -0.001898
      dx2y2   :    -0.000488
      dxy     :    -0.000882
  7 C s       :    -0.002456  s :    -0.002456
      pz      :    -0.041396  p :    -0.046946
      px      :    -0.002670
      py      :    -0.002880
      dz2     :     0.000197  d :     0.010029
      dxz     :     0.005904
      dyz     :     0.003090
      dx2y2   :     0.000403
      dxy     :     0.000435
  8 C s       :     0.002746  s :     0.002746
      pz      :     0.091962  p :     0.095724
      px      :     0.002080
      py      :     0.001682
      dz2     :    -0.000388  d :    -0.003202
      dxz     :    -0.002050
      dyz     :     0.000031
      dx2y2   :    -0.000412
      dxy     :    -0.000383
  9 H s       :     0.001352  s :     0.001352
      pz      :    -0.001423  p :    -0.001776
      px      :    -0.000155
      py      :    -0.000199
 10 H s       :    -0.002846  s :    -0.002846
      pz      :     0.002224  p :     0.002608
      px      :     0.000113
      py      :     0.000271
 11 C s       :    -0.000760  s :    -0.000760
      pz      :    -0.000604  p :    -0.003798
      px      :    -0.001439
      py      :    -0.001755
      dz2     :     0.000088  d :     0.004559
      dxz     :     0.002688
      dyz     :     0.001524
      dx2y2   :     0.000112
      dxy     :     0.000147
 12 H s       :     0.005402  s :     0.005402
      pz      :    -0.000060  p :    -0.000213
      px      :    -0.000118
      py      :    -0.000035
 13 H s       :     0.005414  s :     0.005414
      pz      :    -0.000060  p :    -0.000213
      px      :    -0.000118
      py      :    -0.000035
 14 C s       :     0.000000  s :     0.000000
      pz      :    -0.000130  p :    -0.000065
      px      :     0.000051
      py      :     0.000014
      dz2     :    -0.000008  d :    -0.000102
      dxz     :     0.000032
      dyz     :    -0.000025
      dx2y2   :    -0.000065
      dxy     :    -0.000036
 15 H s       :    -0.000068  s :    -0.000068
      pz      :     0.000001  p :    -0.000012
      px      :    -0.000008
      py      :    -0.000005
 16 H s       :    -0.000068  s :    -0.000068
      pz      :     0.000001  p :    -0.000012
      px      :    -0.000008
      py      :    -0.000005
 17 C s       :    -0.000029  s :    -0.000029
      pz      :     0.000097  p :     0.000027
      px      :    -0.000015
      py      :    -0.000055
      dz2     :    -0.000001  d :    -0.000017
      dxz     :    -0.000008
      dyz     :    -0.000001
      dx2y2   :    -0.000001
      dxy     :    -0.000005
 18 H s       :     0.000017  s :     0.000017
      pz      :     0.000000  p :     0.000009
      px      :     0.000003
      py      :     0.000005
 19 H s       :     0.000017  s :     0.000017
      pz      :     0.000000  p :     0.000009
      px      :     0.000003
      py      :     0.000005
 20 C s       :    -0.000006  s :    -0.000006
      pz      :    -0.000001  p :    -0.000029
      px      :    -0.000008
      py      :    -0.000020
      dz2     :    -0.000000  d :     0.000008
      dxz     :     0.000006
      dyz     :     0.000004
      dx2y2   :    -0.000002
      dxy     :     0.000001
 21 H s       :     0.000010  s :     0.000010
      pz      :    -0.000000  p :    -0.000001
      px      :    -0.000000
      py      :    -0.000001
 22 H s       :     0.000010  s :     0.000010
      pz      :    -0.000000  p :    -0.000001
      px      :    -0.000000
      py      :    -0.000001
 23 C s       :     0.000241  s :     0.000241
      pz      :     0.000485  p :     0.001593
      px      :     0.000497
      py      :     0.000611
      dz2     :    -0.000043  d :    -0.002046
      dxz     :    -0.001097
      dyz     :    -0.000657
      dx2y2   :    -0.000128
      dxy     :    -0.000121
 24 H s       :    -0.001629  s :    -0.001629
      pz      :     0.000014  p :     0.000056
      px      :     0.000034
      py      :     0.000008
 25 H s       :    -0.001626  s :    -0.001626
      pz      :     0.000014  p :     0.000057
      px      :     0.000034
      py      :     0.000008
 26 C s       :    -0.000045  s :    -0.000045
      pz      :     0.000107  p :    -0.000086
      px      :    -0.000083
      py      :    -0.000111
      dz2     :     0.000004  d :     0.000064
      dxz     :     0.000003
      dyz     :     0.000027
      dx2y2   :     0.000022
      dxy     :     0.000007
 27 H s       :     0.000061  s :     0.000061
      pz      :    -0.000003  p :    -0.000006
      px      :    -0.000001
      py      :    -0.000001
 28 H s       :     0.000062  s :     0.000062
      pz      :    -0.000003  p :    -0.000006
      px      :    -0.000001
      py      :    -0.000001
 29 C s       :     0.000007  s :     0.000007
      pz      :    -0.000042  p :    -0.000038
      px      :    -0.000003
      py      :     0.000007
      dz2     :    -0.000000  d :    -0.000002
      dxz     :     0.000004
      dyz     :    -0.000003
      dx2y2   :    -0.000004
      dxy     :     0.000001
 30 H s       :    -0.000007  s :    -0.000007
      pz      :     0.000000  p :    -0.000004
      px      :    -0.000001
      py      :    -0.000003
 31 H s       :    -0.000007  s :    -0.000007
      pz      :    -0.000000  p :    -0.000004
      px      :    -0.000001
      py      :    -0.000003
 32 C s       :     0.000000  s :     0.000000
      pz      :     0.000002  p :     0.000009
      px      :     0.000002
      py      :     0.000005
      dz2     :    -0.000000  d :    -0.000005
      dxz     :    -0.000003
      dyz     :    -0.000001
      dx2y2   :    -0.000000
      dxy     :    -0.000001
 33 H s       :    -0.000004  s :    -0.000004
      pz      :     0.000000  p :     0.000000
      px      :     0.000000
      py      :     0.000000
 34 H s       :    -0.000004  s :    -0.000004
      pz      :     0.000000  p :     0.000000
      px      :     0.000000
      py      :     0.000000
 35 C s       :     0.003416  s :     0.003416
      pz      :     0.099012  p :     0.110903
      px      :     0.001612
      py      :     0.010278
      dz2     :    -0.000406  d :    -0.003906
      dxz     :    -0.002570
      dyz     :    -0.000001
      dx2y2   :    -0.000379
      dxy     :    -0.000550
 36 H s       :    -0.000003  s :    -0.000003
      pz      :    -0.000000  p :    -0.000002
      px      :    -0.000001
      py      :    -0.000001
 37 H s       :    -0.000003  s :    -0.000003
      pz      :     0.000000  p :     0.000001
      px      :     0.000000
      py      :     0.000000
 38 C s       :    -0.001276  s :    -0.001276
      pz      :    -0.015735  p :    -0.019036
      px      :    -0.002296
      py      :    -0.001005
      dz2     :     0.000112  d :     0.007263
      dxz     :     0.005496
      dyz     :     0.000669
      dx2y2   :     0.000350
      dxy     :     0.000636
 39 C s       :     0.001125  s :     0.001125
      pz      :     0.029884  p :     0.031554
      px      :     0.000850
      py      :     0.000820
      dz2     :    -0.000125  d :    -0.001453
      dxz     :    -0.000680
      dyz     :    -0.000330
      dx2y2   :    -0.000161
      dxy     :    -0.000157
 40 C s       :    -0.000691  s :    -0.000691
      pz      :    -0.013317  p :    -0.014738
      px      :    -0.000809
      py      :    -0.000612
      dz2     :     0.000066  d :     0.002983
      dxz     :     0.002059
      dyz     :     0.000612
      dx2y2   :     0.000117
      dxy     :     0.000128
 41 C s       :     0.001168  s :     0.001168
      pz      :     0.034155  p :     0.035784
      px      :     0.000762
      py      :     0.000867
      dz2     :    -0.000149  d :    -0.001201
      dxz     :    -0.000165
      dyz     :    -0.000673
      dx2y2   :    -0.000108
      dxy     :    -0.000106
 42 C s       :    -0.000691  s :    -0.000691
      pz      :    -0.013311  p :    -0.014732
      px      :    -0.000778
      py      :    -0.000642
      dz2     :     0.000066  d :     0.002982
      dxz     :     0.001898
      dyz     :     0.000773
      dx2y2   :     0.000122
      dxy     :     0.000123
 43 C s       :     0.001125  s :     0.001125
      pz      :     0.029843  p :     0.031512
      px      :     0.000866
      py      :     0.000803
      dz2     :    -0.000125  d :    -0.001453
      dxz     :    -0.000733
      dyz     :    -0.000277
      dx2y2   :    -0.000179
      dxy     :    -0.000140
 44 H s       :    -0.001054  s :    -0.001054
      pz      :     0.000985  p :     0.001148
      px      :     0.000146
      py      :     0.000017
 45 H s       :     0.000411  s :     0.000411
      pz      :    -0.000376  p :    -0.000463
      px      :    -0.000038
      py      :    -0.000049
 46 H s       :    -0.000929  s :    -0.000929
      pz      :     0.000769  p :     0.000918
      px      :     0.000046
      py      :     0.000103
 47 H s       :    -0.000927  s :    -0.000927
      pz      :     0.000767  p :     0.000917
      px      :     0.000039
      py      :     0.000111
 48 H s       :     0.000411  s :     0.000411
      pz      :    -0.000376  p :    -0.000463
      px      :    -0.000035
      py      :    -0.000051


                      *****************************
                      * MAYER POPULATION ANALYSIS *
                      *****************************

  NA   - Mulliken gross atomic population
  ZA   - Total nuclear charge
  QA   - Mulliken gross atomic charge
  VA   - Mayer's total valence
  BVA  - Mayer's bonded valence
  FA   - Mayer's free valence

  ATOM       NA         ZA         QA         VA         BVA        FA
  0 C      6.2751     6.0000    -0.2751     3.1206     3.0195     0.1011
  1 C      6.1011     6.0000    -0.1011     4.1751     4.0993     0.0759
  2 C      5.7084     6.0000     0.2916     2.5001     2.4973     0.0028
  3 C      5.9200     6.0000     0.0800     3.6846     3.6828     0.0018
  4 C      6.0569     6.0000    -0.0569     4.1384     4.1232     0.0152
  5 C      5.9834     6.0000     0.0166     3.8822     3.8779     0.0043
  6 C      6.1678     6.0000    -0.1678     3.8119     3.7819     0.0299
  7 C      6.0638     6.0000    -0.0638     4.1181     4.1150     0.0031
  8 C      5.9514     6.0000     0.0486     3.8933     3.8822     0.0111
  9 H      1.0469     1.0000    -0.0469     1.0053     1.0053     0.0000
 10 H      1.0333     1.0000    -0.0333     1.0089     1.0089     0.0000
 11 C      5.9411     6.0000     0.0589     4.0196     4.0195     0.0001
 12 H      0.9560     1.0000     0.0440     0.9752     0.9751     0.0001
 13 H      0.9560     1.0000     0.0440     0.9751     0.9751     0.0001
 14 C      6.0401     6.0000    -0.0401     4.1105     4.1105     0.0000
 15 H      0.9856     1.0000     0.0144     0.9620     0.9620     0.0000
 16 H      0.9856     1.0000     0.0144     0.9620     0.9620     0.0000
 17 C      6.0239     6.0000    -0.0239     4.1183     4.1183     0.0000
 18 H      0.9889     1.0000     0.0111     0.9680     0.9680     0.0000
 19 H      0.9889     1.0000     0.0111     0.9680     0.9680     0.0000
 20 C      5.9970     6.0000     0.0030     4.0167     4.0167     0.0000
 21 H      0.9842     1.0000     0.0158     0.9770     0.9770     0.0000
 22 H      0.9842     1.0000     0.0158     0.9770     0.9770     0.0000
 23 C      5.9616     6.0000     0.0384     4.0282     4.0282     0.0000
 24 H      0.9665     1.0000     0.0335     0.9688     0.9688     0.0000
 25 H      0.9665     1.0000     0.0335     0.9688     0.9688     0.0000
 26 C      6.0359     6.0000    -0.0359     4.1152     4.1152     0.0000
 27 H      0.9783     1.0000     0.0217     0.9635     0.9635     0.0000
 28 H      0.9783     1.0000     0.0217     0.9635     0.9635     0.0000
 29 C      6.0269     6.0000    -0.0269     4.1191     4.1191     0.0000
 30 H      0.9946     1.0000     0.0054     0.9669     0.9669     0.0000
 31 H      0.9946     1.0000     0.0054     0.9669     0.9669     0.0000
 32 C      5.9960     6.0000     0.0040     4.0174     4.0174     0.0000
 33 H      0.9796     1.0000     0.0204     0.9776     0.9776     0.0000
 34 H      0.9796     1.0000     0.0204     0.9776     0.9776     0.0000
 35 C      5.8378     6.0000     0.1622     2.6286     2.6151     0.0135
 36 H      0.9844     1.0000     0.0156     0.9739     0.9739     0.0000
 37 H      0.9862     1.0000     0.0138     0.9738     0.9738     0.0000
 38 C      6.2658     6.0000    -0.2658     3.9233     3.9229     0.0005
 39 C      5.9626     6.0000     0.0374     3.9932     3.9921     0.0012
 40 C      5.9574     6.0000     0.0426     4.0004     4.0002     0.0003
 41 C      5.9604     6.0000     0.0396     4.0005     3.9989     0.0015
 42 C      5.9576     6.0000     0.0424     4.0001     3.9998     0.0003
 43 C      5.9654     6.0000     0.0346     3.9926     3.9914     0.0012
 44 H      1.0188     1.0000    -0.0188     0.9697     0.9697     0.0000
 45 H      1.0201     1.0000    -0.0201     0.9698     0.9698     0.0000
 46 H      1.0329     1.0000    -0.0329     0.9841     0.9841     0.0000
 47 H      1.0325     1.0000    -0.0325     0.9839     0.9839     0.0000
 48 H      1.0200     1.0000    -0.0200     0.9697     0.9697     0.0000

  Mayer bond orders larger than 0.100000
B(  0-C ,  1-C ) :   2.8978 B(  1-C ,  3-C ) :   1.0562 B(  2-C ,  6-C ) :   0.9231 
B(  2-C , 35-C ) :   1.6800 B(  2-C , 38-C ) :  -0.1839 B(  3-C ,  4-C ) :   1.2772 
B(  3-C ,  8-C ) :   1.2761 B(  4-C ,  5-C ) :   1.4842 B(  4-C , 11-C ) :   1.1013 
B(  5-C ,  6-C ) :   1.3301 B(  5-C ,  9-H ) :   0.9240 B(  6-C ,  7-C ) :   1.3305 
B(  7-C ,  8-C ) :   1.4937 B(  7-C , 23-C ) :   1.0937 B(  8-C , 10-H ) :   0.9248 
B( 11-C , 12-H ) :   0.8926 B( 11-C , 13-H ) :   0.8926 B( 11-C , 14-C ) :   1.1009 
B( 14-C , 15-H ) :   0.9285 B( 14-C , 16-H ) :   0.9285 B( 14-C , 17-C ) :   1.0753 
B( 17-C , 18-H ) :   0.9414 B( 17-C , 19-H ) :   0.9414 B( 17-C , 20-C ) :   1.1056 
B( 20-C , 21-H ) :   0.9661 B( 20-C , 22-H ) :   0.9661 B( 20-C , 36-H ) :   0.9619 
B( 23-C , 24-H ) :   0.8967 B( 23-C , 25-H ) :   0.8967 B( 23-C , 26-C ) :   1.1045 
B( 26-C , 27-H ) :   0.9299 B( 26-C , 28-H ) :   0.9299 B( 26-C , 29-C ) :   1.0740 
B( 29-C , 30-H ) :   0.9411 B( 29-C , 31-H ) :   0.9411 B( 29-C , 32-C ) :   1.1066 
B( 32-C , 33-H ) :   0.9662 B( 32-C , 34-H ) :   0.9662 B( 32-C , 37-H ) :   0.9613 
B( 35-C , 38-C ) :   0.9516 B( 38-C , 39-C ) :   1.4289 B( 38-C , 43-C ) :   1.4269 
B( 39-C , 40-C ) :   1.4745 B( 39-C , 46-H ) :   0.9418 B( 40-C , 41-C ) :   1.4407 
B( 40-C , 48-H ) :   0.9388 B( 41-C , 42-C ) :   1.4401 B( 41-C , 44-H ) :   0.9441 
B( 42-C , 43-C ) :   1.4746 B( 42-C , 45-H ) :   0.9388 B( 43-C , 47-H ) :   0.9421 


-------
TIMINGS
-------

Total SCF time: 0 days 0 hours 0 min 54 sec 

Total time                  ....      54.852 sec
Sum of individual times     ....      51.460 sec  ( 93.8%)

Fock matrix formation       ....      45.729 sec  ( 83.4%)
  Split-RI-J                ....       3.336 sec  (  7.3% of F)
  Chain of spheres X        ....      30.861 sec  ( 67.5% of F)
  XC integration            ....       8.782 sec  ( 19.2% of F)
    Basis function eval.    ....       0.810 sec  (  9.2% of XC)
    Density eval.           ....       0.936 sec  ( 10.7% of XC)
    XC-Functional eval.     ....       0.199 sec  (  2.3% of XC)
    XC-Potential eval.      ....       0.519 sec  (  5.9% of XC)
Diagonalization             ....       0.824 sec  (  1.5%)
Density matrix formation    ....       0.096 sec  (  0.2%)
Population analysis         ....       0.337 sec  (  0.6%)
Initial guess               ....       0.154 sec  (  0.3%)
Orbital Transformation      ....       0.000 sec  (  0.0%)
Orbital Orthonormalization  ....       0.114 sec  (  0.2%)
DIIS solution               ....       0.429 sec  (  0.8%)
Grid generation             ....       3.889 sec  (  7.1%)

Maximum memory used throughout the entire SCF-calculation: 122.4 MB

-------------------------   --------------------
FINAL SINGLE POINT ENERGY      -928.844859602673
-------------------------   --------------------

                                *** OPTIMIZATION RUN DONE ***

                            ***************************************
                            *     ORCA property calculations      *
                            ***************************************

                                    ---------------------
                                    Active property flags
                                    ---------------------
   (+) Dipole Moment


------------------------------------------------------------------------------
                       ORCA ELECTRIC PROPERTIES CALCULATION
------------------------------------------------------------------------------

Dipole Moment Calculation                       ... on
Quadrupole Moment Calculation                   ... off
Polarizability Calculation                      ... off
GBWName                                         ... opt_cc-pVDZ.gbw
Electron density                                ... opt_cc-pVDZ.scfp
The origin for moment calculation is the CENTER OF MASS  = ( 3.193251, -0.049671 -0.019741)

-------------
DIPOLE MOMENT
-------------
                                X             Y             Z
Electronic contribution:      8.91333      -0.21411       0.00266
Nuclear contribution   :     -5.17355       0.11416       0.00481
                        -----------------------------------------
Total Dipole Moment    :      3.73979      -0.09995       0.00747
                        -----------------------------------------
Magnitude (a.u.)       :      3.74113
Magnitude (Debye)      :      9.50919



--------------------
Rotational spectrum 
--------------------
 
Rotational constants in cm-1:     0.006498     0.004327     0.002607 
Rotational constants in MHz :   194.800882   129.705298    78.164376 

 Dipole components along the rotational axes: 
x,y,z [a.u.] :     3.414241    -1.529367     0.006203 
x,y,z [Debye]:     8.678310    -3.887341     0.015768 

 

Timings for individual modules:

Sum of individual times         ...      273.335 sec (=   4.556 min)
GTO integral calculation        ...        6.526 sec (=   0.109 min)   2.4 %
SCF iterations                  ...      243.709 sec (=   4.062 min)  89.2 %
SCF Gradient evaluation         ...       22.066 sec (=   0.368 min)   8.1 %
Geometry relaxation             ...        1.034 sec (=   0.017 min)   0.4 %
                             ****ORCA TERMINATED NORMALLY****
TOTAL RUN TIME: 0 days 0 hours 4 minutes 37 seconds 765 msec
