
                                 *****************
                                 * O   R   C   A *
                                 *****************

                                            #,                                       
                                            ###                                      
                                            ####                                     
                                            #####                                    
                                            ######                                   
                                           ########,                                 
                                     ,,################,,,,,                         
                               ,,#################################,,                 
                          ,,##########################################,,             
                       ,#########################################, ''#####,          
                    ,#############################################,,   '####,        
                  ,##################################################,,,,####,       
                ,###########''''           ''''###############################       
              ,#####''   ,,,,##########,,,,          '''####'''          '####       
            ,##' ,,,,###########################,,,                        '##       
           ' ,,###''''                  '''############,,,                           
         ,,##''                                '''############,,,,        ,,,,,,###''
      ,#''                                            '''#######################'''  
     '                                                          ''''####''''         
             ,#######,   #######,   ,#######,      ##                                
            ,#'     '#,  ##    ##  ,#'     '#,    #''#        ######   ,####,        
            ##       ##  ##   ,#'  ##            #'  '#       #        #'  '#        
            ##       ##  #######   ##           ,######,      #####,   #    #        
            '#,     ,#'  ##    ##  '#,     ,#' ,#      #,         ##   #,  ,#        
             '#######'   ##     ##  '#######'  #'      '#     #####' # '####'        



                  #######################################################
                  #                        -***-                        #
                  #          Department of theory and spectroscopy      #
                  #    Directorship and core code : Frank Neese         #
                  #        Max Planck Institute fuer Kohlenforschung    #
                  #                Kaiser Wilhelm Platz 1               #
                  #                 D-45470 Muelheim/Ruhr               #
                  #                      Germany                        #
                  #                                                     #
                  #                  All rights reserved                #
                  #                        -***-                        #
                  #######################################################


                         Program Version 5.0.4 -  RELEASE  -


 With contributions from (in alphabetic order):
   Daniel Aravena         : Magnetic Suceptibility
   Michael Atanasov       : Ab Initio Ligand Field Theory (pilot matlab implementation)
   Alexander A. Auer      : GIAO ZORA, VPT2 properties, NMR spectrum
   Ute Becker             : Parallelization
   Giovanni Bistoni       : ED, misc. LED, open-shell LED, HFLD
   Martin Brehm           : Molecular dynamics
   Dmytro Bykov           : SCF Hessian
   Vijay G. Chilkuri      : MRCI spin determinant printing, contributions to CSF-ICE
   Dipayan Datta          : RHF DLPNO-CCSD density
   Achintya Kumar Dutta   : EOM-CC, STEOM-CC
   Dmitry Ganyushin       : Spin-Orbit,Spin-Spin,Magnetic field MRCI
   Miquel Garcia          : C-PCM and meta-GGA Hessian, CC/C-PCM, Gaussian charge scheme
   Yang Guo               : DLPNO-NEVPT2, F12-NEVPT2, CIM, IAO-localization
   Andreas Hansen         : Spin unrestricted coupled pair/coupled cluster methods
   Benjamin Helmich-Paris : MC-RPA, TRAH-SCF, COSX integrals
   Lee Huntington         : MR-EOM, pCC
   Robert Izsak           : Overlap fitted RIJCOSX, COSX-SCS-MP3, EOM
   Marcus Kettner         : VPT2
   Christian Kollmar      : KDIIS, OOCD, Brueckner-CCSD(T), CCSD density, CASPT2, CASPT2-K
   Simone Kossmann        : Meta GGA functionals, TD-DFT gradient, OOMP2, MP2 Hessian
   Martin Krupicka        : Initial AUTO-CI
   Lucas Lang             : DCDCAS
   Marvin Lechner         : AUTO-CI (C++ implementation), FIC-MRCC
   Dagmar Lenk            : GEPOL surface, SMD
   Dimitrios Liakos       : Extrapolation schemes; Compound Job, initial MDCI parallelization
   Dimitrios Manganas     : Further ROCIS development; embedding schemes
   Dimitrios Pantazis     : SARC Basis sets
   Anastasios Papadopoulos: AUTO-CI, single reference methods and gradients
   Taras Petrenko         : DFT Hessian,TD-DFT gradient, ASA, ECA, R-Raman, ABS, FL, XAS/XES, NRVS
   Peter Pinski           : DLPNO-MP2, DLPNO-MP2 Gradient
   Christoph Reimann      : Effective Core Potentials
   Marius Retegan         : Local ZFS, SOC
   Christoph Riplinger    : Optimizer, TS searches, QM/MM, DLPNO-CCSD(T), (RO)-DLPNO pert. Triples
   Tobias Risthaus        : Range-separated hybrids, TD-DFT gradient, RPA, STAB
   Michael Roemelt        : Original ROCIS implementation
   Masaaki Saitow         : Open-shell DLPNO-CCSD energy and density
   Barbara Sandhoefer     : DKH picture change effects
   Avijit Sen             : IP-ROCIS
   Kantharuban Sivalingam : CASSCF convergence, NEVPT2, FIC-MRCI
   Bernardo de Souza      : ESD, SOC TD-DFT
   Georgi Stoychev        : AutoAux, RI-MP2 NMR, DLPNO-MP2 response
   Willem Van den Heuvel  : Paramagnetic NMR
   Boris Wezisla          : Elementary symmetry handling
   Frank Wennmohs         : Technical directorship


 We gratefully acknowledge several colleagues who have allowed us to
 interface, adapt or use parts of their codes:
   Stefan Grimme, W. Hujo, H. Kruse, P. Pracht,  : VdW corrections, initial TS optimization,
                  C. Bannwarth, S. Ehlert          DFT functionals, gCP, sTDA/sTD-DF
   Ed Valeev, F. Pavosevic, A. Kumar             : LibInt (2-el integral package), F12 methods
   Garnet Chan, S. Sharma, J. Yang, R. Olivares  : DMRG
   Ulf Ekstrom                                   : XCFun DFT Library
   Mihaly Kallay                                 : mrcc  (arbitrary order and MRCC methods)
   Jiri Pittner, Ondrej Demel                    : Mk-CCSD
   Frank Weinhold                                : gennbo (NPA and NBO analysis)
   Christopher J. Cramer and Donald G. Truhlar   : smd solvation model
   Lars Goerigk                                  : TD-DFT with DH, B97 family of functionals
   V. Asgeirsson, H. Jonsson                     : NEB implementation
   FAccTs GmbH                                   : IRC, NEB, NEB-TS, DLPNO-Multilevel, CI-OPT
                                                   MM, QMMM, 2- and 3-layer-ONIOM, Crystal-QMMM,
                                                   LR-CPCM, SF, NACMEs, symmetry and pop. for TD-DFT,
                                                   nearIR, NL-DFT gradient (VV10), updates on ESD,
                                                   ML-optimized integration grids
   S Lehtola, MJT Oliveira, MAL Marques          : LibXC Library
   Liviu Ungur et al                             : ANISO software


 Your calculation uses the libint2 library for the computation of 2-el integrals
 For citations please refer to: http://libint.valeyev.net

 Your ORCA version has been built with support for libXC version: 5.1.0
 For citations please refer to: https://tddft.org/programs/libxc/

 This ORCA versions uses:
   CBLAS   interface :  Fast vector & matrix operations
   LAPACKE interface :  Fast linear algebra routines
   SCALAPACK package :  Parallel linear algebra routines
   Shared memory     :  Shared parallel matrices
   BLAS/LAPACK       :  OpenBLAS 0.3.15  USE64BITINT DYNAMIC_ARCH NO_AFFINITY SkylakeX SINGLE_THREADED
        Core in use  :  SkylakeX
   Copyright (c) 2011-2014, The OpenBLAS Project




***************************************
The coordinates will be read from file: model.xyz
***************************************


================================================================================

----- Orbital basis set information -----
Your calculation utilizes the basis: cc-pVDZ 
       H, B-Ne : Obtained from the ccRepo (grant-hill.group.shef.ac.uk/ccrepo) Feb. 2017
                 T. H. Dunning, Jr., J. Chem. Phys. 90, 1007 (1989)
            He : Obtained from the ccRepo (grant-hill.group.shef.ac.uk/ccrepo) Feb. 2017
                 D. E. Woon, T. H. Dunning, Jr., J. Chem. Phys. 100, 2975 (1994)
  Li-Be, Na-Mg : Obtained from the ccRepo (grant-hill.group.shef.ac.uk/ccrepo) Feb. 2017
                 B. P. Prascher, D. E. Woon, K. A. Peterson, T. H. Dunning, Jr., A. K. Wilson, Theor. Chem. Acc. 128, 69 (2011)
         Al-Ar : Obtained from the ccRepo (grant-hill.group.shef.ac.uk/ccrepo) Feb. 2017
                 D. E. Woon, T. H. Dunning, Jr., J. Chem. Phys. 98, 1358 (1993)
            Ca : Obtained from the Peterson Research Group Website (tyr0.chem.wsu.edu/~kipeters) Feb. 2017
                 J. Koput, K. A. Peterson, J. Phys. Chem. 106, 9595 (2002)
         Sc-Zn : Obtained from the ccRepo (grant-hill.group.shef.ac.uk/ccrepo) Feb. 2017
                 N. B. Balabanov, K. A. Peterson, J. Chem. Phys. 123, 064107 (2005)
                 N. B. Balabanov, K. A. Peterson, J. Chem. Phys. 125, 074110 (2006)
         Ga-Kr : Obtained from the ccRepo (grant-hill.group.shef.ac.uk/ccrepo) Feb. 2017
                 A. K. Wilson, D. E. Woon, K. A. Peterson, T. H. Dunning, Jr., J. Chem. Phys. 110, 7667 (1999)

----- AuxJ basis set information -----
Your calculation utilizes the auxiliary basis: def2/J
   F. Weigend, Phys. Chem. Chem. Phys. 8, 1057 (2006).

================================================================================
                                        WARNINGS
                       Please study these warnings very carefully!
================================================================================

WARNING: Old DensityContainer found on disk!
         Will remove this file - 
         If you want to keep old densities, please start your calculation with a different basename. 


WARNING: your system is open-shell and RHF/RKS was chosen
  ===> : WILL SWITCH to UHF/UKS


WARNING: Geometry Optimization
  ===> : Switching off AutoStart
         For restart on a previous wavefunction, please use MOREAD

INFO   : the flag for use of the SHARK integral package has been found!

================================================================================
                                       INPUT FILE
================================================================================
NAME = opt.inp
|  1> ! B3LYP cc-pVDZ OPT
|  2> %pal nprocs 16 end
|  3> *XYZFile 0 2 model.xyz
|  4> 
|  5>                          ****END OF INPUT****
================================================================================

                       *****************************
                       * Geometry Optimization Run *
                       *****************************

Geometry optimization settings:
Update method            Update   .... BFGS
Choice of coordinates    CoordSys .... Z-matrix Internals
Initial Hessian          InHess   .... Almoef's Model

Convergence Tolerances:
Energy Change            TolE     ....  5.0000e-06 Eh
Max. Gradient            TolMAXG  ....  3.0000e-04 Eh/bohr
RMS Gradient             TolRMSG  ....  1.0000e-04 Eh/bohr
Max. Displacement        TolMAXD  ....  4.0000e-03 bohr
RMS Displacement         TolRMSD  ....  2.0000e-03 bohr
Strict Convergence                ....  False
------------------------------------------------------------------------------
                        ORCA OPTIMIZATION COORDINATE SETUP
------------------------------------------------------------------------------

The optimization will be done in new redundant internal coordinates
Making redundant internal coordinates   ...  (new redundants) done
Evaluating the initial hessian          ...  (Almloef) done
Evaluating the coordinates              ...  done
Calculating the B-matrix                .... done
Calculating the G-matrix                .... done
Diagonalizing the G-matrix              .... done
Small eigenvalue found = 7.065e-04
Small eigenvalue found = 1.974e-03
Small eigenvalue found = 6.800e-03
Small eigenvalue found = 8.821e-03
Small eigenvalue found = 1.949e-02
Small eigenvalue found = 2.131e-02
Small eigenvalue found = 2.363e-02
Small eigenvalue found = 2.717e-02
Small eigenvalue found = 2.972e-02
The first mode is                       ....  117
The number of degrees of freedom        ....  141

    -----------------------------------------------------------------
                    Redundant Internal Coordinates


    -----------------------------------------------------------------
         Definition                    Initial Value    Approx d2E/dq
    -----------------------------------------------------------------
      1. B(C   1,C   0)                  1.2846         0.920265   
      2. B(C   3,C   1)                  1.3934         0.617130   
      3. B(C   4,C   3)                  1.4431         0.514081   
      4. B(C   5,C   4)                  1.3853         0.635731   
      5. B(C   6,C   2)                  1.4156         0.568729   
      6. B(C   6,C   5)                  1.4205         0.558570   
      7. B(C   7,C   6)                  1.4333         0.532852   
      8. B(C   8,C   7)                  1.3827         0.641846   
      9. B(C   8,C   3)                  1.4305         0.538495   
     10. B(H   9,C   5)                  1.0897         0.360550   
     11. B(H  10,C   8)                  1.0894         0.360885   
     12. B(C  11,C   4)                  1.5121         0.398910   
     13. B(H  12,C  11)                  1.1053         0.340469   
     14. B(H  13,C  11)                  1.1053         0.340460   
     15. B(C  14,C  11)                  1.5303         0.373144   
     16. B(H  15,C  14)                  1.1064         0.339047   
     17. B(H  16,C  14)                  1.1064         0.339048   
     18. B(C  17,C  14)                  1.5333         0.369104   
     19. B(H  18,C  17)                  1.1059         0.339688   
     20. B(H  19,C  17)                  1.1059         0.339693   
     21. B(C  20,C  17)                  1.5301         0.373419   
     22. B(H  21,C  20)                  1.1041         0.341963   
     23. B(H  22,C  20)                  1.1041         0.341958   
     24. B(C  23,C   7)                  1.5153         0.394231   
     25. B(H  24,C  23)                  1.1061         0.339360   
     26. B(H  25,C  23)                  1.1062         0.339352   
     27. B(C  26,C  23)                  1.5307         0.372673   
     28. B(H  27,C  26)                  1.1057         0.339857   
     29. B(H  28,C  26)                  1.1058         0.339854   
     30. B(C  29,C  26)                  1.5331         0.369342   
     31. B(H  30,C  29)                  1.1064         0.339047   
     32. B(H  31,C  29)                  1.1064         0.339044   
     33. B(C  32,C  29)                  1.5302         0.373262   
     34. B(H  33,C  32)                  1.1037         0.342367   
     35. B(H  34,C  32)                  1.1037         0.342374   
     36. B(C  35,C   2)                  1.2256         1.142842   
     37. B(H  36,C  20)                  1.1018         0.344840   
     38. B(H  37,C  32)                  1.1018         0.344819   
     39. B(C  38,C  35)                  1.4238         0.551869   
     40. B(C  39,C  38)                  1.4132         0.573651   
     41. B(C  40,C  39)                  1.3934         0.616956   
     42. B(C  41,C  40)                  1.4001         0.602142   
     43. B(C  42,C  41)                  1.4001         0.601985   
     44. B(C  43,C  42)                  1.3934         0.617106   
     45. B(C  43,C  38)                  1.4133         0.573439   
     46. B(H  44,C  41)                  1.0927         0.356492   
     47. B(H  45,C  42)                  1.0923         0.357029   
     48. B(H  46,C  39)                  1.0914         0.358210   
     49. B(H  47,C  43)                  1.0916         0.358019   
     50. B(H  48,C  40)                  1.0924         0.356918   
     51. L(C   0,C   1,C   3,C   8, 1) 179.7068         0.465936   
     52. L(C   0,C   1,C   3,C   8, 2) 180.4625         0.465936   
     53. L(C   6,C   2,C  35,C   5, 2) 179.8102         0.477626   
     54. L(C   6,C   2,C  35,C   5, 1) 179.4032         0.477626   
     55. A(C   4,C   3,C   8)          119.4701         0.409356   
     56. A(C   1,C   3,C   8)          119.2793         0.422881   
     57. A(C   1,C   3,C   4)          121.2506         0.419393   
     58. A(C   5,C   4,C  11)          123.0156         0.403064   
     59. A(C   3,C   4,C  11)          119.4402         0.388323   
     60. A(C   3,C   4,C   5)          117.5441         0.421622   
     61. A(C   4,C   5,H   9)          120.2176         0.354485   
     62. A(C   6,C   5,H   9)          117.4182         0.346822   
     63. A(C   4,C   5,C   6)          122.3643         0.427929   
     64. A(C   2,C   6,C   7)          120.6057         0.415985   
     65. A(C   5,C   6,C   7)          120.5986         0.414654   
     66. A(C   2,C   6,C   5)          118.7957         0.419492   
     67. A(C   8,C   7,C  23)          123.1914         0.402905   
     68. A(C   6,C   7,C  23)          119.6522         0.389958   
     69. A(C   6,C   7,C   8)          117.1564         0.425060   
     70. A(C   3,C   8,H  10)          116.5549         0.344749   
     71. A(C   7,C   8,H  10)          120.5786         0.355117   
     72. A(C   3,C   8,C   7)          122.8665         0.425862   
     73. A(H  13,C  11,C  14)          109.7359         0.321290   
     74. A(H  12,C  11,C  14)          109.7425         0.321291   
     75. A(C   4,C  11,H  12)          107.8806         0.324829   
     76. A(C   4,C  11,H  13)          107.8784         0.324827   
     77. A(C   4,C  11,C  14)          116.8844         0.367384   
     78. A(H  12,C  11,H  13)          103.9153         0.285781   
     79. A(H  16,C  14,C  17)          109.0066         0.320500   
     80. A(H  15,C  14,C  17)          109.0116         0.320500   
     81. A(C  11,C  14,C  17)          112.4797         0.362533   
     82. A(H  15,C  14,H  16)          106.2746         0.285410   
     83. A(C  11,C  14,H  16)          109.9350         0.321071   
     84. A(C  11,C  14,H  15)          109.9349         0.321071   
     85. A(C  14,C  17,H  18)          109.1838         0.320599   
     86. A(H  19,C  17,C  20)          109.6226         0.321210   
     87. A(H  18,C  17,C  20)          109.6224         0.321209   
     88. A(C  14,C  17,C  20)          113.1231         0.362579   
     89. A(H  18,C  17,H  19)          105.8463         0.285578   
     90. A(C  14,C  17,H  19)          109.1828         0.320600   
     91. A(H  21,C  20,H  22)          107.3915         0.286172   
     92. A(C  17,C  20,H  22)          111.3400         0.321560   
     93. A(C  17,C  20,H  21)          111.3408         0.321560   
     94. A(H  22,C  20,H  36)          107.5645         0.286546   
     95. A(H  21,C  20,H  36)          107.5659         0.286547   
     96. A(C  17,C  20,H  36)          111.4296         0.322002   
     97. A(H  25,C  23,C  26)          109.3216         0.321052   
     98. A(H  24,C  23,C  26)          109.3268         0.321053   
     99. A(C   7,C  23,C  26)          116.6464         0.366562   
    100. A(H  24,C  23,H  25)          104.6630         0.285490   
    101. A(C   7,C  23,H  24)          108.1073         0.324026   
    102. A(C   7,C  23,H  25)          108.1038         0.324025   
    103. A(H  28,C  26,C  29)          109.0859         0.320659   
    104. A(H  27,C  26,C  29)          109.0795         0.320659   
    105. A(C  23,C  26,C  29)          112.6000         0.362495   
    106. A(H  27,C  26,H  28)          106.2370         0.285621   
    107. A(C  23,C  26,H  28)          109.8176         0.321130   
    108. A(C  23,C  26,H  27)          109.8158         0.321130   
    109. A(H  31,C  29,C  32)          109.5674         0.321088   
    110. A(H  30,C  29,C  32)          109.5676         0.321088   
    111. A(C  26,C  29,C  32)          113.0798         0.362593   
    112. A(H  30,C  29,H  31)          105.9290         0.285409   
    113. A(C  26,C  29,H  31)          109.2230         0.320534   
    114. A(C  26,C  29,H  30)          109.2230         0.320534   
    115. A(H  33,C  32,H  34)          107.3683         0.286279   
    116. A(C  29,C  32,H  34)          111.2966         0.321602   
    117. A(C  29,C  32,H  33)          111.2961         0.321600   
    118. A(H  34,C  32,H  37)          107.6155         0.286598   
    119. A(H  33,C  32,H  37)          107.6140         0.286597   
    120. A(C  29,C  32,H  37)          111.4461         0.321976   
    121. L(C   2,C  35,C  38,C  43, 2) 179.8397         0.474988   
    122. L(C   2,C  35,C  38,C  43, 1) 179.9255         0.474988   
    123. A(C  39,C  38,C  43)          119.0306         0.422112   
    124. A(C  35,C  38,C  43)          120.4650         0.419207   
    125. A(C  35,C  38,C  39)          120.5044         0.419234   
    126. A(C  40,C  39,H  46)          120.5830         0.352301   
    127. A(C  38,C  39,H  46)          119.1916         0.348000   
    128. A(C  38,C  39,C  40)          120.2254         0.427673   
    129. A(C  41,C  40,H  48)          120.0294         0.350643   
    130. A(C  39,C  40,H  48)          119.6816         0.352086   
    131. A(C  39,C  40,C  41)          120.2890         0.431409   
    132. A(C  42,C  41,H  44)          120.0478         0.350557   
    133. A(C  40,C  41,H  44)          120.0104         0.350572   
    134. A(C  40,C  41,C  42)          119.9418         0.429511   
    135. A(C  43,C  42,H  45)          119.6817         0.352119   
    136. A(C  41,C  42,H  45)          120.0743         0.350646   
    137. A(C  41,C  42,C  43)          120.2440         0.431408   
    138. A(C  42,C  43,H  47)          120.5624         0.352284   
    139. A(C  38,C  43,H  47)          119.1684         0.347947   
    140. A(C  38,C  43,C  42)          120.2692         0.427664   
    141. D(C  11,C   4,C   3,C   8)   -179.9999         0.018015   
    142. D(C   5,C   4,C   3,C   8)      0.0042         0.018015   
    143. D(C   5,C   4,C   3,C   1)   -179.9925         0.018015   
    144. D(C  11,C   4,C   3,C   1)      0.0034         0.018015   
    145. D(C   6,C   5,C   4,C  11)   -179.9984         0.028055   
    146. D(H   9,C   5,C   4,C  11)      0.0024         0.028055   
    147. D(H   9,C   5,C   4,C   3)    179.9981         0.028055   
    148. D(C   6,C   5,C   4,C   3)     -0.0027         0.028055   
    149. D(C   2,C   6,C   5,H   9)      0.0011         0.021368   
    150. D(C   7,C   6,C   5,H   9)   -179.9968         0.021368   
    151. D(C   7,C   6,C   5,C   4)      0.0040         0.021368   
    152. D(C   2,C   6,C   5,C   4)   -179.9982         0.021368   
    153. D(C   8,C   7,C   6,C   5)     -0.0066         0.019386   
    154. D(C  23,C   7,C   6,C   2)      0.0053         0.019386   
    155. D(C   8,C   7,C   6,C   2)    179.9956         0.019386   
    156. D(C  23,C   7,C   6,C   5)   -179.9968         0.019386   
    157. D(H  10,C   8,C   7,C  23)     -0.0037         0.028634   
    158. D(C   3,C   8,C   7,C  23)    179.9983         0.028634   
    159. D(C   3,C   8,C   7,C   6)      0.0084         0.028634   
    160. D(H  10,C   8,C   7,C   6)   -179.9936         0.028634   
    161. D(C   7,C   8,C   3,C   4)     -0.0074         0.019810   
    162. D(C   7,C   8,C   3,C   1)    179.9894         0.019810   
    163. D(H  10,C   8,C   3,C   4)    179.9945         0.019810   
    164. D(H  10,C   8,C   3,C   1)     -0.0087         0.019810   
    165. D(C  14,C  11,C   4,C   5)     -0.0182         0.011812   
    166. D(C  14,C  11,C   4,C   3)    179.9862         0.011812   
    167. D(H  13,C  11,C   4,C   5)    124.1316         0.011812   
    168. D(H  12,C  11,C   4,C   5)   -124.1786         0.011812   
    169. D(H  13,C  11,C   4,C   3)    -55.8641         0.011812   
    170. D(H  12,C  11,C   4,C   3)     55.8258         0.011812   
    171. D(H  15,C  14,C  11,C   4)    -58.3244         0.011119   
    172. D(C  17,C  14,C  11,H  12)    -56.7905         0.011119   
    173. D(C  17,C  14,C  11,C   4)   -179.9992         0.011119   
    174. D(H  16,C  14,C  11,H  13)    -64.8679         0.011119   
    175. D(H  16,C  14,C  11,H  12)   -178.4589         0.011119   
    176. D(H  16,C  14,C  11,C   4)     58.3323         0.011119   
    177. D(H  15,C  14,C  11,H  13)    178.4754         0.011119   
    178. D(C  17,C  14,C  11,H  13)     56.8006         0.011119   
    179. D(H  15,C  14,C  11,H  12)     64.8843         0.011119   
    180. D(C  20,C  17,C  14,H  16)    -57.7885         0.010894   
    181. D(C  20,C  17,C  14,C  11)   -179.9836         0.010894   
    182. D(H  19,C  17,C  14,H  16)    179.8552         0.010894   
    183. D(H  19,C  17,C  14,H  15)    -64.5385         0.010894   
    184. D(H  19,C  17,C  14,C  11)     57.6600         0.010894   
    185. D(H  18,C  17,C  14,H  16)     64.5683         0.010894   
    186. D(C  20,C  17,C  14,H  15)     57.8179         0.010894   
    187. D(H  18,C  17,C  14,H  15)   -179.8253         0.010894   
    188. D(H  18,C  17,C  14,C  11)    -57.6268         0.010894   
    189. D(H  36,C  20,C  17,H  19)    -57.8816         0.011135   
    190. D(H  36,C  20,C  17,H  18)     57.8959         0.011135   
    191. D(H  36,C  20,C  17,C  14)   -179.9923         0.011135   
    192. D(H  22,C  20,C  17,H  19)     62.2108         0.011135   
    193. D(H  22,C  20,C  17,H  18)    177.9883         0.011135   
    194. D(H  22,C  20,C  17,C  14)    -59.8998         0.011135   
    195. D(H  21,C  20,C  17,H  19)   -177.9764         0.011135   
    196. D(H  21,C  20,C  17,H  18)    -62.1989         0.011135   
    197. D(H  21,C  20,C  17,C  14)     59.9130         0.011135   
    198. D(C  26,C  23,C   7,C   6)   -179.9879         0.011550   
    199. D(H  25,C  23,C   7,C   8)   -123.5857         0.011550   
    200. D(H  25,C  23,C   7,C   6)     56.4040         0.011550   
    201. D(H  24,C  23,C   7,C   6)    -56.3699         0.011550   
    202. D(C  26,C  23,C   7,C   8)      0.0225         0.011550   
    203. D(H  24,C  23,C   7,C   8)    123.6405         0.011550   
    204. D(C  29,C  26,C  23,H  25)    -57.0278         0.011093   
    205. D(C  29,C  26,C  23,C   7)    179.9922         0.011093   
    206. D(H  28,C  26,C  23,H  25)   -178.7961         0.011093   
    207. D(H  28,C  26,C  23,H  24)    -64.7652         0.011093   
    208. D(H  28,C  26,C  23,C   7)     58.2239         0.011093   
    209. D(H  27,C  26,C  23,H  25)     64.7311         0.011093   
    210. D(C  29,C  26,C  23,H  24)     57.0032         0.011093   
    211. D(H  27,C  26,C  23,H  24)    178.7620         0.011093   
    212. D(H  27,C  26,C  23,C   7)    -58.2489         0.011093   
    213. D(C  32,C  29,C  26,H  28)    -57.8395         0.010907   
    214. D(C  32,C  29,C  26,H  27)     57.8028         0.010907   
    215. D(C  32,C  29,C  26,C  23)    179.9782         0.010907   
    216. D(H  31,C  29,C  26,H  28)    179.8753         0.010907   
    217. D(H  31,C  29,C  26,H  27)    -64.4825         0.010907   
    218. D(H  31,C  29,C  26,C  23)     57.6930         0.010907   
    219. D(H  30,C  29,C  26,H  28)     64.4459         0.010907   
    220. D(H  30,C  29,C  26,H  27)   -179.9118         0.010907   
    221. D(H  30,C  29,C  26,C  23)    -57.7363         0.010907   
    222. D(H  37,C  32,C  29,H  31)    -57.9210         0.011126   
    223. D(H  37,C  32,C  29,H  30)     57.8937         0.011126   
    224. D(H  37,C  32,C  29,C  26)    179.9864         0.011126   
    225. D(H  34,C  32,C  29,H  31)     62.2180         0.011126   
    226. D(H  34,C  32,C  29,H  30)    178.0327         0.011126   
    227. D(H  34,C  32,C  29,C  26)    -59.8746         0.011126   
    228. D(H  33,C  32,C  29,H  31)   -178.0578         0.011126   
    229. D(H  33,C  32,C  29,H  30)    -62.2431         0.011126   
    230. D(H  33,C  32,C  29,C  26)     59.8495         0.011126   
    231. D(C  43,C  38,C   6,C   7)      0.1729         0.001500   
    232. D(C  43,C  38,C   6,C   5)   -179.8665         0.001500   
    233. D(C  39,C  38,C   6,C   7)   -179.8484         0.001500   
    234. D(C  39,C  38,C   6,C   5)      0.1123         0.001500   
    235. D(H  46,C  39,C  38,C  43)   -179.9916         0.022586   
    236. D(H  46,C  39,C  38,C  35)      0.0087         0.022586   
    237. D(C  40,C  39,C  38,C  43)      0.0041         0.022586   
    238. D(C  40,C  39,C  38,C  35)   -179.9956         0.022586   
    239. D(H  48,C  40,C  39,H  46)     -0.0011         0.026323   
    240. D(H  48,C  40,C  39,C  38)   -179.9967         0.026323   
    241. D(C  41,C  40,C  39,H  46)    179.9953         0.026323   
    242. D(C  41,C  40,C  39,C  38)     -0.0003         0.026323   
    243. D(H  44,C  41,C  40,H  48)     -0.0060         0.025005   
    244. D(H  44,C  41,C  40,C  39)    179.9976         0.025005   
    245. D(C  42,C  41,C  40,H  48)    179.9950         0.025005   
    246. D(C  42,C  41,C  40,C  39)     -0.0014         0.025005   
    247. D(H  45,C  42,C  41,H  44)     -0.0027         0.024991   
    248. D(H  45,C  42,C  41,C  40)    179.9963         0.024991   
    249. D(C  43,C  42,C  41,H  44)   -179.9997         0.024991   
    250. D(C  43,C  42,C  41,C  40)     -0.0007         0.024991   
    251. D(H  47,C  43,C  42,H  45)     -0.0014         0.026337   
    252. D(H  47,C  43,C  42,C  41)    179.9957         0.026337   
    253. D(C  38,C  43,C  42,H  45)   -179.9924         0.026337   
    254. D(C  38,C  43,C  42,C  41)      0.0046         0.026337   
    255. D(H  47,C  43,C  38,C  39)   -179.9974         0.022569   
    256. D(H  47,C  43,C  38,C  35)      0.0023         0.022569   
    257. D(C  42,C  43,C  38,C  39)     -0.0062         0.022569   
    258. D(C  42,C  43,C  38,C  35)    179.9935         0.022569   
    -----------------------------------------------------------------

Number of atoms                         .... 49
Number of degrees of freedom            .... 258

         *************************************************************
         *                GEOMETRY OPTIMIZATION CYCLE   1            *
         *************************************************************
---------------------------------
CARTESIAN COORDINATES (ANGSTROEM)
---------------------------------
  C     -4.098931    0.087765   -0.018323
  C     -2.815076    0.044696   -0.012293
  C      2.806877   -0.009352   -0.008639
  C     -1.422279    0.005100   -0.011544
  C     -0.708987   -1.249382   -0.014013
  C      0.675378   -1.199152   -0.012901
  C      1.391763    0.027471   -0.009530
  C      0.694350    1.279688   -0.007031
  C     -0.687513    1.232428   -0.008194
  H      1.257571   -2.120242   -0.014640
  H     -1.273452    2.150840   -0.006523
  C     -1.486382   -2.546381   -0.017556
  H     -2.167062   -2.531659   -0.888220
  H     -2.167693   -2.535994    0.852686
  C     -0.671410   -3.841632   -0.020383
  H     -0.007845   -3.867874   -0.905319
  H     -0.008740   -3.872304    0.865080
  C     -1.558349   -5.092339   -0.023882
  H     -2.225144   -5.067442    0.858016
  H     -2.223906   -5.063359   -0.906586
  C     -0.758078   -6.396489   -0.026336
  H     -0.109152   -6.471362    0.863751
  H     -0.107749   -6.467138   -0.915749
  C      1.480079    2.575413   -0.003525
  H      2.155692    2.565411    0.872266
  H      2.156295    2.569709   -0.878898
  C      0.666214    3.871764   -0.000706
  H      0.003657    3.900324   -0.885513
  H      0.002556    3.895824    0.883413
  C      1.551668    5.123307    0.002927
  H      2.216843    5.096365    0.886632
  H      2.218351    5.100427   -0.879758
  C      0.748913    6.426064    0.005234
  H      0.098114    6.494332    0.894086
  H      0.099966    6.498631   -0.884623
  C      4.031690   -0.053985   -0.010004
  H     -1.421698   -7.275998   -0.028962
  H      1.410652    7.307010    0.008068
  C      5.454596   -0.103995   -0.009607
  C      6.128758   -1.346068   -0.015313
  C      7.521557   -1.388230   -0.014800
  C      8.263944   -0.201228   -0.008638
  C      7.605862    1.034589   -0.002990
  C      6.213526    1.088290   -0.003492
  H      9.356011   -0.239603   -0.008221
  H      8.182935    1.962032    0.001885
  H      5.545277   -2.268430   -0.020182
  H      5.695120    2.048902    0.000965
  H      8.033536   -2.353232   -0.019293

----------------------------
CARTESIAN COORDINATES (A.U.)
----------------------------
  NO LB      ZA    FRAG     MASS         X           Y           Z
   0 C     6.0000    0    12.011   -7.745856    0.165853   -0.034625
   1 C     6.0000    0    12.011   -5.319724    0.084464   -0.023230
   2 C     6.0000    0    12.011    5.304229   -0.017672   -0.016326
   3 C     6.0000    0    12.011   -2.687717    0.009638   -0.021815
   4 C     6.0000    0    12.011   -1.339792   -2.360991   -0.026480
   5 C     6.0000    0    12.011    1.276280   -2.266068   -0.024379
   6 C     6.0000    0    12.011    2.630051    0.051912   -0.018010
   7 C     6.0000    0    12.011    1.312132    2.418260   -0.013287
   8 C     6.0000    0    12.011   -1.299211    2.328952   -0.015485
   9 H     1.0000    0     1.008    2.376465   -4.006677   -0.027665
  10 H     1.0000    0     1.008   -2.406475    4.064499   -0.012326
  11 C     6.0000    0    12.011   -2.808854   -4.811963   -0.033176
  12 H     1.0000    0     1.008   -4.095154   -4.784143   -1.678492
  13 H     1.0000    0     1.008   -4.096345   -4.792334    1.611343
  14 C     6.0000    0    12.011   -1.268781   -7.259633   -0.038518
  15 H     1.0000    0     1.008   -0.014825   -7.309223   -1.710804
  16 H     1.0000    0     1.008   -0.016517   -7.317593    1.634764
  17 C     6.0000    0    12.011   -2.944852   -9.623126   -0.045130
  18 H     1.0000    0     1.008   -4.204913   -9.576078    1.621416
  19 H     1.0000    0     1.008   -4.202573   -9.568363   -1.713199
  20 C     6.0000    0    12.011   -1.432560  -12.087612   -0.049768
  21 H     1.0000    0     1.008   -0.206268  -12.229102    1.632252
  22 H     1.0000    0     1.008   -0.203616  -12.221119   -1.730514
  23 C     6.0000    0    12.011    2.796945    4.866825   -0.006662
  24 H     1.0000    0     1.008    4.073668    4.847925    1.648344
  25 H     1.0000    0     1.008    4.074807    4.856047   -1.660876
  26 C     6.0000    0    12.011    1.258961    7.316574   -0.001333
  27 H     1.0000    0     1.008    0.006910    7.370544   -1.673377
  28 H     1.0000    0     1.008    0.004831    7.362041    1.669410
  29 C     6.0000    0    12.011    2.932227    9.681648    0.005531
  30 H     1.0000    0     1.008    4.189226    9.630735    1.675492
  31 H     1.0000    0     1.008    4.192077    9.638410   -1.662502
  32 C     6.0000    0    12.011    1.415240   12.143502    0.009891
  33 H     1.0000    0     1.008    0.185409   12.272509    1.689577
  34 H     1.0000    0     1.008    0.188908   12.280634   -1.671695
  35 C     6.0000    0    12.011    7.618789   -0.102016   -0.018906
  36 H     1.0000    0     1.008   -2.686620  -13.749643   -0.054731
  37 H     1.0000    0     1.008    2.665745   13.808247    0.015246
  38 C     6.0000    0    12.011   10.307693   -0.196522   -0.018155
  39 C     6.0000    0    12.011   11.581673   -2.543699   -0.028938
  40 C     6.0000    0    12.011   14.213683   -2.623375   -0.027968
  41 C     6.0000    0    12.011   15.616591   -0.380267   -0.016323
  42 C     6.0000    0    12.011   14.372996    1.955090   -0.005650
  43 C     6.0000    0    12.011   11.741862    2.056569   -0.006599
  44 H     1.0000    0     1.008   17.680298   -0.452784   -0.015536
  45 H     1.0000    0     1.008   15.463506    3.707703    0.003561
  46 H     1.0000    0     1.008   10.479056   -4.286711   -0.038139
  47 H     1.0000    0     1.008   10.762217    3.871864    0.001824
  48 H     1.0000    0     1.008   15.181183   -4.446965   -0.036459

--------------------------------
INTERNAL COORDINATES (ANGSTROEM)
--------------------------------
 C      0   0   0     0.000000000000     0.00000000     0.00000000
 C      1   0   0     1.284590401371     0.00000000     0.00000000
 C      2   1   0     5.622214575816   178.60999369     0.00000000
 C      2   1   3     1.393360814921   179.62246731   330.48551219
 C      4   2   1     1.443093093029   121.25060955   219.24160158
 C      5   4   2     1.385277056002   117.54413682   180.00748491
 C      3   2   1     1.415593554046     0.93974358     9.66753676
 C      7   3   6     1.433331061426   120.60570071   179.99789624
 C      8   7   3     1.382671462816   117.15639170   179.99558516
 H      6   5   4     1.089660221277   120.21755347   179.99809118
 H      9   8   7     1.089406994454   120.57864486   180.00641056
 C      5   4   2     1.512137911025   119.44021592     0.00000000
 H     12   5   4     1.105259154458   107.88061318    55.82578227
 H     12   5   4     1.105266336671   107.87842969   304.13589978
 C     12   5   4     1.530314327867   116.88444151   179.98615835
 H     15  12   5     1.106398738549   109.93487389   301.67557917
 H     15  12   5     1.106398005914   109.93497786    58.33234598
 C     15  12   5     1.533277280790   112.47969220   180.00081839
 H     18  15  12     1.105884583354   109.18380423   302.37317897
 H     18  15  12     1.105880898418   109.18278601    57.66003207
 C     18  15  12     1.530113457031   113.12307785   180.01635180
 H     21  18  15     1.104067424843   111.34076388    59.91295741
 H     21  18  15     1.104071423627   111.33999061   300.10015246
 C      8   7   3     1.515349879389   119.65217846     0.00000000
 H     24   8   7     1.106147993787   108.10732495   303.63011890
 H     24   8   7     1.106154127704   108.10375626    56.40396052
 C     24   8   7     1.530657753194   116.64636226   180.01208804
 H     27  24   8     1.105749072603   109.81579203   301.75110223
 H     27  24   8     1.105751455456   109.81755036    58.22391520
 C     27  24   8     1.533102106546   112.60001305   179.99224290
 H     30  27  24     1.106399080021   109.22296313   302.26367743
 H     30  27  24     1.106400929171   109.22304281    57.69299364
 C     30  27  24     1.530227695036   113.07983984   179.97824807
 H     33  30  27     1.103746463045   111.29614115    59.84954055
 H     33  30  27     1.103740705302   111.29663080   300.12538392
 C      3   2   1     1.225626253881   178.46051709   193.36055954
 H     21  18  15     1.101786886556   111.42964044   180.00771781
 H     33  30  27     1.101803455698   111.44614981   179.98635176
 C     36   3   7     1.423785257702   179.89113103   217.64161676
 C     39  36   3     1.413248144384   120.50441489   133.12833539
 C     40  39  36     1.393437522191   120.22537640   180.00435930
 C     41  40  39     1.400053551159   120.28898218     0.00000000
 C     42  41  40     1.400124446255   119.94182630     0.00000000
 C     43  42  41     1.393371531379   120.24400847     0.00000000
 H     42  41  40     1.092740888946   120.01040328   179.99759119
 H     43  42  41     1.092331497807   120.07427401   179.99628295
 H     40  39  36     1.091432430574   119.19160075     0.00000000
 H     44  43  42     1.091577315428   120.56237415   179.99565438
 H     41  40  39     1.092415769547   119.68159509   180.00325228

---------------------------
INTERNAL COORDINATES (A.U.)
---------------------------
 C      0   0   0     0.000000000000     0.00000000     0.00000000
 C      1   0   0     2.427524052855     0.00000000     0.00000000
 C      2   1   0    10.624445814432   178.60999369     0.00000000
 C      2   1   3     2.633070345937   179.62246731   330.48551219
 C      4   2   1     2.727050731578   121.25060955   219.24160158
 C      5   4   2     2.617794255449   117.54413682   180.00748491
 C      3   2   1     2.675084134091     0.93974358     9.66753676
 C      7   3   6     2.708603165338   120.60570071   179.99789624
 C      8   7   3     2.612870397910   117.15639170   179.99558516
 H      6   5   4     2.059159397242   120.21755347   179.99809118
 H      9   8   7     2.058680867897   120.57864486   180.00641056
 C      5   4   2     2.857526528558   119.44021592     0.00000000
 H     12   5   4     2.088637108936   107.88061318    55.82578227
 H     12   5   4     2.088650681350   107.87842969   304.13589978
 C     12   5   4     2.891874978485   116.88444151   179.98615835
 H     15  12   5     2.090790610773   109.93487389   301.67557917
 H     15  12   5     2.090789226294   109.93497786    58.33234598
 C     15  12   5     2.897474148056   112.47969220   180.00081839
 H     18  15  12     2.089818998265   109.18380423   302.37317897
 H     18  15  12     2.089812034745   109.18278601    57.66003207
 C     18  15  12     2.891495387616   113.12307785   180.01635180
 H     21  18  15     2.086385066337   111.34076388    59.91295741
 H     21  18  15     2.086392622945   111.33999061   300.10015246
 C      8   7   3     2.863596269116   119.65217846     0.00000000
 H     24   8   7     2.090316771843   108.10732495   303.63011890
 H     24   8   7     2.090328363267   108.10375626    56.40396052
 C     24   8   7     2.892523958299   116.64636226   180.01208804
 H     27  24   8     2.089562920057   109.81579203   301.75110223
 H     27  24   8     2.089567422997   109.81755036    58.22391520
 C     27  24   8     2.897143116709   112.60001305   179.99224290
 H     30  27  24     2.090791256062   109.22296313   302.26367743
 H     30  27  24     2.090794750450   109.22304281    57.69299364
 C     30  27  24     2.891711266160   113.07983984   179.97824807
 H     33  30  27     2.085778536439   111.29614115    59.84954055
 H     33  30  27     2.085767655881   111.29663080   300.12538392
 C      3   2   1     2.316097962379   178.46051709   193.36055954
 H     21  18  15     2.082075473537   111.42964044   180.00771781
 H     33  30  27     2.082106784678   111.44614981   179.98635176
 C     36   3   7     2.690564210570   179.89113103   217.64161676
 C     39  36   3     2.670651952159   120.50441489   133.12833539
 C     40  39  36     2.633215301672   120.22537640   180.00435930
 C     41  40  39     2.645717784514   120.28898218     0.00000000
 C     42  41  40     2.645851756829   119.94182630     0.00000000
 C     43  42  41     2.633090597109   120.24400847     0.00000000
 H     42  41  40     2.064981015445   120.01040328   179.99759119
 H     43  42  41     2.064207378312   120.07427401   179.99628295
 H     40  39  36     2.062508387465   119.19160075     0.00000000
 H     44  43  42     2.062782180159   120.56237415   179.99565438
 H     41  40  39     2.064366628820   119.68159509   180.00325228

---------------------
BASIS SET INFORMATION
---------------------
There are 2 groups of distinct atoms

 Group   1 Type C   : 17s4p1d contracted to 3s2p1d pattern {881/31/1}
 Group   2 Type H   : 4s1p contracted to 2s1p pattern {31/1}

Atom   0C    basis set group =>   1
Atom   1C    basis set group =>   1
Atom   2C    basis set group =>   1
Atom   3C    basis set group =>   1
Atom   4C    basis set group =>   1
Atom   5C    basis set group =>   1
Atom   6C    basis set group =>   1
Atom   7C    basis set group =>   1
Atom   8C    basis set group =>   1
Atom   9H    basis set group =>   2
Atom  10H    basis set group =>   2
Atom  11C    basis set group =>   1
Atom  12H    basis set group =>   2
Atom  13H    basis set group =>   2
Atom  14C    basis set group =>   1
Atom  15H    basis set group =>   2
Atom  16H    basis set group =>   2
Atom  17C    basis set group =>   1
Atom  18H    basis set group =>   2
Atom  19H    basis set group =>   2
Atom  20C    basis set group =>   1
Atom  21H    basis set group =>   2
Atom  22H    basis set group =>   2
Atom  23C    basis set group =>   1
Atom  24H    basis set group =>   2
Atom  25H    basis set group =>   2
Atom  26C    basis set group =>   1
Atom  27H    basis set group =>   2
Atom  28H    basis set group =>   2
Atom  29C    basis set group =>   1
Atom  30H    basis set group =>   2
Atom  31H    basis set group =>   2
Atom  32C    basis set group =>   1
Atom  33H    basis set group =>   2
Atom  34H    basis set group =>   2
Atom  35C    basis set group =>   1
Atom  36H    basis set group =>   2
Atom  37H    basis set group =>   2
Atom  38C    basis set group =>   1
Atom  39C    basis set group =>   1
Atom  40C    basis set group =>   1
Atom  41C    basis set group =>   1
Atom  42C    basis set group =>   1
Atom  43C    basis set group =>   1
Atom  44H    basis set group =>   2
Atom  45H    basis set group =>   2
Atom  46H    basis set group =>   2
Atom  47H    basis set group =>   2
Atom  48H    basis set group =>   2
---------------------------------
AUXILIARY/J BASIS SET INFORMATION
---------------------------------
There are 2 groups of distinct atoms

 Group   1 Type C   : 12s5p4d2f1g contracted to 6s4p3d1f1g pattern {711111/2111/211/2/1}
 Group   2 Type H   : 5s2p1d contracted to 3s1p1d pattern {311/2/1}

Atom   0C    basis set group =>   1
Atom   1C    basis set group =>   1
Atom   2C    basis set group =>   1
Atom   3C    basis set group =>   1
Atom   4C    basis set group =>   1
Atom   5C    basis set group =>   1
Atom   6C    basis set group =>   1
Atom   7C    basis set group =>   1
Atom   8C    basis set group =>   1
Atom   9H    basis set group =>   2
Atom  10H    basis set group =>   2
Atom  11C    basis set group =>   1
Atom  12H    basis set group =>   2
Atom  13H    basis set group =>   2
Atom  14C    basis set group =>   1
Atom  15H    basis set group =>   2
Atom  16H    basis set group =>   2
Atom  17C    basis set group =>   1
Atom  18H    basis set group =>   2
Atom  19H    basis set group =>   2
Atom  20C    basis set group =>   1
Atom  21H    basis set group =>   2
Atom  22H    basis set group =>   2
Atom  23C    basis set group =>   1
Atom  24H    basis set group =>   2
Atom  25H    basis set group =>   2
Atom  26C    basis set group =>   1
Atom  27H    basis set group =>   2
Atom  28H    basis set group =>   2
Atom  29C    basis set group =>   1
Atom  30H    basis set group =>   2
Atom  31H    basis set group =>   2
Atom  32C    basis set group =>   1
Atom  33H    basis set group =>   2
Atom  34H    basis set group =>   2
Atom  35C    basis set group =>   1
Atom  36H    basis set group =>   2
Atom  37H    basis set group =>   2
Atom  38C    basis set group =>   1
Atom  39C    basis set group =>   1
Atom  40C    basis set group =>   1
Atom  41C    basis set group =>   1
Atom  42C    basis set group =>   1
Atom  43C    basis set group =>   1
Atom  44H    basis set group =>   2
Atom  45H    basis set group =>   2
Atom  46H    basis set group =>   2
Atom  47H    basis set group =>   2
Atom  48H    basis set group =>   2


           ************************************************************
           *        Program running with 16 parallel MPI-processes    *
           *              working on a common directory               *
           ************************************************************
------------------------------------------------------------------------------
                           ORCA GTO INTEGRAL CALCULATION
                           -- RI-GTO INTEGRALS CHOSEN --
------------------------------------------------------------------------------
------------------------------------------------------------------------------
                   ___                                                        
                  /   \      - P O W E R E D   B Y -                         
                 /     \                                                     
                 |  |  |   _    _      __       _____    __    __             
                 |  |  |  | |  | |    /  \     |  _  \  |  |  /  |          
                  \  \/   | |  | |   /    \    | | | |  |  | /  /          
                 / \  \   | |__| |  /  /\  \   | |_| |  |  |/  /          
                |  |  |   |  __  | /  /__\  \  |    /   |      \           
                |  |  |   | |  | | |   __   |  |    \   |  |\   \          
                \     /   | |  | | |  |  |  |  | |\  \  |  | \   \       
                 \___/    |_|  |_| |__|  |__|  |_| \__\ |__|  \__/        
                                                                              
                      - O R C A' S   B I G   F R I E N D -                    
                                      &                                       
                       - I N T E G R A L  F E E D E R -                       
                                                                              
 v1 FN, 2020, v2 2021                                                         
------------------------------------------------------------------------------


Reading SHARK input file opt.SHARKINP.tmp ... ok
----------------------
SHARK INTEGRAL PACKAGE
----------------------

Number of atoms                             ...     49
Number of basis functions                   ...    605
Number of shells                            ...    363
Maximum angular momentum                    ...      2
Integral batch strategy                     ... SHARK/LIBINT Hybrid
RI-J (if used) integral strategy            ... SPLIT-RIJ (Revised 2003 algorithm where possible)
Printlevel                                  ...      1
Contraction scheme used                     ... PARTIAL GENERAL contraction
Coulomb Range Separation                    ... NOT USED
Exchange Range Separation                   ... NOT USED
Finite Nucleus Model                        ... NOT USED
Auxiliary Coulomb fitting basis             ... AVAILABLE
   # of basis functions in Aux-J            ...   1451
   # of shells in Aux-J                     ...    485
   Maximum angular momentum in Aux-J        ...      4
Auxiliary J/K fitting basis                 ... NOT available
Auxiliary Correlation fitting basis         ... NOT available
Auxiliary 'external' fitting basis          ... NOT available
Integral threshold                          ...     2.500000e-11
Primitive cut-off                           ...     2.500000e-12
Primitive pair pre-selection threshold      ...     2.500000e-12

Calculating pre-screening integrals         ... done (  0.0 sec) Dimension = 363
Calculating pre-screening integrals (ORCA)  ... done (  0.1 sec) Dimension = 219
Organizing shell pair data                  ... done (  0.2 sec)
Shell pair information
Total number of shell pairs                 ...     66066
Shell pairs after pre-screening             ...     26496
Total number of primitive shell pairs       ...    106638
Primitive shell pairs kept                  ...     35957
          la=0 lb=0:  11483 shell pairs
          la=1 lb=0:   9363 shell pairs
          la=1 lb=1:   1671 shell pairs
          la=2 lb=0:   2816 shell pairs
          la=2 lb=1:    999 shell pairs
          la=2 lb=2:    164 shell pairs

Calculating one electron integrals          ... done (  0.0 sec)
Calculating RI/J V-Matrix + Cholesky decomp.... done (  0.2 sec)
Calculating Nuclear repulsion               ... done (  0.0 sec) ENN=   1728.407082302711 Eh

SHARK setup successfully completed in   0.9 seconds

Maximum memory used throughout the entire GTOINT-calculation: 38.0 MB


           ************************************************************
           *        Program running with 16 parallel MPI-processes    *
           *              working on a common directory               *
           ************************************************************
-------------------------------------------------------------------------------
                                 ORCA SCF
-------------------------------------------------------------------------------

------------
SCF SETTINGS
------------
Hamiltonian:
 Density Functional     Method          .... DFT(GTOs)
 Exchange Functional    Exchange        .... B88
   X-Alpha parameter    XAlpha          ....  0.666667
   Becke's b parameter  XBeta           ....  0.004200
 Correlation Functional Correlation     .... LYP
 LDA part of GGA corr.  LDAOpt          .... VWN-5
 Gradients option       PostSCFGGA      .... off
 Hybrid DFT is turned on
   Fraction HF Exchange ScalHFX         ....  0.200000
   Scaling of DF-GGA-X  ScalDFX         ....  0.720000
   Scaling of DF-GGA-C  ScalDFC         ....  0.810000
   Scaling of DF-LDA-C  ScalLDAC        ....  1.000000
   Perturbative correction              ....  0.000000
   Density functional embedding theory  .... OFF
   NL short-range parameter             ....  4.800000
 RI-approximation to the Coulomb term is turned on
   Number of AuxJ basis functions       .... 1451
   RIJ-COSX (HFX calculated with COS-X)).... on


General Settings:
 Integral files         IntName         .... opt
 Hartree-Fock type      HFTyp           .... UHF
 Total Charge           Charge          ....    0
 Multiplicity           Mult            ....    2
 Number of Electrons    NEL             ....  169
 Basis Dimension        Dim             ....  461
 Nuclear Repulsion      ENuc            ....   1728.4070823027 Eh

Convergence Acceleration:
 DIIS                   CNVDIIS         .... on
   Start iteration      DIISMaxIt       ....    12
   Startup error        DIISStart       ....  0.200000
   # of expansion vecs  DIISMaxEq       ....     5
   Bias factor          DIISBfac        ....   1.050
   Max. coefficient     DIISMaxC        ....  10.000
 Trust-Rad. Augm. Hess. CNVTRAH         .... auto
   Auto Start mean grad. ratio tolernc. ....  1.125000
   Auto Start start iteration           ....    20
   Auto Start num. interpolation iter.  ....    10
   Max. Number of Micro iterations      ....    16
   Max. Number of Macro iterations      .... Maxiter - #DIIS iter
   Number of Davidson start vectors     ....     2
   Converg. threshold I  (grad. norm)   ....   1.000e-05
   Converg. threshold II (energy diff.) ....   1.000e-08
   Grad. Scal. Fac. for Micro threshold ....   0.100
   Minimum threshold for Micro iter.    ....   0.010
   NR start threshold (gradient norm)   ....   0.001
   Initial trust radius                 ....   0.400
   Minimum AH scaling param. (alpha)    ....   1.000
   Maximum AH scaling param. (alpha)    .... 1000.000
   Orbital update algorithm             .... Taylor
   White noise on init. David. guess    .... on
   Maximum white noise                  ....   0.010
   Quad. conv. algorithm                .... NR
 SOSCF                  CNVSOSCF        .... off
 Level Shifting         CNVShift        .... on
   Level shift para.    LevelShift      ....    0.2500
   Turn off err/grad.   ShiftErr        ....    0.0010
 Zerner damping         CNVZerner       .... off
 Static damping         CNVDamp         .... on
   Fraction old density DampFac         ....    0.7000
   Max. Damping (<1)    DampMax         ....    0.9800
   Min. Damping (>=0)   DampMin         ....    0.0000
   Turn off err/grad.   DampErr         ....    0.1000
 Fernandez-Rico         CNVRico         .... off

SCF Procedure:
 Maximum # iterations   MaxIter         ....   125
 SCF integral mode      SCFMode         .... Direct
   Integral package                     .... SHARK and LIBINT hybrid scheme
 Reset frequency        DirectResetFreq ....    20
 Integral Threshold     Thresh          ....  2.500e-11 Eh
 Primitive CutOff       TCut            ....  2.500e-12 Eh

Convergence Tolerance:
 Convergence Check Mode ConvCheckMode   .... Total+1el-Energy
 Convergence forced     ConvForced      .... 0
 Energy Change          TolE            ....  1.000e-08 Eh
 1-El. energy change                    ....  1.000e-05 Eh
 DIIS Error             TolErr          ....  5.000e-07


Diagonalization of the overlap matrix:
Smallest eigenvalue                        ... 5.178e-05
Time for diagonalization                   ...    0.054 sec
Threshold for overlap eigenvalues          ... 1.000e-08
Number of eigenvalues below threshold      ... 0
Time for construction of square roots      ...    0.045 sec
Total time needed                          ...    0.100 sec

Time for model grid setup =    0.384 sec

------------------------------
INITIAL GUESS: MODEL POTENTIAL
------------------------------
Loading Hartree-Fock densities                     ... done
Calculating cut-offs                               ... done
Initializing the effective Hamiltonian             ... done
Setting up the integral package (SHARK)            ... done
Starting the Coulomb interaction                   ... done (   0.3 sec)
Reading the grid                                   ... done
Mapping shells                                     ... done
Starting the XC term evaluation                    ... done (   0.1 sec)
  promolecular density results
     # of electrons  =    168.999572591
     EX              =   -130.639951929
     EC              =     -5.563944111
     EX+EC           =   -136.203896041
Transforming the Hamiltonian                       ... done (   0.0 sec)
Diagonalizing the Hamiltonian                      ... done (   0.0 sec)
Back transforming the eigenvectors                 ... done (   0.0 sec)
Now organizing SCF variables                       ... done
                      ------------------
                      INITIAL GUESS DONE (   1.1 sec)
                      ------------------
-------------------
DFT GRID GENERATION
-------------------

General Integration Accuracy     IntAcc      ... 4.388
Radial Grid Type                 RadialGrid  ... OptM3 with GC (2021)
Angular Grid (max. ang.)         AngularGrid ... 4 (Lebedev-302)
Angular grid pruning method      GridPruning ... 4 (adaptive)
Weight generation scheme         WeightScheme... Becke
Basis function cutoff            BFCut       ... 1.0000e-11
Integration weight cutoff        WCut        ... 1.0000e-14
Angular grids for H and He will be reduced by one unit
Partially contracted basis set               ... off
Rotationally invariant grid construction     ... off

Total number of grid points                  ...   223001
Total number of batches                      ...     3510
Average number of points per batch           ...       63
Average number of grid points per atom       ...     4551
Time for grid setup =    1.503 sec

--------------------
COSX GRID GENERATION
--------------------

GRIDX 1
-------
General Integration Accuracy     IntAcc      ... 3.816
Radial Grid Type                 RadialGrid  ... OptM3 with GC (2021)
Angular Grid (max. ang.)         AngularGrid ... 1 (Lebedev-50)
Angular grid pruning method      GridPruning ... 4 (adaptive)
Weight generation scheme         WeightScheme... Becke
Basis function cutoff            BFCut       ... 1.0000e-11
Integration weight cutoff        WCut        ... 1.0000e-14
Angular grids for H and He will be reduced by one unit
Partially contracted basis set               ... on
Rotationally invariant grid construction     ... off

Total number of grid points                  ...    28394
Total number of batches                      ...      471
Average number of points per batch           ...       60
Average number of grid points per atom       ...      579
UseSFitting                                  ... on

GRIDX 2
-------
General Integration Accuracy     IntAcc      ... 4.020
Radial Grid Type                 RadialGrid  ... OptM3 with GC (2021)
Angular Grid (max. ang.)         AngularGrid ... 2 (Lebedev-110)
Angular grid pruning method      GridPruning ... 4 (adaptive)
Weight generation scheme         WeightScheme... Becke
Basis function cutoff            BFCut       ... 1.0000e-11
Integration weight cutoff        WCut        ... 1.0000e-14
Angular grids for H and He will be reduced by one unit
Partially contracted basis set               ... on
Rotationally invariant grid construction     ... off

Total number of grid points                  ...    60555
Total number of batches                      ...      971
Average number of points per batch           ...       62
Average number of grid points per atom       ...     1236
UseSFitting                                  ... on

GRIDX 3
-------
General Integration Accuracy     IntAcc      ... 4.338
Radial Grid Type                 RadialGrid  ... OptM3 with GC (2021)
Angular Grid (max. ang.)         AngularGrid ... 3 (Lebedev-194)
Angular grid pruning method      GridPruning ... 4 (adaptive)
Weight generation scheme         WeightScheme... Becke
Basis function cutoff            BFCut       ... 1.0000e-11
Integration weight cutoff        WCut        ... 1.0000e-14
Angular grids for H and He will be reduced by one unit
Partially contracted basis set               ... on
Rotationally invariant grid construction     ... off

Total number of grid points                  ...   132521
Total number of batches                      ...     2094
Average number of points per batch           ...       63
Average number of grid points per atom       ...     2705
UseSFitting                                  ... on

Time for X-Grid setup             =    2.434 sec

 re-compute Schwartz prescreening matrix in partically contracted basis (1) ...done (   0.122 sec)
--------------
SCF ITERATIONS
--------------
ITER       Energy         Delta-E        Max-DP      RMS-DP      [F,P]     Damp
               ***  Starting incremental Fock matrix formation  ***
  0   -928.2941658682   0.000000000000 0.05634141  0.00081819  0.0873829 0.7000
  1   -928.5363698948  -0.242204026590 0.05897442  0.00068659  0.0460247 0.7000
                               ***Turning on DIIS***
  2   -928.6453614877  -0.108991592878 0.11910991  0.00134014  0.0178664 0.0000
  3   -928.7978799465  -0.152518458824 0.07670804  0.00051980  0.0253271 0.0000
  4   -928.8399881561  -0.042108209579 0.03837893  0.00025697  0.0072186 0.0000
  5   -928.8432276343  -0.003239478234 0.01730198  0.00009806  0.0039192 0.0000
  6   -928.8438412864  -0.000613652038 0.00409832  0.00003206  0.0020864 0.0000
  7   -928.8441136621  -0.000272375725 0.00198034  0.00002138  0.0015091 0.0000
  8   -928.8442735556  -0.000159893470 0.00197750  0.00001821  0.0010456 0.0000
  9   -928.8443742802  -0.000100724690 0.00410889  0.00003432  0.0008655 0.0000
               *** Restarting incremental Fock matrix formation ***
                                   *** Resetting DIIS ***
 10   -928.8447307239  -0.000356443636 0.00385726  0.00002979  0.0007287 0.0000
 11   -928.8447116462   0.000019077675 0.00103577  0.00000920  0.0012479 0.0000
 12   -928.8447409191  -0.000029272857 0.00144005  0.00001032  0.0005498 0.0000
 13   -928.8447483604  -0.000007441356 0.00039538  0.00000348  0.0002352 0.0000
 14   -928.8447499521  -0.000001591673 0.00040213  0.00000285  0.0002077 0.0000
 15   -928.8447507226  -0.000000770516 0.00015235  0.00000102  0.0000870 0.0000
 16   -928.8447508000  -0.000000077343 0.00017911  0.00000133  0.0000643 0.0000
 17   -928.8447509184  -0.000000118402 0.00004031  0.00000035  0.0000217 0.0000
 18   -928.8447509371  -0.000000018756 0.00003826  0.00000040  0.0000200 0.0000
 19   -928.8447509527  -0.000000015561 0.00002358  0.00000021  0.0000082 0.0000
 20   -928.8447509619  -0.000000009269 0.00002004  0.00000017  0.0000072 0.0000
 21   -928.8447509590   0.000000002936 0.00001839  0.00000015  0.0000064 0.0000
 22   -928.8447509589   0.000000000148 0.00002460  0.00000020  0.0000056 0.0000
 23   -928.8447509651  -0.000000006200 0.00002260  0.00000018  0.0000046 0.0000
 24   -928.8447509720  -0.000000006970 0.00001621  0.00000014  0.0000037 0.0000
 25   -928.8447509683   0.000000003744 0.00001557  0.00000012  0.0000030 0.0000
 26   -928.8447509672   0.000000001123 0.00001122  0.00000009  0.0000023 0.0000
 27   -928.8447509711  -0.000000003977 0.00001143  0.00000010  0.0000019 0.0000
 28   -928.8447509806  -0.000000009440 0.00000692  0.00000006  0.0000018 0.0000
 29   -928.8447509815  -0.000000000916 0.00001305  0.00000010  0.0000014 0.0000
               *** Restarting incremental Fock matrix formation ***
                                   *** Resetting DIIS ***
 30   -928.8447509595   0.000000021984 0.00004561  0.00000039  0.0000010 0.0000
 31   -928.8447509552   0.000000004262 0.00000505  0.00000003  0.0000015 0.0000
                 **** Energy Check signals convergence ****

               *****************************************************
               *                     SUCCESS                       *
               *           SCF CONVERGED AFTER  32 CYCLES          *
               *****************************************************

Old exchange energy                            =    -26.626166591 Eh
New exchange energy                            =    -26.626272446 Eh
Exchange energy change after final integration =     -0.000105856 Eh
Total energy after final integration           =   -928.844856817 Eh
Final COS-X integration done in                =     8.380 sec

----------------
TOTAL SCF ENERGY
----------------

Total Energy       :         -928.84485682 Eh          -25275.15352 eV

Components:
Nuclear Repulsion  :         1728.40708230 Eh           47032.34779 eV
Electronic Energy  :        -2657.25193912 Eh          -72307.50131 eV
One Electron Energy:        -4684.05591204 Eh         -127459.64129 eV
Two Electron Energy:         2026.80397292 Eh           55152.13998 eV
Max COSX asymmetry :            0.00000064 Eh               0.00002 eV

Virial components:
Potential Energy   :        -1851.29752806 Eh          -50376.36682 eV
Kinetic Energy     :          922.45267125 Eh           25101.21331 eV
Virial Ratio       :            2.00692955


DFT components:
N(Alpha)           :       85.000197399320 electrons
N(Beta)            :       84.000198958353 electrons
N(Total)           :      169.000396357674 electrons
E(X)               :     -105.614963966157 Eh       
E(C)               :       -6.571896935364 Eh       
E(XC)              :     -112.186860901521 Eh       
DFET-embed. en.    :        0.000000000000 Eh       

---------------
SCF CONVERGENCE
---------------

  Last Energy change         ...   -6.1418e-09  Tolerance :   1.0000e-08
  Last MAX-Density change    ...    0.0000e+00  Tolerance :   1.0000e-07
  Last RMS-Density change    ...    0.0000e+00  Tolerance :   5.0000e-09
  Last DIIS Error            ...    8.3278e-07  Tolerance :   5.0000e-07

             **** THE GBW FILE WAS UPDATED (opt.gbw) ****
             **** DENSITY opt.scfp WAS UPDATED ****
             **** ENERGY FILE WAS UPDATED (opt.en.tmp) ****
----------------------
UHF SPIN CONTAMINATION
----------------------

Warning: in a DFT calculation there is little theoretical justification to 
         calculate <S**2> as in Hartree-Fock theory. We will do it anyways
         but you should keep in mind that the values have only limited relevance

Expectation value of <S**2>     :     0.773534
Ideal value S*(S+1) for S=0.5   :     0.750000
Deviation                       :     0.023534

             **** THE GBW FILE WAS UPDATED (opt.gbw) ****
             **** DENSITY opt.scfp WAS UPDATED ****
----------------
ORBITAL ENERGIES
----------------
                 SPIN UP ORBITALS
  NO   OCC          E(Eh)            E(eV) 
   0   1.0000     -10.243960      -278.7523 
   1   1.0000     -10.235742      -278.5287 
   2   1.0000     -10.229527      -278.3596 
   3   1.0000     -10.223053      -278.1834 
   4   1.0000     -10.219864      -278.0966 
   5   1.0000     -10.219375      -278.0833 
   6   1.0000     -10.217084      -278.0210 
   7   1.0000     -10.216936      -278.0170 
   8   1.0000     -10.215144      -277.9682 
   9   1.0000     -10.212592      -277.8988 
  10   1.0000     -10.212533      -277.8971 
  11   1.0000     -10.212474      -277.8956 
  12   1.0000     -10.210861      -277.8516 
  13   1.0000     -10.210019      -277.8287 
  14   1.0000     -10.201322      -277.5921 
  15   1.0000     -10.192846      -277.3614 
  16   1.0000     -10.191217      -277.3171 
  17   1.0000     -10.189681      -277.2753 
  18   1.0000     -10.187931      -277.2277 
  19   1.0000     -10.184387      -277.1313 
  20   1.0000     -10.180733      -277.0318 
  21   1.0000     -10.178284      -276.9652 
  22   1.0000     -10.170886      -276.7639 
  23   1.0000     -10.168867      -276.7089 
  24   1.0000      -0.892940       -24.2981 
  25   1.0000      -0.882851       -24.0236 
  26   1.0000      -0.833095       -22.6697 
  27   1.0000      -0.814690       -22.1688 
  28   1.0000      -0.802399       -21.8344 
  29   1.0000      -0.796087       -21.6626 
  30   1.0000      -0.777384       -21.1537 
  31   1.0000      -0.769794       -20.9472 
  32   1.0000      -0.753147       -20.4942 
  33   1.0000      -0.738913       -20.1068 
  34   1.0000      -0.717982       -19.5373 
  35   1.0000      -0.706765       -19.2321 
  36   1.0000      -0.662990       -18.0409 
  37   1.0000      -0.657171       -17.8825 
  38   1.0000      -0.632549       -17.2125 
  39   1.0000      -0.629856       -17.1393 
  40   1.0000      -0.627393       -17.0722 
  41   1.0000      -0.601739       -16.3742 
  42   1.0000      -0.585866       -15.9422 
  43   1.0000      -0.572762       -15.5857 
  44   1.0000      -0.557512       -15.1707 
  45   1.0000      -0.524894       -14.2831 
  46   1.0000      -0.522198       -14.2097 
  47   1.0000      -0.497995       -13.5511 
  48   1.0000      -0.492780       -13.4092 
  49   1.0000      -0.480683       -13.0800 
  50   1.0000      -0.476580       -12.9684 
  51   1.0000      -0.475448       -12.9376 
  52   1.0000      -0.453685       -12.3454 
  53   1.0000      -0.445538       -12.1237 
  54   1.0000      -0.442464       -12.0401 
  55   1.0000      -0.435280       -11.8446 
  56   1.0000      -0.434845       -11.8327 
  57   1.0000      -0.430014       -11.7013 
  58   1.0000      -0.423895       -11.5348 
  59   1.0000      -0.418401       -11.3853 
  60   1.0000      -0.409802       -11.1513 
  61   1.0000      -0.403750       -10.9866 
  62   1.0000      -0.391153       -10.6438 
  63   1.0000      -0.382324       -10.4036 
  64   1.0000      -0.378825       -10.3083 
  65   1.0000      -0.374322       -10.1858 
  66   1.0000      -0.369215       -10.0469 
  67   1.0000      -0.367018        -9.9871 
  68   1.0000      -0.366855        -9.9826 
  69   1.0000      -0.353848        -9.6287 
  70   1.0000      -0.344067        -9.3625 
  71   1.0000      -0.341265        -9.2863 
  72   1.0000      -0.336182        -9.1480 
  73   1.0000      -0.332609        -9.0508 
  74   1.0000      -0.330734        -8.9997 
  75   1.0000      -0.330220        -8.9858 
  76   1.0000      -0.326396        -8.8817 
  77   1.0000      -0.310999        -8.4627 
  78   1.0000      -0.291526        -7.9328 
  79   1.0000      -0.277563        -7.5529 
  80   1.0000      -0.265922        -7.2361 
  81   1.0000      -0.262509        -7.1432 
  82   1.0000      -0.243654        -6.6302 
  83   1.0000      -0.242744        -6.6054 
  84   1.0000      -0.218495        -5.9455 
  85   0.0000      -0.080234        -2.1833 
  86   0.0000      -0.028693        -0.7808 
  87   0.0000      -0.028608        -0.7785 
  88   0.0000      -0.019225        -0.5231 
  89   0.0000       0.023067         0.6277 
  90   0.0000       0.039771         1.0822 
  91   0.0000       0.050822         1.3829 
  92   0.0000       0.054552         1.4844 
  93   0.0000       0.057260         1.5581 
  94   0.0000       0.067508         1.8370 
  95   0.0000       0.069670         1.8958 
  96   0.0000       0.076173         2.0728 
  97   0.0000       0.086211         2.3459 
  98   0.0000       0.087327         2.3763 
  99   0.0000       0.088133         2.3982 
 100   0.0000       0.090768         2.4699 
 101   0.0000       0.091202         2.4817 
 102   0.0000       0.101776         2.7695 
 103   0.0000       0.104956         2.8560 
 104   0.0000       0.118707         3.2302 
 105   0.0000       0.122503         3.3335 
 106   0.0000       0.127237         3.4623 
 107   0.0000       0.132137         3.5956 
 108   0.0000       0.141878         3.8607 
 109   0.0000       0.144134         3.9221 
 110   0.0000       0.145114         3.9488 
 111   0.0000       0.145247         3.9524 
 112   0.0000       0.151939         4.1345 
 113   0.0000       0.152873         4.1599 
 114   0.0000       0.156527         4.2593 
 115   0.0000       0.159258         4.3336 
 116   0.0000       0.166302         4.5253 
 117   0.0000       0.168640         4.5889 
 118   0.0000       0.178575         4.8593 
 119   0.0000       0.189782         5.1642 
 120   0.0000       0.191310         5.2058 
 121   0.0000       0.198574         5.4035 
 122   0.0000       0.205145         5.5823 
 123   0.0000       0.209727         5.7070 
 124   0.0000       0.212837         5.7916 
 125   0.0000       0.230759         6.2793 
 126   0.0000       0.235219         6.4006 
 127   0.0000       0.253159         6.8888 
 128   0.0000       0.260061         7.0766 
 129   0.0000       0.262769         7.1503 
 130   0.0000       0.268602         7.3090 
 131   0.0000       0.276416         7.5217 
 132   0.0000       0.288793         7.8585 
 133   0.0000       0.296051         8.0560 
 134   0.0000       0.311030         8.4636 
 135   0.0000       0.324380         8.8268 
 136   0.0000       0.346977         9.4417 
 137   0.0000       0.352373         9.5886 
 138   0.0000       0.359595         9.7851 
 139   0.0000       0.364900         9.9294 
 140   0.0000       0.386761        10.5243 
 141   0.0000       0.394951        10.7472 
 142   0.0000       0.403334        10.9753 
 143   0.0000       0.403377        10.9764 
 144   0.0000       0.406517        11.0619 
 145   0.0000       0.410365        11.1666 
 146   0.0000       0.414142        11.2694 
 147   0.0000       0.417440        11.3591 
 148   0.0000       0.421125        11.4594 
 149   0.0000       0.431992        11.7551 
 150   0.0000       0.432301        11.7635 
 151   0.0000       0.438357        11.9283 
 152   0.0000       0.450357        12.2548 
 153   0.0000       0.451228        12.2785 
 154   0.0000       0.456960        12.4345 
 155   0.0000       0.465555        12.6684 
 156   0.0000       0.466499        12.6941 
 157   0.0000       0.466876        12.7043 
 158   0.0000       0.477385        12.9903 
 159   0.0000       0.485455        13.2099 
 160   0.0000       0.487355        13.2616 
 161   0.0000       0.491629        13.3779 
 162   0.0000       0.492048        13.3893 
 163   0.0000       0.493469        13.4280 
 164   0.0000       0.497453        13.5364 
 165   0.0000       0.500604        13.6221 
 166   0.0000       0.504117        13.7177 
 167   0.0000       0.504678        13.7330 
 168   0.0000       0.508975        13.8499 
 169   0.0000       0.519391        14.1333 
 170   0.0000       0.527243        14.3470 
 171   0.0000       0.538042        14.6409 
 172   0.0000       0.538238        14.6462 
 173   0.0000       0.562952        15.3187 
 174   0.0000       0.565182        15.3794 
 175   0.0000       0.566871        15.4254 
 176   0.0000       0.568552        15.4711 
 177   0.0000       0.579365        15.7653 
 178   0.0000       0.580225        15.7887 
 179   0.0000       0.585814        15.9408 
 180   0.0000       0.596723        16.2377 
 181   0.0000       0.601944        16.3797 
 182   0.0000       0.610073        16.6009 
 183   0.0000       0.612163        16.6578 
 184   0.0000       0.613839        16.7034 
 185   0.0000       0.618087        16.8190 
 186   0.0000       0.623636        16.9700 
 187   0.0000       0.627483        17.0747 
 188   0.0000       0.630539        17.1578 
 189   0.0000       0.634629        17.2691 
 190   0.0000       0.638047        17.3621 
 191   0.0000       0.642416        17.4810 
 192   0.0000       0.646937        17.6040 
 193   0.0000       0.651388        17.7252 
 194   0.0000       0.652264        17.7490 
 195   0.0000       0.654937        17.8217 
 196   0.0000       0.655146        17.8274 
 197   0.0000       0.657345        17.8873 
 198   0.0000       0.659162        17.9367 
 199   0.0000       0.663398        18.0520 
 200   0.0000       0.666085        18.1251 
 201   0.0000       0.668449        18.1894 
 202   0.0000       0.669171        18.2091 
 203   0.0000       0.670800        18.2534 
 204   0.0000       0.677711        18.4415 
 205   0.0000       0.679301        18.4847 
 206   0.0000       0.685398        18.6506 
 207   0.0000       0.687012        18.6945 
 208   0.0000       0.691065        18.8048 
 209   0.0000       0.697035        18.9673 
 210   0.0000       0.703347        19.1390 
 211   0.0000       0.705209        19.1897 
 212   0.0000       0.710690        19.3389 
 213   0.0000       0.726537        19.7701 
 214   0.0000       0.729845        19.8601 
 215   0.0000       0.732609        19.9353 
 216   0.0000       0.736486        20.0408 
 217   0.0000       0.747855        20.3502 
 218   0.0000       0.754336        20.5265 
 219   0.0000       0.759026        20.6541 
 220   0.0000       0.771012        20.9803 
 221   0.0000       0.777102        21.1460 
 222   0.0000       0.788207        21.4482 
 223   0.0000       0.809124        22.0174 
 224   0.0000       0.817972        22.2582 
 225   0.0000       0.822584        22.3836 
 226   0.0000       0.830882        22.6095 
 227   0.0000       0.835997        22.7486 
 228   0.0000       0.837364        22.7858 
 229   0.0000       0.848520        23.0894 
 230   0.0000       0.860834        23.4245 
 231   0.0000       0.863806        23.5054 
 232   0.0000       0.869624        23.6637 
 233   0.0000       0.881766        23.9941 
 234   0.0000       0.892161        24.2769 
 235   0.0000       0.896645        24.3990 
 236   0.0000       0.900451        24.5025 
 237   0.0000       0.921557        25.0769 
 238   0.0000       0.923330        25.1251 
 239   0.0000       0.930282        25.3142 
 240   0.0000       0.949512        25.8375 
 241   0.0000       0.956612        26.0307 
 242   0.0000       0.964118        26.2350 
 243   0.0000       0.967854        26.3366 
 244   0.0000       0.977519        26.5996 
 245   0.0000       0.982911        26.7464 
 246   0.0000       0.985150        26.8073 
 247   0.0000       0.996678        27.1210 
 248   0.0000       1.008149        27.4331 
 249   0.0000       1.016217        27.6527 
 250   0.0000       1.023428        27.8489 
 251   0.0000       1.027444        27.9582 
 252   0.0000       1.030287        28.0355 
 253   0.0000       1.037043        28.2194 
 254   0.0000       1.040171        28.3045 
 255   0.0000       1.054684        28.6994 
 256   0.0000       1.072293        29.1786 
 257   0.0000       1.076016        29.2799 
 258   0.0000       1.094354        29.7789 
 259   0.0000       1.099392        29.9160 
[...]
      px      :    -0.002445
      py      :    -0.010183
      dz2     :     0.000182  d :     0.018266
      dxz     :     0.016783
      dyz     :     0.000004
      dx2y2   :     0.000591
      dxy     :     0.000706
  3 C s       :    -0.001921  s :    -0.001921
      pz      :    -0.006559  p :    -0.012930
      px      :    -0.003531
      py      :    -0.002840
      dz2     :     0.000117  d :     0.016555
      dxz     :     0.013574
      dyz     :     0.002191
      dx2y2   :     0.000614
      dxy     :     0.000059
  4 C s       :     0.003433  s :     0.003433
      pz      :     0.106306  p :     0.110959
      px      :     0.002533
      py      :     0.002120
      dz2     :    -0.000451  d :    -0.003234
      dxz     :    -0.002407
      dyz     :     0.000391
      dx2y2   :    -0.000409
      dxy     :    -0.000358
  5 C s       :    -0.002816  s :    -0.002816
      pz      :    -0.050806  p :    -0.056748
      px      :    -0.002954
      py      :    -0.002988
      dz2     :     0.000231  d :     0.011702
      dxz     :     0.007560
      dyz     :     0.003026
      dx2y2   :     0.000436
      dxy     :     0.000449
  6 C s       :     0.005131  s :     0.005131
      pz      :     0.146391  p :     0.153790
      px      :     0.003685
      py      :     0.003713
      dz2     :    -0.000684  d :    -0.006354
      dxz     :    -0.002402
      dyz     :    -0.001898
      dx2y2   :    -0.000488
      dxy     :    -0.000882
  7 C s       :    -0.002457  s :    -0.002457
      pz      :    -0.041398  p :    -0.046949
      px      :    -0.002670
      py      :    -0.002881
      dz2     :     0.000197  d :     0.010027
      dxz     :     0.005901
      dyz     :     0.003092
      dx2y2   :     0.000403
      dxy     :     0.000435
  8 C s       :     0.002746  s :     0.002746
      pz      :     0.091952  p :     0.095714
      px      :     0.002080
      py      :     0.001682
      dz2     :    -0.000388  d :    -0.003202
      dxz     :    -0.002051
      dyz     :     0.000032
      dx2y2   :    -0.000412
      dxy     :    -0.000383
  9 H s       :     0.001351  s :     0.001351
      pz      :    -0.001423  p :    -0.001776
      px      :    -0.000154
      py      :    -0.000199
 10 H s       :    -0.002846  s :    -0.002846
      pz      :     0.002224  p :     0.002607
      px      :     0.000113
      py      :     0.000271
 11 C s       :    -0.000760  s :    -0.000760
      pz      :    -0.000603  p :    -0.003797
      px      :    -0.001440
      py      :    -0.001754
      dz2     :     0.000088  d :     0.004560
      dxz     :     0.002690
      dyz     :     0.001523
      dx2y2   :     0.000112
      dxy     :     0.000147
 12 H s       :     0.005401  s :     0.005401
      pz      :    -0.000060  p :    -0.000213
      px      :    -0.000118
      py      :    -0.000035
 13 H s       :     0.005414  s :     0.005414
      pz      :    -0.000060  p :    -0.000213
      px      :    -0.000118
      py      :    -0.000035
 14 C s       :     0.000000  s :     0.000000
      pz      :    -0.000130  p :    -0.000065
      px      :     0.000051
      py      :     0.000014
      dz2     :    -0.000008  d :    -0.000102
      dxz     :     0.000032
      dyz     :    -0.000025
      dx2y2   :    -0.000065
      dxy     :    -0.000036
 15 H s       :    -0.000068  s :    -0.000068
      pz      :     0.000001  p :    -0.000012
      px      :    -0.000008
      py      :    -0.000005
 16 H s       :    -0.000068  s :    -0.000068
      pz      :     0.000001  p :    -0.000012
      px      :    -0.000008
      py      :    -0.000005
 17 C s       :    -0.000029  s :    -0.000029
      pz      :     0.000097  p :     0.000027
      px      :    -0.000015
      py      :    -0.000055
      dz2     :    -0.000001  d :    -0.000017
      dxz     :    -0.000008
      dyz     :    -0.000001
      dx2y2   :    -0.000001
      dxy     :    -0.000005
 18 H s       :     0.000017  s :     0.000017
      pz      :     0.000000  p :     0.000009
      px      :     0.000003
      py      :     0.000005
 19 H s       :     0.000017  s :     0.000017
      pz      :     0.000000  p :     0.000009
      px      :     0.000003
      py      :     0.000005
 20 C s       :    -0.000006  s :    -0.000006
      pz      :    -0.000001  p :    -0.000029
      px      :    -0.000008
      py      :    -0.000020
      dz2     :    -0.000000  d :     0.000008
      dxz     :     0.000006
      dyz     :     0.000004
      dx2y2   :    -0.000002
      dxy     :     0.000001
 21 H s       :     0.000010  s :     0.000010
      pz      :    -0.000000  p :    -0.000001
      px      :    -0.000000
      py      :    -0.000001
 22 H s       :     0.000010  s :     0.000010
      pz      :    -0.000000  p :    -0.000001
      px      :    -0.000000
      py      :    -0.000001
 23 C s       :     0.000241  s :     0.000241
      pz      :     0.000484  p :     0.001593
      px      :     0.000497
      py      :     0.000611
      dz2     :    -0.000043  d :    -0.002046
      dxz     :    -0.001098
      dyz     :    -0.000657
      dx2y2   :    -0.000128
      dxy     :    -0.000121
 24 H s       :    -0.001629  s :    -0.001629
      pz      :     0.000014  p :     0.000056
      px      :     0.000034
      py      :     0.000008
 25 H s       :    -0.001626  s :    -0.001626
      pz      :     0.000014  p :     0.000057
      px      :     0.000034
      py      :     0.000008
 26 C s       :    -0.000045  s :    -0.000045
      pz      :     0.000107  p :    -0.000086
      px      :    -0.000083
      py      :    -0.000111
      dz2     :     0.000004  d :     0.000064
      dxz     :     0.000003
      dyz     :     0.000027
      dx2y2   :     0.000022
      dxy     :     0.000007
 27 H s       :     0.000061  s :     0.000061
      pz      :    -0.000003  p :    -0.000006
      px      :    -0.000001
      py      :    -0.000001
 28 H s       :     0.000062  s :     0.000062
      pz      :    -0.000003  p :    -0.000006
      px      :    -0.000001
      py      :    -0.000001
 29 C s       :     0.000007  s :     0.000007
      pz      :    -0.000042  p :    -0.000038
      px      :    -0.000003
      py      :     0.000007
      dz2     :    -0.000000  d :    -0.000002
      dxz     :     0.000004
      dyz     :    -0.000003
      dx2y2   :    -0.000004
      dxy     :     0.000001
 30 H s       :    -0.000007  s :    -0.000007
      pz      :     0.000000  p :    -0.000004
      px      :    -0.000001
      py      :    -0.000003
 31 H s       :    -0.000007  s :    -0.000007
      pz      :    -0.000000  p :    -0.000004
      px      :    -0.000001
      py      :    -0.000003
 32 C s       :     0.000000  s :     0.000000
      pz      :     0.000002  p :     0.000009
      px      :     0.000002
      py      :     0.000005
      dz2     :    -0.000000  d :    -0.000005
      dxz     :    -0.000003
      dyz     :    -0.000001
      dx2y2   :    -0.000000
      dxy     :    -0.000001
 33 H s       :    -0.000004  s :    -0.000004
      pz      :     0.000000  p :     0.000000
      px      :     0.000000
      py      :     0.000000
 34 H s       :    -0.000004  s :    -0.000004
      pz      :     0.000000  p :     0.000000
      px      :     0.000000
      py      :     0.000000
 35 C s       :     0.003416  s :     0.003416
      pz      :     0.099011  p :     0.110902
      px      :     0.001612
      py      :     0.010279
      dz2     :    -0.000406  d :    -0.003906
      dxz     :    -0.002570
      dyz     :    -0.000001
      dx2y2   :    -0.000379
      dxy     :    -0.000550
 36 H s       :    -0.000003  s :    -0.000003
      pz      :    -0.000000  p :    -0.000002
      px      :    -0.000001
      py      :    -0.000001
 37 H s       :    -0.000003  s :    -0.000003
      pz      :     0.000000  p :     0.000001
      px      :     0.000000
      py      :     0.000000
 38 C s       :    -0.001276  s :    -0.001276
      pz      :    -0.015735  p :    -0.019036
      px      :    -0.002296
      py      :    -0.001005
      dz2     :     0.000112  d :     0.007263
      dxz     :     0.005496
      dyz     :     0.000669
      dx2y2   :     0.000350
      dxy     :     0.000636
 39 C s       :     0.001125  s :     0.001125
      pz      :     0.029884  p :     0.031555
      px      :     0.000850
      py      :     0.000820
      dz2     :    -0.000125  d :    -0.001453
      dxz     :    -0.000681
      dyz     :    -0.000329
      dx2y2   :    -0.000161
      dxy     :    -0.000157
 40 C s       :    -0.000691  s :    -0.000691
      pz      :    -0.013317  p :    -0.014738
      px      :    -0.000808
      py      :    -0.000612
      dz2     :     0.000066  d :     0.002983
      dxz     :     0.002057
      dyz     :     0.000614
      dx2y2   :     0.000117
      dxy     :     0.000128
 41 C s       :     0.001168  s :     0.001168
      pz      :     0.034155  p :     0.035785
      px      :     0.000762
      py      :     0.000867
      dz2     :    -0.000149  d :    -0.001201
      dxz     :    -0.000165
      dyz     :    -0.000673
      dx2y2   :    -0.000108
      dxy     :    -0.000106
 42 C s       :    -0.000691  s :    -0.000691
      pz      :    -0.013312  p :    -0.014733
      px      :    -0.000779
      py      :    -0.000642
      dz2     :     0.000066  d :     0.002982
      dxz     :     0.001900
      dyz     :     0.000771
      dx2y2   :     0.000122
      dxy     :     0.000124
 43 C s       :     0.001125  s :     0.001125
      pz      :     0.029844  p :     0.031513
      px      :     0.000866
      py      :     0.000803
      dz2     :    -0.000125  d :    -0.001453
      dxz     :    -0.000732
      dyz     :    -0.000278
      dx2y2   :    -0.000178
      dxy     :    -0.000140
 44 H s       :    -0.001054  s :    -0.001054
      pz      :     0.000986  p :     0.001149
      px      :     0.000146
      py      :     0.000017
 45 H s       :     0.000411  s :     0.000411
      pz      :    -0.000376  p :    -0.000463
      px      :    -0.000037
      py      :    -0.000049
 46 H s       :    -0.000929  s :    -0.000929
      pz      :     0.000769  p :     0.000918
      px      :     0.000046
      py      :     0.000103
 47 H s       :    -0.000927  s :    -0.000927
      pz      :     0.000767  p :     0.000917
      px      :     0.000039
      py      :     0.000111
 48 H s       :     0.000411  s :     0.000411
      pz      :    -0.000376  p :    -0.000463
      px      :    -0.000035
      py      :    -0.000051


                      *****************************
                      * MAYER POPULATION ANALYSIS *
                      *****************************

  NA   - Mulliken gross atomic population
  ZA   - Total nuclear charge
  QA   - Mulliken gross atomic charge
  VA   - Mayer's total valence
  BVA  - Mayer's bonded valence
  FA   - Mayer's free valence

  ATOM       NA         ZA         QA         VA         BVA        FA
  0 C      6.2751     6.0000    -0.2751     3.1206     3.0195     0.1011
  1 C      6.1011     6.0000    -0.1011     4.1751     4.0993     0.0759
  2 C      5.7083     6.0000     0.2917     2.5000     2.4972     0.0028
  3 C      5.9200     6.0000     0.0800     3.6845     3.6827     0.0018
  4 C      6.0569     6.0000    -0.0569     4.1386     4.1233     0.0152
  5 C      5.9833     6.0000     0.0167     3.8822     3.8779     0.0043
  6 C      6.1678     6.0000    -0.1678     3.8118     3.7819     0.0299
  7 C      6.0639     6.0000    -0.0639     4.1182     4.1151     0.0031
  8 C      5.9515     6.0000     0.0485     3.8933     3.8822     0.0111
  9 H      1.0469     1.0000    -0.0469     1.0053     1.0053     0.0000
 10 H      1.0333     1.0000    -0.0333     1.0089     1.0089     0.0000
 11 C      5.9410     6.0000     0.0590     4.0196     4.0195     0.0001
 12 H      0.9560     1.0000     0.0440     0.9752     0.9751     0.0001
 13 H      0.9561     1.0000     0.0439     0.9751     0.9751     0.0001
 14 C      6.0401     6.0000    -0.0401     4.1106     4.1106     0.0000
 15 H      0.9856     1.0000     0.0144     0.9620     0.9620     0.0000
 16 H      0.9856     1.0000     0.0144     0.9620     0.9620     0.0000
 17 C      6.0238     6.0000    -0.0238     4.1183     4.1183     0.0000
 18 H      0.9889     1.0000     0.0111     0.9680     0.9680     0.0000
 19 H      0.9889     1.0000     0.0111     0.9680     0.9680     0.0000
 20 C      5.9970     6.0000     0.0030     4.0167     4.0167     0.0000
 21 H      0.9842     1.0000     0.0158     0.9770     0.9770     0.0000
 22 H      0.9842     1.0000     0.0158     0.9770     0.9770     0.0000
 23 C      5.9616     6.0000     0.0384     4.0282     4.0282     0.0000
 24 H      0.9665     1.0000     0.0335     0.9688     0.9688     0.0000
 25 H      0.9665     1.0000     0.0335     0.9688     0.9688     0.0000
 26 C      6.0359     6.0000    -0.0359     4.1152     4.1152     0.0000
 27 H      0.9783     1.0000     0.0217     0.9635     0.9635     0.0000
 28 H      0.9783     1.0000     0.0217     0.9635     0.9635     0.0000
 29 C      6.0269     6.0000    -0.0269     4.1190     4.1190     0.0000
 30 H      0.9946     1.0000     0.0054     0.9669     0.9669     0.0000
 31 H      0.9946     1.0000     0.0054     0.9669     0.9669     0.0000
 32 C      5.9960     6.0000     0.0040     4.0174     4.0174     0.0000
 33 H      0.9796     1.0000     0.0204     0.9776     0.9776     0.0000
 34 H      0.9796     1.0000     0.0204     0.9776     0.9776     0.0000
 35 C      5.8378     6.0000     0.1622     2.6285     2.6150     0.0135
 36 H      0.9844     1.0000     0.0156     0.9739     0.9739     0.0000
 37 H      0.9862     1.0000     0.0138     0.9738     0.9738     0.0000
 38 C      6.2658     6.0000    -0.2658     3.9233     3.9229     0.0005
 39 C      5.9626     6.0000     0.0374     3.9932     3.9920     0.0012
 40 C      5.9575     6.0000     0.0425     4.0005     4.0002     0.0003
 41 C      5.9604     6.0000     0.0396     4.0005     3.9989     0.0015
 42 C      5.9576     6.0000     0.0424     4.0000     3.9998     0.0003
 43 C      5.9654     6.0000     0.0346     3.9926     3.9914     0.0012
 44 H      1.0188     1.0000    -0.0188     0.9697     0.9697     0.0000
 45 H      1.0201     1.0000    -0.0201     0.9698     0.9698     0.0000
 46 H      1.0329     1.0000    -0.0329     0.9841     0.9841     0.0000
 47 H      1.0325     1.0000    -0.0325     0.9839     0.9839     0.0000
 48 H      1.0200     1.0000    -0.0200     0.9697     0.9697     0.0000

  Mayer bond orders larger than 0.100000
B(  0-C ,  1-C ) :   2.8978 B(  1-C ,  3-C ) :   1.0562 B(  2-C ,  6-C ) :   0.9231 
B(  2-C , 35-C ) :   1.6799 B(  2-C , 38-C ) :  -0.1839 B(  3-C ,  4-C ) :   1.2772 
B(  3-C ,  8-C ) :   1.2761 B(  4-C ,  5-C ) :   1.4842 B(  4-C , 11-C ) :   1.1013 
B(  5-C ,  6-C ) :   1.3300 B(  5-C ,  9-H ) :   0.9240 B(  6-C ,  7-C ) :   1.3305 
B(  7-C ,  8-C ) :   1.4938 B(  7-C , 23-C ) :   1.0937 B(  8-C , 10-H ) :   0.9248 
B( 11-C , 12-H ) :   0.8926 B( 11-C , 13-H ) :   0.8925 B( 11-C , 14-C ) :   1.1009 
B( 14-C , 15-H ) :   0.9285 B( 14-C , 16-H ) :   0.9285 B( 14-C , 17-C ) :   1.0753 
B( 17-C , 18-H ) :   0.9414 B( 17-C , 19-H ) :   0.9414 B( 17-C , 20-C ) :   1.1056 
B( 20-C , 21-H ) :   0.9661 B( 20-C , 22-H ) :   0.9661 B( 20-C , 36-H ) :   0.9619 
B( 23-C , 24-H ) :   0.8967 B( 23-C , 25-H ) :   0.8967 B( 23-C , 26-C ) :   1.1045 
B( 26-C , 27-H ) :   0.9299 B( 26-C , 28-H ) :   0.9299 B( 26-C , 29-C ) :   1.0740 
B( 29-C , 30-H ) :   0.9411 B( 29-C , 31-H ) :   0.9411 B( 29-C , 32-C ) :   1.1066 
B( 32-C , 33-H ) :   0.9662 B( 32-C , 34-H ) :   0.9662 B( 32-C , 37-H ) :   0.9613 
B( 35-C , 38-C ) :   0.9517 B( 38-C , 39-C ) :   1.4288 B( 38-C , 43-C ) :   1.4270 
B( 39-C , 40-C ) :   1.4745 B( 39-C , 46-H ) :   0.9418 B( 40-C , 41-C ) :   1.4407 
B( 40-C , 48-H ) :   0.9388 B( 41-C , 42-C ) :   1.4401 B( 41-C , 44-H ) :   0.9441 
B( 42-C , 43-C ) :   1.4746 B( 42-C , 45-H ) :   0.9388 B( 43-C , 47-H ) :   0.9421 


-------
TIMINGS
-------

Total SCF time: 0 days 0 hours 1 min 0 sec 

Total time                  ....      60.063 sec
Sum of individual times     ....      56.770 sec  ( 94.5%)

Fock matrix formation       ....      50.142 sec  ( 83.5%)
  Split-RI-J                ....       3.662 sec  (  7.3% of F)
  Chain of spheres X        ....      33.993 sec  ( 67.8% of F)
  XC integration            ....       9.483 sec  ( 18.9% of F)
    Basis function eval.    ....       0.926 sec  (  9.8% of XC)
    Density eval.           ....       1.052 sec  ( 11.1% of XC)
    XC-Functional eval.     ....       0.230 sec  (  2.4% of XC)
    XC-Potential eval.      ....       0.612 sec  (  6.4% of XC)
Diagonalization             ....       1.000 sec  (  1.7%)
Density matrix formation    ....       0.294 sec  (  0.5%)
Population analysis         ....       0.557 sec  (  0.9%)
Initial guess               ....       0.156 sec  (  0.3%)
Orbital Transformation      ....       0.000 sec  (  0.0%)
Orbital Orthonormalization  ....       0.110 sec  (  0.2%)
DIIS solution               ....       0.555 sec  (  0.9%)
Grid generation             ....       4.067 sec  (  6.8%)

Maximum memory used throughout the entire SCF-calculation: 122.5 MB

-------------------------   --------------------
FINAL SINGLE POINT ENERGY      -928.844859561540
-------------------------   --------------------

                                *** OPTIMIZATION RUN DONE ***

                            ***************************************
                            *     ORCA property calculations      *
                            ***************************************

                                    ---------------------
                                    Active property flags
                                    ---------------------
   (+) Dipole Moment


------------------------------------------------------------------------------
                       ORCA ELECTRIC PROPERTIES CALCULATION
------------------------------------------------------------------------------

Dipole Moment Calculation                       ... on
Quadrupole Moment Calculation                   ... off
Polarizability Calculation                      ... off
GBWName                                         ... opt.gbw
Electron density                                ... opt.scfp
The origin for moment calculation is the CENTER OF MASS  = ( 3.193251, -0.049631 -0.019763)

-------------
DIPOLE MOMENT
-------------
                                X             Y             Z
Electronic contribution:      8.91335      -0.21335       0.00216
Nuclear contribution   :     -5.17354       0.11309       0.00539
                        -----------------------------------------
Total Dipole Moment    :      3.73981      -0.10026       0.00754
                        -----------------------------------------
Magnitude (a.u.)       :      3.74116
Magnitude (Debye)      :      9.50928



--------------------
Rotational spectrum 
--------------------
 
Rotational constants in cm-1:     0.006500     0.004325     0.002607 
Rotational constants in MHz :   194.876145   129.670307    78.163739 

 Dipole components along the rotational axes: 
x,y,z [a.u.] :     3.413424    -1.531276     0.006267 
x,y,z [Debye]:     8.676235    -3.892194     0.015929 

 

Timings for individual modules:

Sum of individual times         ...      364.938 sec (=   6.082 min)
GTO integral calculation        ...        9.047 sec (=   0.151 min)   2.5 %
SCF iterations                  ...      313.027 sec (=   5.217 min)  85.8 %
SCF Gradient evaluation         ...       42.329 sec (=   0.705 min)  11.6 %
Geometry relaxation             ...        0.535 sec (=   0.009 min)   0.1 %
                             ****ORCA TERMINATED NORMALLY****
TOTAL RUN TIME: 0 days 0 hours 6 minutes 12 seconds 760 msec
