
                                 *****************
                                 * O   R   C   A *
                                 *****************

                                            #,                                       
                                            ###                                      
                                            ####                                     
                                            #####                                    
                                            ######                                   
                                           ########,                                 
                                     ,,################,,,,,                         
                               ,,#################################,,                 
                          ,,##########################################,,             
                       ,#########################################, ''#####,          
                    ,#############################################,,   '####,        
                  ,##################################################,,,,####,       
                ,###########''''           ''''###############################       
              ,#####''   ,,,,##########,,,,          '''####'''          '####       
            ,##' ,,,,###########################,,,                        '##       
           ' ,,###''''                  '''############,,,                           
         ,,##''                                '''############,,,,        ,,,,,,###''
      ,#''                                            '''#######################'''  
     '                                                          ''''####''''         
             ,#######,   #######,   ,#######,      ##                                
            ,#'     '#,  ##    ##  ,#'     '#,    #''#        ######   ,####,        
            ##       ##  ##   ,#'  ##            #'  '#       #        #'  '#        
            ##       ##  #######   ##           ,######,      #####,   #    #        
            '#,     ,#'  ##    ##  '#,     ,#' ,#      #,         ##   #,  ,#        
             '#######'   ##     ##  '#######'  #'      '#     #####' # '####'        



                  #######################################################
                  #                        -***-                        #
                  #          Department of theory and spectroscopy      #
                  #    Directorship and core code : Frank Neese         #
                  #        Max Planck Institute fuer Kohlenforschung    #
                  #                Kaiser Wilhelm Platz 1               #
                  #                 D-45470 Muelheim/Ruhr               #
                  #                      Germany                        #
                  #                                                     #
                  #                  All rights reserved                #
                  #                        -***-                        #
                  #######################################################


                         Program Version 5.0.4 -  RELEASE  -


 With contributions from (in alphabetic order):
   Daniel Aravena         : Magnetic Suceptibility
   Michael Atanasov       : Ab Initio Ligand Field Theory (pilot matlab implementation)
   Alexander A. Auer      : GIAO ZORA, VPT2 properties, NMR spectrum
   Ute Becker             : Parallelization
   Giovanni Bistoni       : ED, misc. LED, open-shell LED, HFLD
   Martin Brehm           : Molecular dynamics
   Dmytro Bykov           : SCF Hessian
   Vijay G. Chilkuri      : MRCI spin determinant printing, contributions to CSF-ICE
   Dipayan Datta          : RHF DLPNO-CCSD density
   Achintya Kumar Dutta   : EOM-CC, STEOM-CC
   Dmitry Ganyushin       : Spin-Orbit,Spin-Spin,Magnetic field MRCI
   Miquel Garcia          : C-PCM and meta-GGA Hessian, CC/C-PCM, Gaussian charge scheme
   Yang Guo               : DLPNO-NEVPT2, F12-NEVPT2, CIM, IAO-localization
   Andreas Hansen         : Spin unrestricted coupled pair/coupled cluster methods
   Benjamin Helmich-Paris : MC-RPA, TRAH-SCF, COSX integrals
   Lee Huntington         : MR-EOM, pCC
   Robert Izsak           : Overlap fitted RIJCOSX, COSX-SCS-MP3, EOM
   Marcus Kettner         : VPT2
   Christian Kollmar      : KDIIS, OOCD, Brueckner-CCSD(T), CCSD density, CASPT2, CASPT2-K
   Simone Kossmann        : Meta GGA functionals, TD-DFT gradient, OOMP2, MP2 Hessian
   Martin Krupicka        : Initial AUTO-CI
   Lucas Lang             : DCDCAS
   Marvin Lechner         : AUTO-CI (C++ implementation), FIC-MRCC
   Dagmar Lenk            : GEPOL surface, SMD
   Dimitrios Liakos       : Extrapolation schemes; Compound Job, initial MDCI parallelization
   Dimitrios Manganas     : Further ROCIS development; embedding schemes
   Dimitrios Pantazis     : SARC Basis sets
   Anastasios Papadopoulos: AUTO-CI, single reference methods and gradients
   Taras Petrenko         : DFT Hessian,TD-DFT gradient, ASA, ECA, R-Raman, ABS, FL, XAS/XES, NRVS
   Peter Pinski           : DLPNO-MP2, DLPNO-MP2 Gradient
   Christoph Reimann      : Effective Core Potentials
   Marius Retegan         : Local ZFS, SOC
   Christoph Riplinger    : Optimizer, TS searches, QM/MM, DLPNO-CCSD(T), (RO)-DLPNO pert. Triples
   Tobias Risthaus        : Range-separated hybrids, TD-DFT gradient, RPA, STAB
   Michael Roemelt        : Original ROCIS implementation
   Masaaki Saitow         : Open-shell DLPNO-CCSD energy and density
   Barbara Sandhoefer     : DKH picture change effects
   Avijit Sen             : IP-ROCIS
   Kantharuban Sivalingam : CASSCF convergence, NEVPT2, FIC-MRCI
   Bernardo de Souza      : ESD, SOC TD-DFT
   Georgi Stoychev        : AutoAux, RI-MP2 NMR, DLPNO-MP2 response
   Willem Van den Heuvel  : Paramagnetic NMR
   Boris Wezisla          : Elementary symmetry handling
   Frank Wennmohs         : Technical directorship


 We gratefully acknowledge several colleagues who have allowed us to
 interface, adapt or use parts of their codes:
   Stefan Grimme, W. Hujo, H. Kruse, P. Pracht,  : VdW corrections, initial TS optimization,
                  C. Bannwarth, S. Ehlert          DFT functionals, gCP, sTDA/sTD-DF
   Ed Valeev, F. Pavosevic, A. Kumar             : LibInt (2-el integral package), F12 methods
   Garnet Chan, S. Sharma, J. Yang, R. Olivares  : DMRG
   Ulf Ekstrom                                   : XCFun DFT Library
   Mihaly Kallay                                 : mrcc  (arbitrary order and MRCC methods)
   Jiri Pittner, Ondrej Demel                    : Mk-CCSD
   Frank Weinhold                                : gennbo (NPA and NBO analysis)
   Christopher J. Cramer and Donald G. Truhlar   : smd solvation model
   Lars Goerigk                                  : TD-DFT with DH, B97 family of functionals
   V. Asgeirsson, H. Jonsson                     : NEB implementation
   FAccTs GmbH                                   : IRC, NEB, NEB-TS, DLPNO-Multilevel, CI-OPT
                                                   MM, QMMM, 2- and 3-layer-ONIOM, Crystal-QMMM,
                                                   LR-CPCM, SF, NACMEs, symmetry and pop. for TD-DFT,
                                                   nearIR, NL-DFT gradient (VV10), updates on ESD,
                                                   ML-optimized integration grids
   S Lehtola, MJT Oliveira, MAL Marques          : LibXC Library
   Liviu Ungur et al                             : ANISO software


 Your calculation uses the libint2 library for the computation of 2-el integrals
 For citations please refer to: http://libint.valeyev.net

 Your ORCA version has been built with support for libXC version: 5.1.0
 For citations please refer to: https://tddft.org/programs/libxc/

 This ORCA versions uses:
   CBLAS   interface :  Fast vector & matrix operations
   LAPACKE interface :  Fast linear algebra routines
   SCALAPACK package :  Parallel linear algebra routines
   Shared memory     :  Shared parallel matrices
   BLAS/LAPACK       :  OpenBLAS 0.3.15  USE64BITINT DYNAMIC_ARCH NO_AFFINITY SkylakeX SINGLE_THREADED
        Core in use  :  SkylakeX
   Copyright (c) 2011-2014, The OpenBLAS Project




***************************************
The coordinates will be read from file: opt.xyz
***************************************


================================================================================

----- Orbital basis set information -----
Your calculation utilizes the basis: EPR-II
   V. Barone, in Recent Advances in Density Functional Methods, Part 1 (ed. D. P. Chong), World Scientific, Singapore, 1995, p. 287.

----- AuxJ basis set information -----
Your calculation utilizes the AutoAux generation procedure.
  G. L. Stoychev, A. A. Auer, F. Neese, J. Chem. Theory Comput. 13, 554 (2017)

----- AuxC basis set information -----
Your calculation utilizes the AutoAux generation procedure.
  G. L. Stoychev, A. A. Auer, F. Neese, J. Chem. Theory Comput. 13, 554 (2017)

----- AuxJK basis set information -----
Your calculation utilizes the AutoAux generation procedure.
  G. L. Stoychev, A. A. Auer, F. Neese, J. Chem. Theory Comput. 13, 554 (2017)

================================================================================
                                        WARNINGS
                       Please study these warnings very carefully!
================================================================================

WARNING: Old DensityContainer found on disk!
         Will remove this file - 
         If you want to keep old densities, please start your calculation with a different basename. 


WARNING: your system is open-shell and RHF/RKS was chosen
  ===> : WILL SWITCH to UHF/UKS


INFO   : the flag for use of the SHARK integral package has been found!

================================================================================
                                       INPUT FILE
================================================================================
NAME = EPRII_i.inp
|  1> ! B3LYP EPR-II AUTOAUX
|  2> %pal nprocs 16 end
|  3> *XYZFile 0 2 opt.xyz
|  4> %EPRNMR
|  5>         GTENSOR   TRUE
|  6>         NUCLEI    = ALL H {SHIFT, AISO, ADIP, AORB}
|  7>         ORI       GIAO
|  8> END
|  9> 
| 10>                          ****END OF INPUT****
================================================================================

                       ****************************
                       * Single Point Calculation *
                       ****************************

---------------------------------
CARTESIAN COORDINATES (ANGSTROEM)
---------------------------------
  C     -4.099903    0.083492   -0.018353
  C     -2.815946    0.043661   -0.012330
  C      2.806008   -0.004269   -0.008539
  C     -1.423131    0.006681   -0.011521
  C     -0.708303   -1.246812   -0.013959
  C      0.675892   -1.194656   -0.012684
  C      1.390969    0.032616   -0.009322
  C      0.692187    1.284040   -0.006826
  C     -0.689714    1.234894   -0.008082
  H      1.259776   -2.114722   -0.014385
  H     -1.277365    2.152363   -0.006417
  C     -1.482678   -2.545270   -0.017742
  H     -2.162956   -2.531884   -0.888087
  H     -2.164001   -2.536305    0.851848
  C     -0.664773   -3.838900   -0.020463
  H     -0.001060   -3.863836   -0.904705
  H     -0.002550   -3.868472    0.864757
  C     -1.549765   -5.091581   -0.024486
  H     -2.216738   -5.067647    0.856694
  H     -2.214979   -5.063238   -0.906864
  C     -0.747242   -6.394947   -0.026958
  H     -0.098785   -6.468624    0.863263
  H     -0.096713   -6.463963   -0.916039
  C      1.475610    2.580851   -0.003105
  H      2.150780    2.571663    0.872485
  H      2.151902    2.575969   -0.877872
  C      0.660276    3.876516   -0.000466
  H     -0.001813    3.904739   -0.885019
  H     -0.003430    3.900164    0.883007
  C      1.545553    5.128838    0.003581
  H      2.210398    5.101571    0.886923
  H      2.212314    5.105900   -0.878438
  C      0.742544    6.432044    0.005924
  H      0.091762    6.499753    0.894507
  H      0.094086    6.504395   -0.883993
  C      4.030665   -0.051608   -0.009917
  H     -1.409442   -7.275742   -0.030044
  H      1.404248    7.313240    0.009096
  C      5.453353   -0.107226   -0.009647
  C      6.121835   -1.352501   -0.012193
  C      7.514506   -1.401458   -0.011853
  C      8.262259   -0.217737   -0.009063
  C      7.609924    1.021237   -0.006590
  C      6.217754    1.081653   -0.006879
  H      9.353772   -0.260949   -0.008833
  H      8.191473    1.945911   -0.004438
  H      5.533939   -2.272105   -0.014369
  H      5.703998    2.044629   -0.004992
  H      8.021809   -2.368853   -0.013791

----------------------------
CARTESIAN COORDINATES (A.U.)
----------------------------
  NO LB      ZA    FRAG     MASS         X           Y           Z
   0 C     6.0000    0    12.011   -7.747695    0.157777   -0.034681
   1 C     6.0000    0    12.011   -5.321367    0.082508   -0.023300
   2 C     6.0000    0    12.011    5.302587   -0.008067   -0.016136
   3 C     6.0000    0    12.011   -2.689327    0.012626   -0.021772
   4 C     6.0000    0    12.011   -1.338498   -2.356134   -0.026378
   5 C     6.0000    0    12.011    1.277250   -2.257573   -0.023968
   6 C     6.0000    0    12.011    2.628550    0.061636   -0.017615
   7 C     6.0000    0    12.011    1.308044    2.426484   -0.012899
   8 C     6.0000    0    12.011   -1.303370    2.333612   -0.015274
   9 H     1.0000    0     1.008    2.380632   -3.996246   -0.027183
  10 H     1.0000    0     1.008   -2.413870    4.067376   -0.012127
  11 C     6.0000    0    12.011   -2.801855   -4.809864   -0.033528
  12 H     1.0000    0     1.008   -4.087394   -4.784568   -1.678241
  13 H     1.0000    0     1.008   -4.089368   -4.792922    1.609759
  14 C     6.0000    0    12.011   -1.256239   -7.254469   -0.038669
  15 H     1.0000    0     1.008   -0.002004   -7.301591   -1.709645
  16 H     1.0000    0     1.008   -0.004819   -7.310352    1.634154
  17 C     6.0000    0    12.011   -2.928631   -9.621693   -0.046271
  18 H     1.0000    0     1.008   -4.189027   -9.576465    1.618917
  19 H     1.0000    0     1.008   -4.185703   -9.568134   -1.713724
  20 C     6.0000    0    12.011   -1.412082  -12.084699   -0.050944
  21 H     1.0000    0     1.008   -0.186676  -12.223929    1.631331
  22 H     1.0000    0     1.008   -0.182760  -12.215120   -1.731062
  23 C     6.0000    0    12.011    2.788498    4.877102   -0.005869
  24 H     1.0000    0     1.008    4.064385    4.859738    1.648758
  25 H     1.0000    0     1.008    4.066505    4.867877   -1.658937
  26 C     6.0000    0    12.011    1.247740    7.325553   -0.000880
  27 H     1.0000    0     1.008   -0.003427    7.378887   -1.672443
  28 H     1.0000    0     1.008   -0.006481    7.370242    1.668641
  29 C     6.0000    0    12.011    2.920672    9.692100    0.006766
  30 H     1.0000    0     1.008    4.177046    9.640572    1.676042
  31 H     1.0000    0     1.008    4.180668    9.648753   -1.660007
  32 C     6.0000    0    12.011    1.403204   12.154802    0.011194
  33 H     1.0000    0     1.008    0.173404   12.282753    1.690374
  34 H     1.0000    0     1.008    0.177797   12.291525   -1.670505
  35 C     6.0000    0    12.011    7.616852   -0.097524   -0.018740
  36 H     1.0000    0     1.008   -2.663459  -13.749160   -0.056774
  37 H     1.0000    0     1.008    2.653644   13.820020    0.017189
  38 C     6.0000    0    12.011   10.305343   -0.202628   -0.018229
  39 C     6.0000    0    12.011   11.568592   -2.555857   -0.023041
  40 C     6.0000    0    12.011   14.200358   -2.648371   -0.022399
  41 C     6.0000    0    12.011   15.613407   -0.411462   -0.017127
  42 C     6.0000    0    12.011   14.380671    1.929859   -0.012454
  43 C     6.0000    0    12.011   11.749853    2.044027   -0.012999
  44 H     1.0000    0     1.008   17.676068   -0.493123   -0.016692
  45 H     1.0000    0     1.008   15.479640    3.677238   -0.008386
  46 H     1.0000    0     1.008   10.457630   -4.293656   -0.027154
  47 H     1.0000    0     1.008   10.778994    3.863789   -0.009434
  48 H     1.0000    0     1.008   15.159023   -4.476483   -0.026062

--------------------------------
INTERNAL COORDINATES (ANGSTROEM)
--------------------------------
 C      0   0   0     0.000000000000     0.00000000     0.00000000
 C      1   0   0     1.284589265702     0.00000000     0.00000000
 C      2   1   0     5.622159564040   178.69126092     0.00000000
 C      2   1   3     1.393306467235   179.65227083   327.51862601
 C      4   2   1     1.442993883273   121.21551837   222.73457308
 C      5   4   2     1.385177188993   117.53671655   180.01241966
 C      3   2   1     1.415520374158     1.00472520    10.51896560
 C      7   3   6     1.433304942608   120.67155711   180.00251040
 C      8   7   3     1.382775381372   117.14154389   179.98635314
 H      6   5   4     1.089699859879   120.24164121   179.99764177
 H      9   8   7     1.089534381280   120.60315497   180.00627168
 C      5   4   2     1.511841308952   119.49432899     0.00000000
 H     12   5   4     1.104743120331   107.87680572    55.82062536
 H     12   5   4     1.104747614791   107.87550603   304.14905360
 C     12   5   4     1.530507626416   116.88572550   179.98859445
 H     15  12   5     1.105902563797   109.95017923   301.68270487
 H     15  12   5     1.105905796946   109.94886218    58.34142276
 C     15  12   5     1.533765592879   112.45643147   180.01139442
 H     18  15  12     1.105397466238   109.17036193   302.38938945
 H     18  15  12     1.105397471384   109.17092419    57.63473439
 C     18  15  12     1.530625053453   113.13789375   180.01165525
 H     21  18  15     1.103820012046   111.31832012    59.91451649
 H     21  18  15     1.103818579039   111.31786680   300.10869648
 C      8   7   3     1.515085539117   119.68484965     0.00000000
 H     24   8   7     1.105711363744   108.09370501   303.63215986
 H     24   8   7     1.105717523955   108.09186412    56.38210693
 C     24   8   7     1.530856693276   116.68202454   180.00524344
 H     27  24   8     1.105257054054   109.83292962   301.74343574
 H     27  24   8     1.105254637747   109.83506491    58.22504828
 C     27  24   8     1.533637708065   112.56201510   179.98517391
 H     30  27  24     1.105918558839   109.20769736   302.29351001
 H     30  27  24     1.105917187097   109.20681994    57.67887704
 C     30  27  24     1.530743191815   113.10279452   179.98667424
 H     33  30  27     1.103486639694   111.27512830    59.84427318
 H     33  30  27     1.103487301721   111.27567707   300.12528013
 C      3   2   1     1.225571968783   178.27174768   193.54086091
 H     21  18  15     1.101961246509   111.44164475   180.01211336
 H     33  30  27     1.101983520380   111.45612407   179.98418205
 C     36   3   7     1.423774642696   179.92062648   280.85853904
 C     39  36   3     1.413359540444   120.46627745    71.67101810
 C     40  39  36     1.393531182661   120.24078976   180.00300340
 C     41  40  39     1.400120858211   120.26715974     0.00000000
 C     42  41  40     1.400215882953   119.95224590     0.00000000
 C     43  42  41     1.393479491271   120.25218298     0.00000000
 H     42  41  40     1.092368032818   120.01330674   180.00156118
 H     43  42  41     1.092348237933   120.06596006   180.00156057
 H     40  39  36     1.091465535315   119.18205456     0.00000000
 H     44  43  42     1.091454396523   120.56513382   180.00202302
 H     41  40  39     1.092343317309   119.68577979   179.99739793

---------------------------
INTERNAL COORDINATES (A.U.)
---------------------------
 C      0   0   0     0.000000000000     0.00000000     0.00000000
 C      1   0   0     2.427521906753     0.00000000     0.00000000
 C      2   1   0    10.624341857241   178.69126092     0.00000000
 C      2   1   3     2.632967643696   179.65227083   327.51862601
 C      4   2   1     2.726863252309   121.21551837   222.73457308
 C      5   4   2     2.617605534151   117.53671655   180.01241966
 C      3   2   1     2.674945844144     1.00472520    10.51896560
 C      7   3   6     2.708553807925   120.67155711   180.00251040
 C      8   7   3     2.613066775522   117.14154389   179.98635314
 H      6   5   4     2.059234303345   120.24164121   179.99764177
 H      9   8   7     2.058921594110   120.60315497   180.00627168
 C      5   4   2     2.856966031868   119.49432899     0.00000000
 H     12   5   4     2.087661945760   107.87680572    55.82062536
 H     12   5   4     2.087670439058   107.87550603   304.14905360
 C     12   5   4     2.892240259804   116.88572550   179.98859445
 H     15  12   5     2.089852976379   109.95017923   301.68270487
 H     15  12   5     2.089859086144   109.94886218    58.34142276
 C     15  12   5     2.898396924173   112.45643147   180.01139442
 H     18  15  12     2.088898480320   109.17036193   302.38938945
 H     18  15  12     2.088898490044   109.17092419    57.63473439
 C     18  15  12     2.892462164744   113.13789375   180.01165525
 H     21  18  15     2.085917523909   111.31832012    59.91451649
 H     21  18  15     2.085914815918   111.31786680   300.10869648
 C      8   7   3     2.863096738396   119.68484965     0.00000000
 H     24   8   7     2.089491660641   108.09370501   303.63215986
 H     24   8   7     2.089503301752   108.09186412    56.38210693
 C     24   8   7     2.892899900573   116.68202454   180.00524344
 H     27  24   8     2.088633139747   109.83292962   301.74343574
 H     27  24   8     2.088628573588   109.83506491    58.22504828
 C     27  24   8     2.898155256898   112.56201510   179.98517391
 H     30  27  24     2.089883202627   109.20769736   302.29351001
 H     30  27  24     2.089880610411   109.20681994    57.67887704
 C     30  27  24     2.892685413895   113.10279452   179.98667424
 H     33  30  27     2.085287541462   111.27512830    59.84427318
 H     33  30  27     2.085288792513   111.27567707   300.12528013
 C      3   2   1     2.315995378411   178.27174768   193.54086091
 H     21  18  15     2.082404966096   111.44164475   180.01211336
 H     33  30  27     2.082447057613   111.45612407   179.98418205
 C     36   3   7     2.690544151116   179.92062648   280.85853904
 C     39  36   3     2.670862460204   120.46627745    71.67101810
 C     40  39  36     2.633392294308   120.24078976   180.00300340
 C     41  40  39     2.645844976410   120.26715974     0.00000000
 C     42  41  40     2.646024547148   119.95224590     0.00000000
 C     43  42  41     2.633294611738   120.25218298     0.00000000
 H     42  41  40     2.064276419477   120.01330674   180.00156118
 H     43  42  41     2.064239012566   120.06596006   180.00156057
 H     40  39  36     2.062570946359   119.18205456     0.00000000
 H     44  43  42     2.062549897092   120.56513382   180.00202302
 H     41  40  39     2.064229713932   119.68577979   179.99739793

---------------------
BASIS SET INFORMATION
---------------------
There are 2 groups of distinct atoms

 Group   1 Type C   : 10s5p1d contracted to 6s2p1d pattern {511111/41/1}
 Group   2 Type H   : 6s1p contracted to 4s1p pattern {3111/1}

Atom   0C    basis set group =>   1
Atom   1C    basis set group =>   1
Atom   2C    basis set group =>   1
Atom   3C    basis set group =>   1
Atom   4C    basis set group =>   1
Atom   5C    basis set group =>   1
Atom   6C    basis set group =>   1
Atom   7C    basis set group =>   1
Atom   8C    basis set group =>   1
Atom   9H    basis set group =>   2
Atom  10H    basis set group =>   2
Atom  11C    basis set group =>   1
Atom  12H    basis set group =>   2
Atom  13H    basis set group =>   2
Atom  14C    basis set group =>   1
Atom  15H    basis set group =>   2
Atom  16H    basis set group =>   2
Atom  17C    basis set group =>   1
Atom  18H    basis set group =>   2
Atom  19H    basis set group =>   2
Atom  20C    basis set group =>   1
Atom  21H    basis set group =>   2
Atom  22H    basis set group =>   2
Atom  23C    basis set group =>   1
Atom  24H    basis set group =>   2
Atom  25H    basis set group =>   2
Atom  26C    basis set group =>   1
Atom  27H    basis set group =>   2
Atom  28H    basis set group =>   2
Atom  29C    basis set group =>   1
Atom  30H    basis set group =>   2
Atom  31H    basis set group =>   2
Atom  32C    basis set group =>   1
Atom  33H    basis set group =>   2
Atom  34H    basis set group =>   2
Atom  35C    basis set group =>   1
Atom  36H    basis set group =>   2
Atom  37H    basis set group =>   2
Atom  38C    basis set group =>   1
Atom  39C    basis set group =>   1
Atom  40C    basis set group =>   1
Atom  41C    basis set group =>   1
Atom  42C    basis set group =>   1
Atom  43C    basis set group =>   1
Atom  44H    basis set group =>   2
Atom  45H    basis set group =>   2
Atom  46H    basis set group =>   2
Atom  47H    basis set group =>   2
Atom  48H    basis set group =>   2
---------------------------------
AUXILIARY/J BASIS SET INFORMATION
---------------------------------
There are 2 groups of distinct atoms

 Group   1 Type C   : 17s13p12d2f contracted to 17s13p12d2f pattern {11111111111111111/1111111111111/111111111111/11}
 Group   2 Type H   : 15s6p1d contracted to 15s6p1d pattern {111111111111111/111111/1}

Atom   0C    basis set group =>   1
Atom   1C    basis set group =>   1
Atom   2C    basis set group =>   1
Atom   3C    basis set group =>   1
Atom   4C    basis set group =>   1
Atom   5C    basis set group =>   1
Atom   6C    basis set group =>   1
Atom   7C    basis set group =>   1
Atom   8C    basis set group =>   1
Atom   9H    basis set group =>   2
Atom  10H    basis set group =>   2
Atom  11C    basis set group =>   1
Atom  12H    basis set group =>   2
Atom  13H    basis set group =>   2
Atom  14C    basis set group =>   1
Atom  15H    basis set group =>   2
Atom  16H    basis set group =>   2
Atom  17C    basis set group =>   1
Atom  18H    basis set group =>   2
Atom  19H    basis set group =>   2
Atom  20C    basis set group =>   1
Atom  21H    basis set group =>   2
Atom  22H    basis set group =>   2
Atom  23C    basis set group =>   1
Atom  24H    basis set group =>   2
Atom  25H    basis set group =>   2
Atom  26C    basis set group =>   1
Atom  27H    basis set group =>   2
Atom  28H    basis set group =>   2
Atom  29C    basis set group =>   1
Atom  30H    basis set group =>   2
Atom  31H    basis set group =>   2
Atom  32C    basis set group =>   1
Atom  33H    basis set group =>   2
Atom  34H    basis set group =>   2
Atom  35C    basis set group =>   1
Atom  36H    basis set group =>   2
Atom  37H    basis set group =>   2
Atom  38C    basis set group =>   1
Atom  39C    basis set group =>   1
Atom  40C    basis set group =>   1
Atom  41C    basis set group =>   1
Atom  42C    basis set group =>   1
Atom  43C    basis set group =>   1
Atom  44H    basis set group =>   2
Atom  45H    basis set group =>   2
Atom  46H    basis set group =>   2
Atom  47H    basis set group =>   2
Atom  48H    basis set group =>   2
---------------------------------
AUXILIARY/C BASIS SET INFORMATION
---------------------------------
There are 2 groups of distinct atoms

 Group   1 Type C   : 17s13p12d2f contracted to 17s13p12d2f pattern {11111111111111111/1111111111111/111111111111/11}
 Group   2 Type H   : 15s6p1d contracted to 15s6p1d pattern {111111111111111/111111/1}

Atom   0C    basis set group =>   1
Atom   1C    basis set group =>   1
Atom   2C    basis set group =>   1
Atom   3C    basis set group =>   1
Atom   4C    basis set group =>   1
Atom   5C    basis set group =>   1
Atom   6C    basis set group =>   1
Atom   7C    basis set group =>   1
Atom   8C    basis set group =>   1
Atom   9H    basis set group =>   2
Atom  10H    basis set group =>   2
Atom  11C    basis set group =>   1
Atom  12H    basis set group =>   2
Atom  13H    basis set group =>   2
Atom  14C    basis set group =>   1
Atom  15H    basis set group =>   2
Atom  16H    basis set group =>   2
Atom  17C    basis set group =>   1
Atom  18H    basis set group =>   2
Atom  19H    basis set group =>   2
Atom  20C    basis set group =>   1
Atom  21H    basis set group =>   2
Atom  22H    basis set group =>   2
Atom  23C    basis set group =>   1
Atom  24H    basis set group =>   2
Atom  25H    basis set group =>   2
Atom  26C    basis set group =>   1
Atom  27H    basis set group =>   2
Atom  28H    basis set group =>   2
Atom  29C    basis set group =>   1
Atom  30H    basis set group =>   2
Atom  31H    basis set group =>   2
Atom  32C    basis set group =>   1
Atom  33H    basis set group =>   2
Atom  34H    basis set group =>   2
Atom  35C    basis set group =>   1
Atom  36H    basis set group =>   2
Atom  37H    basis set group =>   2
Atom  38C    basis set group =>   1
Atom  39C    basis set group =>   1
Atom  40C    basis set group =>   1
Atom  41C    basis set group =>   1
Atom  42C    basis set group =>   1
Atom  43C    basis set group =>   1
Atom  44H    basis set group =>   2
Atom  45H    basis set group =>   2
Atom  46H    basis set group =>   2
Atom  47H    basis set group =>   2
Atom  48H    basis set group =>   2
----------------------------------
AUXILIARY/JK BASIS SET INFORMATION
----------------------------------
There are 2 groups of distinct atoms

 Group   1 Type C   : 17s13p12d2f contracted to 17s13p12d2f pattern {11111111111111111/1111111111111/111111111111/11}
 Group   2 Type H   : 15s6p1d contracted to 15s6p1d pattern {111111111111111/111111/1}

Atom   0C    basis set group =>   1
Atom   1C    basis set group =>   1
Atom   2C    basis set group =>   1
Atom   3C    basis set group =>   1
Atom   4C    basis set group =>   1
Atom   5C    basis set group =>   1
Atom   6C    basis set group =>   1
Atom   7C    basis set group =>   1
Atom   8C    basis set group =>   1
Atom   9H    basis set group =>   2
Atom  10H    basis set group =>   2
Atom  11C    basis set group =>   1
Atom  12H    basis set group =>   2
Atom  13H    basis set group =>   2
Atom  14C    basis set group =>   1
Atom  15H    basis set group =>   2
Atom  16H    basis set group =>   2
Atom  17C    basis set group =>   1
Atom  18H    basis set group =>   2
Atom  19H    basis set group =>   2
Atom  20C    basis set group =>   1
Atom  21H    basis set group =>   2
Atom  22H    basis set group =>   2
Atom  23C    basis set group =>   1
Atom  24H    basis set group =>   2
Atom  25H    basis set group =>   2
Atom  26C    basis set group =>   1
Atom  27H    basis set group =>   2
Atom  28H    basis set group =>   2
Atom  29C    basis set group =>   1
Atom  30H    basis set group =>   2
Atom  31H    basis set group =>   2
Atom  32C    basis set group =>   1
Atom  33H    basis set group =>   2
Atom  34H    basis set group =>   2
Atom  35C    basis set group =>   1
Atom  36H    basis set group =>   2
Atom  37H    basis set group =>   2
Atom  38C    basis set group =>   1
Atom  39C    basis set group =>   1
Atom  40C    basis set group =>   1
Atom  41C    basis set group =>   1
Atom  42C    basis set group =>   1
Atom  43C    basis set group =>   1
Atom  44H    basis set group =>   2
Atom  45H    basis set group =>   2
Atom  46H    basis set group =>   2
Atom  47H    basis set group =>   2
Atom  48H    basis set group =>   2

Checking for AutoStart:
The File: EPRII_i.gbw exists
Trying to determine its content:
     ... Fine, the file contains calculation information
     ... Fine, the calculation information was read
     ... Fine, the file contains a basis set
     ... Fine, the basis set was read
     ... Fine, the file contains a geometry
     ... Fine, the geometry was read
     ... Fine, the file contains a set of orbitals
     ... Fine, the orbitals can be read
     => possible old guess file was deleted
     => GBW file was renamed to GES file
     => GES file is set as startup file
     => Guess is set to MORead
     ... now leaving AutoStart



           ************************************************************
           *        Program running with 16 parallel MPI-processes    *
           *              working on a common directory               *
           ************************************************************
------------------------------------------------------------------------------
                           ORCA GTO INTEGRAL CALCULATION
                           -- RI-GTO INTEGRALS CHOSEN --
------------------------------------------------------------------------------
------------------------------------------------------------------------------
                   ___                                                        
                  /   \      - P O W E R E D   B Y -                         
                 /     \                                                     
                 |  |  |   _    _      __       _____    __    __             
                 |  |  |  | |  | |    /  \     |  _  \  |  |  /  |          
                  \  \/   | |  | |   /    \    | | | |  |  | /  /          
                 / \  \   | |__| |  /  /\  \   | |_| |  |  |/  /          
                |  |  |   |  __  | /  /__\  \  |    /   |      \           
                |  |  |   | |  | | |   __   |  |    \   |  |\   \          
                \     /   | |  | | |  |  |  |  | |\  \  |  | \   \       
                 \___/    |_|  |_| |__|  |__|  |_| \__\ |__|  \__/        
                                                                              
                      - O R C A' S   B I G   F R I E N D -                    
                                      &                                       
                       - I N T E G R A L  F E E D E R -                       
                                                                              
 v1 FN, 2020, v2 2021                                                         
------------------------------------------------------------------------------


Reading SHARK input file EPRII_i.SHARKINP.tmp ... ok
----------------------
SHARK INTEGRAL PACKAGE
----------------------

Number of atoms                             ...     49
Number of basis functions                   ...    583
Number of shells                            ...    341
Maximum angular momentum                    ...      2
Integral batch strategy                     ... SHARK/LIBINT Hybrid
RI-J (if used) integral strategy            ... SPLIT-RIJ (Revised 2003 algorithm where possible)
Printlevel                                  ...      1
Contraction scheme used                     ... SEGMENTED contraction
Coulomb Range Separation                    ... NOT USED
Exchange Range Separation                   ... NOT USED
Finite Nucleus Model                        ... NOT USED
Auxiliary Coulomb fitting basis             ... AVAILABLE
   # of basis functions in Aux-J            ...   4070
   # of shells in Aux-J                     ...   1606
   Maximum angular momentum in Aux-J        ...      3
Auxiliary J/K fitting basis                 ... AVAILABLE
   # of basis functions in Aux-JK           ...   4070
   # of shells in Aux-JK                    ...   1606
   Maximum angular momentum in Aux-JK       ...      3
Auxiliary Correlation fitting basis         ... AVAILABLE
   # of basis functions in Aux-C            ...   4070
   # of shells in Aux-C                     ...   1606
   Maximum angular momentum in Aux-C        ...      3
Auxiliary 'external' fitting basis          ... NOT available
Integral threshold                          ...     1.000000e-10
Primitive cut-off                           ...     1.000000e-11
Primitive pair pre-selection threshold      ...     1.000000e-11

Calculating pre-screening integrals         ... done (  0.0 sec) Dimension = 341
Organizing shell pair data                  ... done (  0.2 sec)
Shell pair information
Total number of shell pairs                 ...     58311
Shell pairs after pre-screening             ...     29659
Total number of primitive shell pairs       ...    156979
Primitive shell pairs kept                  ...     55799
          la=0 lb=0:  13596 shell pairs
          la=1 lb=0:  10218 shell pairs
          la=1 lb=1:   1832 shell pairs
          la=2 lb=0:   2787 shell pairs
          la=2 lb=1:   1064 shell pairs
          la=2 lb=2:    162 shell pairs

Calculating one electron integrals          ... done (  0.0 sec)
Calculating RI/J V-Matrix + Cholesky decomp.... done (  1.0 sec)
Calculating RI/JK V-Matrix + Cholesky decomp... done (  1.0 sec)
Calculating RI/C V-Matrix + Cholesky decomp.... done (  1.0 sec)
Calculating Nuclear repulsion               ... done (  0.0 sec) ENN=   1728.320371376087 Eh

SHARK setup successfully completed in   3.6 seconds

Maximum memory used throughout the entire GTOINT-calculation: 59.6 MB


           ************************************************************
           *        Program running with 16 parallel MPI-processes    *
           *              working on a common directory               *
           ************************************************************
-------------------------------------------------------------------------------
                                 ORCA SCF
-------------------------------------------------------------------------------

------------
SCF SETTINGS
------------
Hamiltonian:
 Density Functional     Method          .... DFT(GTOs)
 Exchange Functional    Exchange        .... B88
   X-Alpha parameter    XAlpha          ....  0.666667
   Becke's b parameter  XBeta           ....  0.004200
 Correlation Functional Correlation     .... LYP
 LDA part of GGA corr.  LDAOpt          .... VWN-5
 Gradients option       PostSCFGGA      .... off
 Hybrid DFT is turned on
   Fraction HF Exchange ScalHFX         ....  0.200000
   Scaling of DF-GGA-X  ScalDFX         ....  0.720000
   Scaling of DF-GGA-C  ScalDFC         ....  0.810000
   Scaling of DF-LDA-C  ScalLDAC        ....  1.000000
   Perturbative correction              ....  0.000000
   Density functional embedding theory  .... OFF
   NL short-range parameter             ....  4.800000
 RI-approximation to the Coulomb term is turned on
   Number of AuxJ basis functions       .... 4070
   RIJ-COSX (HFX calculated with COS-X)).... on


General Settings:
 Integral files         IntName         .... EPRII_i
 Hartree-Fock type      HFTyp           .... UHF
 Total Charge           Charge          ....    0
 Multiplicity           Mult            ....    2
 Number of Electrons    NEL             ....  169
 Basis Dimension        Dim             ....  583
 Nuclear Repulsion      ENuc            ....   1728.3203713761 Eh

Convergence Acceleration:
 DIIS                   CNVDIIS         .... on
   Start iteration      DIISMaxIt       ....    12
   Startup error        DIISStart       ....  0.200000
   # of expansion vecs  DIISMaxEq       ....     5
   Bias factor          DIISBfac        ....   1.050
   Max. coefficient     DIISMaxC        ....  10.000
 Trust-Rad. Augm. Hess. CNVTRAH         .... auto
   Auto Start mean grad. ratio tolernc. ....  1.125000
   Auto Start start iteration           ....     1
   Auto Start num. interpolation iter.  ....    10
   Max. Number of Micro iterations      ....    16
   Max. Number of Macro iterations      .... Maxiter - #DIIS iter
   Number of Davidson start vectors     ....     2
   Converg. threshold I  (grad. norm)   ....   5.000e-05
   Converg. threshold II (energy diff.) ....   1.000e-06
   Grad. Scal. Fac. for Micro threshold ....   0.100
   Minimum threshold for Micro iter.    ....   0.010
   NR start threshold (gradient norm)   ....   0.001
   Initial trust radius                 ....   0.400
   Minimum AH scaling param. (alpha)    ....   1.000
   Maximum AH scaling param. (alpha)    .... 1000.000
   Orbital update algorithm             .... Taylor
   White noise on init. David. guess    .... on
   Maximum white noise                  ....   0.010
   Quad. conv. algorithm                .... NR
 SOSCF                  CNVSOSCF        .... off
 Level Shifting         CNVShift        .... on
   Level shift para.    LevelShift      ....    0.2500
   Turn off err/grad.   ShiftErr        ....    0.0010
 Zerner damping         CNVZerner       .... off
 Static damping         CNVDamp         .... on
   Fraction old density DampFac         ....    0.7000
   Max. Damping (<1)    DampMax         ....    0.9800
   Min. Damping (>=0)   DampMin         ....    0.0000
   Turn off err/grad.   DampErr         ....    0.1000
 Fernandez-Rico         CNVRico         .... off

SCF Procedure:
 Maximum # iterations   MaxIter         ....   125
 SCF integral mode      SCFMode         .... Direct
   Integral package                     .... SHARK and LIBINT hybrid scheme
 Reset frequency        DirectResetFreq ....    20
 Integral Threshold     Thresh          ....  1.000e-10 Eh
 Primitive CutOff       TCut            ....  1.000e-11 Eh

Convergence Tolerance:
 Convergence Check Mode ConvCheckMode   .... Total+1el-Energy
 Convergence forced     ConvForced      .... 0
 Energy Change          TolE            ....  1.000e-06 Eh
 1-El. energy change                    ....  1.000e-03 Eh
 DIIS Error             TolErr          ....  1.000e-06


Diagonalization of the overlap matrix:
Smallest eigenvalue                        ... 7.297e-05
Time for diagonalization                   ...    0.065 sec
Threshold for overlap eigenvalues          ... 1.000e-08
Number of eigenvalues below threshold      ... 0
Time for construction of square roots      ...    0.068 sec
Total time needed                          ...    0.135 sec

---------------------
INITIAL GUESS: MOREAD
---------------------
Guess MOs are being read from file: EPRII_i.ges
Input geometry compatible with but different from current geometry
Input basis set matches current basis set (good)
MOs were renormalized
MOs were reorthogonalized (Cholesky)
                      ------------------
                      INITIAL GUESS DONE (   0.3 sec)
                      ------------------
-------------------
DFT GRID GENERATION
-------------------

General Integration Accuracy     IntAcc      ... 4.388
Radial Grid Type                 RadialGrid  ... OptM3 with GC (2021)
Angular Grid (max. ang.)         AngularGrid ... 4 (Lebedev-302)
Angular grid pruning method      GridPruning ... 4 (adaptive)
Weight generation scheme         WeightScheme... Becke
Basis function cutoff            BFCut       ... 1.0000e-10
Integration weight cutoff        WCut        ... 1.0000e-14
Angular grids for H and He will be reduced by one unit
Partially contracted basis set               ... off
Rotationally invariant grid construction     ... off

Total number of grid points                  ...   223003
Total number of batches                      ...     3511
Average number of points per batch           ...       63
Average number of grid points per atom       ...     4551
Time for grid setup =    1.452 sec

--------------------
COSX GRID GENERATION
--------------------

GRIDX 1
-------
General Integration Accuracy     IntAcc      ... 3.816
Radial Grid Type                 RadialGrid  ... OptM3 with GC (2021)
Angular Grid (max. ang.)         AngularGrid ... 1 (Lebedev-50)
Angular grid pruning method      GridPruning ... 4 (adaptive)
Weight generation scheme         WeightScheme... Becke
Basis function cutoff            BFCut       ... 1.0000e-10
Integration weight cutoff        WCut        ... 1.0000e-14
Angular grids for H and He will be reduced by one unit
Partially contracted basis set               ... on
Rotationally invariant grid construction     ... off

Total number of grid points                  ...    28396
Total number of batches                      ...      471
Average number of points per batch           ...       60
Average number of grid points per atom       ...      580
UseSFitting                                  ... on

GRIDX 2
-------
General Integration Accuracy     IntAcc      ... 4.020
Radial Grid Type                 RadialGrid  ... OptM3 with GC (2021)
Angular Grid (max. ang.)         AngularGrid ... 2 (Lebedev-110)
Angular grid pruning method      GridPruning ... 4 (adaptive)
Weight generation scheme         WeightScheme... Becke
Basis function cutoff            BFCut       ... 1.0000e-10
Integration weight cutoff        WCut        ... 1.0000e-14
Angular grids for H and He will be reduced by one unit
Partially contracted basis set               ... on
Rotationally invariant grid construction     ... off

Total number of grid points                  ...    60558
Total number of batches                      ...      971
Average number of points per batch           ...       62
Average number of grid points per atom       ...     1236
UseSFitting                                  ... on

GRIDX 3
-------
General Integration Accuracy     IntAcc      ... 4.338
Radial Grid Type                 RadialGrid  ... OptM3 with GC (2021)
Angular Grid (max. ang.)         AngularGrid ... 3 (Lebedev-194)
Angular grid pruning method      GridPruning ... 4 (adaptive)
Weight generation scheme         WeightScheme... Becke
Basis function cutoff            BFCut       ... 1.0000e-10
Integration weight cutoff        WCut        ... 1.0000e-14
Angular grids for H and He will be reduced by one unit
Partially contracted basis set               ... on
Rotationally invariant grid construction     ... off

Total number of grid points                  ...   132523
Total number of batches                      ...     2094
Average number of points per batch           ...       63
Average number of grid points per atom       ...     2705
UseSFitting                                  ... on

Time for X-Grid setup             =    2.593 sec

--------------
SCF ITERATIONS
--------------
ITER       Energy         Delta-E        Max-DP      RMS-DP      [F,P]     Damp
               ***  Starting incremental Fock matrix formation  ***
  0   -928.9187301936   0.000000000000 0.00012847  0.00000104  0.0000990 0.7000
                 **** Energy Check signals convergence ****

               *****************************************************
               *                     SUCCESS                       *
               *           SCF CONVERGED AFTER   1 CYCLES          *
               *****************************************************

Old exchange energy                            =    -26.591807569 Eh
New exchange energy                            =    -26.591791963 Eh
Exchange energy change after final integration =      0.000015606 Eh
Total energy after final integration           =   -928.918714416 Eh
Final COS-X integration done in                =    10.227 sec

----------------
TOTAL SCF ENERGY
----------------

Total Energy       :         -928.91871442 Eh          -25277.16329 eV

Components:
Nuclear Repulsion  :         1728.32037138 Eh           47029.98826 eV
Electronic Energy  :        -2657.23908579 Eh          -72307.15155 eV
One Electron Energy:        -4683.64236261 Eh         -127448.38804 eV
Two Electron Energy:         2026.40327682 Eh           55141.23649 eV
Max COSX asymmetry :            0.00000341 Eh               0.00009 eV

Virial components:
Potential Energy   :        -1850.45956169 Eh          -50353.56460 eV
Kinetic Energy     :          921.54084727 Eh           25076.40131 eV
Virial Ratio       :            2.00800601


DFT components:
N(Alpha)           :       85.000179067762 electrons
N(Beta)            :       84.000186407233 electrons
N(Total)           :      169.000365474995 electrons
E(X)               :     -105.501132655224 Eh       
E(C)               :       -6.573200021585 Eh       
E(XC)              :     -112.074332676809 Eh       
DFET-embed. en.    :        0.000000000000 Eh       

---------------
SCF CONVERGENCE
---------------

  Last Energy change         ...    1.7144e-07  Tolerance :   1.0000e-06
  Last MAX-Density change    ...    4.5684e-05  Tolerance :   1.0000e-05
  Last RMS-Density change    ...    3.2408e-07  Tolerance :   1.0000e-06
  Last DIIS Error            ...    5.7399e-05  Tolerance :   1.0000e-06

             **** THE GBW FILE WAS UPDATED (EPRII_i.gbw) ****
             **** DENSITY EPRII_i.scfp WAS UPDATED ****
             **** ENERGY FILE WAS UPDATED (EPRII_i.en.tmp) ****
----------------------
UHF SPIN CONTAMINATION
----------------------

Warning: in a DFT calculation there is little theoretical justification to 
         calculate <S**2> as in Hartree-Fock theory. We will do it anyways
         but you should keep in mind that the values have only limited relevance

Expectation value of <S**2>     :     0.773424
Ideal value S*(S+1) for S=0.5   :     0.750000
Deviation                       :     0.023424

             **** THE GBW FILE WAS UPDATED (EPRII_i.gbw) ****
             **** DENSITY EPRII_i.scfp WAS UPDATED ****
----------------
ORBITAL ENERGIES
----------------
                 SPIN UP ORBITALS
  NO   OCC          E(Eh)            E(eV) 
   0   1.0000     -10.254747      -279.0458 
   1   1.0000     -10.247801      -278.8569 
   2   1.0000     -10.241979      -278.6984 
   3   1.0000     -10.233415      -278.4654 
   4   1.0000     -10.233196      -278.4594 
   5   1.0000     -10.229976      -278.3718 
   6   1.0000     -10.226236      -278.2700 
   7   1.0000     -10.226081      -278.2658 
   8   1.0000     -10.225810      -278.2584 
   9   1.0000     -10.225173      -278.2411 
  10   1.0000     -10.222301      -278.1630 
  11   1.0000     -10.222175      -278.1595 
  12   1.0000     -10.218854      -278.0691 
  13   1.0000     -10.217616      -278.0355 
  14   1.0000     -10.203180      -277.6426 
  15   1.0000     -10.194541      -277.4076 
  16   1.0000     -10.192453      -277.3508 
  17   1.0000     -10.190798      -277.3057 
  18   1.0000     -10.189099      -277.2595 
  19   1.0000     -10.186274      -277.1826 
  20   1.0000     -10.185193      -277.1532 
  21   1.0000     -10.184054      -277.1222 
  22   1.0000     -10.178647      -276.9751 
  23   1.0000     -10.176088      -276.9054 
  24   1.0000      -0.893730       -24.3196 
  25   1.0000      -0.883914       -24.0525 
  26   1.0000      -0.833551       -22.6821 
  27   1.0000      -0.815211       -22.1830 
  28   1.0000      -0.800957       -21.7951 
  29   1.0000      -0.797418       -21.6988 
  30   1.0000      -0.776394       -21.1268 
  31   1.0000      -0.771139       -20.9838 
  32   1.0000      -0.754796       -20.5390 
  33   1.0000      -0.738236       -20.0884 
  34   1.0000      -0.719726       -19.5848 
  35   1.0000      -0.706485       -19.2244 
  36   1.0000      -0.662633       -18.0312 
  37   1.0000      -0.658877       -17.9290 
  38   1.0000      -0.634130       -17.2555 
  39   1.0000      -0.629673       -17.1343 
  40   1.0000      -0.629051       -17.1174 
  41   1.0000      -0.602216       -16.3871 
  42   1.0000      -0.585561       -15.9339 
  43   1.0000      -0.572882       -15.5889 
  44   1.0000      -0.559707       -15.2304 
  45   1.0000      -0.526161       -14.3176 
  46   1.0000      -0.523434       -14.2434 
  47   1.0000      -0.500155       -13.6099 
  48   1.0000      -0.493169       -13.4198 
  49   1.0000      -0.481021       -13.0892 
  50   1.0000      -0.477075       -12.9819 
  51   1.0000      -0.475604       -12.9419 
  52   1.0000      -0.455884       -12.4052 
  53   1.0000      -0.446919       -12.1613 
  54   1.0000      -0.444707       -12.1011 
  55   1.0000      -0.435417       -11.8483 
  56   1.0000      -0.434783       -11.8311 
  57   1.0000      -0.429534       -11.6882 
  58   1.0000      -0.424418       -11.5490 
  59   1.0000      -0.418079       -11.3765 
  60   1.0000      -0.410040       -11.1578 
  61   1.0000      -0.404615       -11.0101 
  62   1.0000      -0.391948       -10.6655 
  63   1.0000      -0.382829       -10.4173 
  64   1.0000      -0.380969       -10.3667 
  65   1.0000      -0.374109       -10.1800 
  66   1.0000      -0.371301       -10.1036 
  67   1.0000      -0.367766       -10.0074 
  68   1.0000      -0.367243        -9.9932 
  69   1.0000      -0.354741        -9.6530 
  70   1.0000      -0.345352        -9.3975 
  71   1.0000      -0.340604        -9.2683 
  72   1.0000      -0.335787        -9.1372 
  73   1.0000      -0.332185        -9.0392 
  74   1.0000      -0.330757        -9.0004 
  75   1.0000      -0.329488        -8.9658 
  76   1.0000      -0.326229        -8.8772 
  77   1.0000      -0.312724        -8.5097 
  78   1.0000      -0.293521        -7.9871 
  79   1.0000      -0.279039        -7.5930 
  80   1.0000      -0.267291        -7.2734 
  81   1.0000      -0.264318        -7.1925 
  82   1.0000      -0.250130        -6.8064 
  83   1.0000      -0.246307        -6.7023 
  84   1.0000      -0.221072        -6.0157 
  85   0.0000      -0.083393        -2.2693 
  86   0.0000      -0.033514        -0.9120 
  87   0.0000      -0.032894        -0.8951 
  88   0.0000      -0.022314        -0.6072 
  89   0.0000       0.001079         0.0294 
  90   0.0000       0.014320         0.3897 
  91   0.0000       0.016085         0.4377 
  92   0.0000       0.022135         0.6023 
  93   0.0000       0.025154         0.6845 
  94   0.0000       0.028271         0.7693 
  95   0.0000       0.030612         0.8330 
  96   0.0000       0.041914         1.1405 
  97   0.0000       0.044752         1.2178 
  98   0.0000       0.048242         1.3127 
  99   0.0000       0.049544         1.3481 
 100   0.0000       0.057081         1.5533 
 101   0.0000       0.059181         1.6104 
 102   0.0000       0.067482         1.8363 
 103   0.0000       0.070044         1.9060 
 104   0.0000       0.075202         2.0464 
 105   0.0000       0.076489         2.0814 
 106   0.0000       0.094983         2.5846 
 107   0.0000       0.096260         2.6194 
 108   0.0000       0.097158         2.6438 
 109   0.0000       0.108149         2.9429 
 110   0.0000       0.115406         3.1404 
 111   0.0000       0.122128         3.3233 
 112   0.0000       0.135969         3.6999 
 113   0.0000       0.136211         3.7065 
 114   0.0000       0.143491         3.9046 
 115   0.0000       0.148413         4.0385 
 116   0.0000       0.155927         4.2430 
 117   0.0000       0.164221         4.4687 
 118   0.0000       0.169490         4.6121 
 119   0.0000       0.169963         4.6249 
 120   0.0000       0.177324         4.8252 
 121   0.0000       0.182393         4.9632 
 122   0.0000       0.183454         4.9920 
 123   0.0000       0.192491         5.2380 
 124   0.0000       0.194500         5.2926 
 125   0.0000       0.195742         5.3264 
 126   0.0000       0.197888         5.3848 
 127   0.0000       0.200197         5.4476 
 128   0.0000       0.203177         5.5287 
 129   0.0000       0.207659         5.6507 
 130   0.0000       0.210428         5.7260 
 131   0.0000       0.210781         5.7357 
 132   0.0000       0.210894         5.7387 
 133   0.0000       0.223260         6.0752 
 134   0.0000       0.229829         6.2540 
 135   0.0000       0.231328         6.2948 
 136   0.0000       0.233912         6.3651 
 137   0.0000       0.239995         6.5306 
 138   0.0000       0.243322         6.6211 
 139   0.0000       0.246772         6.7150 
 140   0.0000       0.247551         6.7362 
 141   0.0000       0.252018         6.8578 
 142   0.0000       0.256672         6.9844 
 143   0.0000       0.264152         7.1879 
 144   0.0000       0.264821         7.2061 
 145   0.0000       0.265719         7.2306 
 146   0.0000       0.276671         7.5286 
 147   0.0000       0.277765         7.5584 
 148   0.0000       0.278160         7.5691 
 149   0.0000       0.279577         7.6077 
 150   0.0000       0.280048         7.6205 
 151   0.0000       0.288995         7.8640 
 152   0.0000       0.291247         7.9252 
 153   0.0000       0.291799         7.9403 
 154   0.0000       0.294940         8.0257 
 155   0.0000       0.297968         8.1081 
 156   0.0000       0.301587         8.2066 
 157   0.0000       0.303261         8.2522 
 158   0.0000       0.303996         8.2722 
 159   0.0000       0.307726         8.3737 
 160   0.0000       0.311399         8.4736 
 161   0.0000       0.313808         8.5392 
 162   0.0000       0.316873         8.6226 
 163   0.0000       0.325936         8.8692 
 164   0.0000       0.328322         8.9341 
 165   0.0000       0.331224         9.0131 
 166   0.0000       0.334097         9.0912 
 167   0.0000       0.335127         9.1193 
 168   0.0000       0.341350         9.2886 
 169   0.0000       0.348789         9.4910 
 170   0.0000       0.356354         9.6969 
 171   0.0000       0.364096         9.9076 
 172   0.0000       0.364614         9.9217 
 173   0.0000       0.367906        10.0112 
 174   0.0000       0.369358        10.0508 
 175   0.0000       0.372843        10.1456 
 176   0.0000       0.382996        10.4218 
 177   0.0000       0.390671        10.6307 
 178   0.0000       0.398856        10.8534 
 179   0.0000       0.400563        10.8999 
 180   0.0000       0.405378        11.0309 
 181   0.0000       0.408799        11.1240 
 182   0.0000       0.410104        11.1595 
 183   0.0000       0.412798        11.2328 
 184   0.0000       0.416584        11.3358 
 185   0.0000       0.418929        11.3996 
 186   0.0000       0.424594        11.5538 
 187   0.0000       0.430906        11.7255 
 188   0.0000       0.431897        11.7525 
 189   0.0000       0.436159        11.8685 
 190   0.0000       0.437471        11.9042 
 191   0.0000       0.442530        12.0419 
 192   0.0000       0.446710        12.1556 
 193   0.0000       0.452826        12.3220 
 194   0.0000       0.458181        12.4677 
 195   0.0000       0.461366        12.5544 
 196   0.0000       0.464815        12.6483 
 197   0.0000       0.467947        12.7335 
 198   0.0000       0.470590        12.8054 
 199   0.0000       0.481371        13.0988 
 200   0.0000       0.484747        13.1906 
 201   0.0000       0.489974        13.3329 
 202   0.0000       0.495807        13.4916 
 203   0.0000       0.502806        13.6821 
 204   0.0000       0.504352        13.7241 
 205   0.0000       0.512681        13.9508 
 206   0.0000       0.512792        13.9538 
 207   0.0000       0.522117        14.2075 
 208   0.0000       0.527578        14.3561 
 209   0.0000       0.533368        14.5137 
 210   0.0000       0.541158        14.7257 
 211   0.0000       0.542801        14.7704 
 212   0.0000       0.542838        14.7714 
 213   0.0000       0.557537        15.1713 
 214   0.0000       0.565479        15.3875 
 215   0.0000       0.573520        15.6063 
 216   0.0000       0.582316        15.8456 
 217   0.0000       0.585303        15.9269 
 218   0.0000       0.587022        15.9737 
 219   0.0000       0.593842        16.1593 
 220   0.0000       0.598835        16.2951 
 221   0.0000       0.615032        16.7359 
 222   0.0000       0.622676        16.9439 
 223   0.0000       0.632592        17.2137 
 224   0.0000       0.646925        17.6037 
 225   0.0000       0.648114        17.6361 
 226   0.0000       0.651591        17.7307 
 227   0.0000       0.659982        17.9590 
 228   0.0000       0.662499        18.0275 
 229   0.0000       0.669501        18.2181 
 230   0.0000       0.694594        18.9009 
 231   0.0000       0.698717        19.0131 
 232   0.0000       0.710562        19.3354 
 233   0.0000       0.740907        20.1611 
 234   0.0000       0.757526        20.6133 
 235   0.0000       0.759725        20.6732 
 236   0.0000       0.770999        20.9800 
 237   0.0000       0.780037        21.2259 
 238   0.0000       0.789927        21.4950 
 239   0.0000       0.801703        21.8154 
 240   0.0000       0.813061        22.1245 
 241   0.0000       0.823816        22.4172 
 242   0.0000       0.833574        22.6827 
 243   0.0000       0.839961        22.8565 
 244   0.0000       0.840513        22.8715 
 245   0.0000       0.843977        22.9658 
 246   0.0000       0.850903        23.1543 
 247   0.0000       0.853820        23.2336 
 248   0.0000       0.859843        23.3975 
 249   0.0000       0.866623        23.5820 
 250   0.0000       0.874048        23.7841 
 251   0.0000       0.881085        23.9755 
 252   0.0000       0.886896        24.1337 
 253   0.0000       0.889217        24.1968 
 254   0.0000       0.897075        24.4106 
 255   0.0000       0.903227        24.5781 
 256   0.0000       0.904447        24.6113 
 257   0.0000       0.910664        24.7804 
 258   0.0000       0.917535        24.9674 
 259   0.0000       0.920795        25.0561 
 260   0.0000       0.925669        25.1887 
 261   0.0000       0.926119        25.2010 
 262   0.0000       0.928736        25.2722 
 263   0.0000       0.936361        25.4797 
 264   0.0000       0.939804        25.5734 
 265   0.0000       0.948954        25.8224 
 266   0.0000       0.955210        25.9926 
 267   0.0000       0.960112        26.1260 
 268   0.0000       0.965121        26.2623 
 269   0.0000       0.968266        26.3478 
 270   0.0000       0.974310        26.5123 
 271   0.0000       0.976998        26.5855 
 272   0.0000       0.977220        26.5915 
 273   0.0000       0.982456        26.7340 
 274   0.0000       0.986514        26.8444 
 275   0.0000       0.993213        27.0267 
 276   0.0000       0.997421        27.1412 
 277   0.0000       1.008408        27.4402 
 278   0.0000       1.010481        27.4966 
 279   0.0000       1.012526        27.5522 
 280   0.0000       1.018373        27.7113 
 281   0.0000       1.026864        27.9424 
 282   0.0000       1.028053        27.9748 
 283   0.0000       1.039089        28.2751 
 284   0.0000       1.039613        28.2893 
 285   0.0000       1.054875        28.7046 
 286   0.0000       1.058713        28.8091 
 287   0.0000       1.069135        29.0926 
 288   0.0000       1.076882        29.3034 
 289   0.0000       1.088066        29.6078 
 290   0.0000       1.093466        29.7547 
 291   0.0000       1.097123        29.8542 
 292   0.0000       1.103818        30.0364 
 293   0.0000       1.105489        30.0819 
 294   0.0000       1.115572        30.3563 
 295   0.0000       1.121132        30.5076 
 296   0.0000       1.123725        30.5781 
 297   0.0000       1.146044        31.1854 
 298   0.0000       1.151412        31.3315 
 299   0.0000       1.167414        31.7669 
 300   0.0000       1.168804        31.8048 
 301   0.0000       1.171348        31.8740 
 302   0.0000       1.179393        32.0929 
 303   0.0000       1.180101        32.1122 
 304   0.0000       1.195040        32.5187 
 305   0.0000       1.200761        32.6744 
 306   0.0000       1.206563        32.8322 
 307   0.0000       1.213759        33.0281 
 308   0.0000       1.226559        33.3764 
 309   0.0000       1.237290        33.6684 
 310   0.0000       1.243055        33.8253 
 311   0.0000       1.247985        33.9594 
 312   0.0000       1.263366        34.3779 
 313   0.0000       1.265018        34.4229 
 314   0.0000       1.282240        34.8915 
 315   0.0000       1.294342        35.2208 
 316   0.0000       1.297153        35.2973 
 317   0.0000       1.306876        35.5619 
 318   0.0000       1.311003        35.6742 
 319   0.0000       1.318167        35.8691 
 320   0.0000       1.327388        36.1201 
 321   0.0000       1.337187        36.3867 
 322   0.0000       1.338038        36.4099 
 323   0.0000       1.343229        36.5511 
 324   0.0000       1.359591        36.9963 
 325   0.0000       1.371364        37.3167 
 326   0.0000       1.383727        37.6531 
 327   0.0000       1.384471        37.6734 
 328   0.0000       1.399074        38.0707 
 329   0.0000       1.403180        38.1825 
 330   0.0000       1.407537        38.3010 
 331   0.0000       1.421263        38.6745 
 332   0.0000       1.423846        38.7448 
 333   0.0000       1.424068        38.7509 
 334   0.0000       1.428848        38.8809 
 335   0.0000       1.431170        38.9441 
 336   0.0000       1.443225        39.2722 
 337   0.0000       1.449860        39.4527 
 338   0.0000       1.451239        39.4902 
 339   0.0000       1.454571        39.5809 
 340   0.0000       1.474146        40.1135 
 341   0.0000       1.483991        40.3814 
 342   0.0000       1.485851        40.4321 
 343   0.0000       1.493372        40.6367 
 344   0.0000       1.503483        40.9119 
 345   0.0000       1.507097        41.0102 
 346   0.0000       1.511925        41.1416 
 347   0.0000       1.536040        41.7978 
 348   0.0000       1.536250        41.8035 
 349   0.0000       1.546293        42.0768 
 350   0.0000       1.548161        42.1276 
 351   0.0000       1.550137        42.1814 
 352   0.0000       1.556098        42.3436 
 353   0.0000       1.571765        42.7699 
 354   0.0000       1.574536        42.8453 
 355   0.0000       1.585072        43.1320 
 356   0.0000       1.585520        43.1442 
 357   0.0000       1.592503        43.3342 
 358   0.0000       1.595318        43.4108 
 359   0.0000       1.601007        43.5656 
 360   0.0000       1.606758        43.7221 
 361   0.0000       1.611408        43.8486 
 362   0.0000       1.612763        43.8855 
 363   0.0000       1.620188        44.0875 
 364   0.0000       1.621183        44.1146 
 365   0.0000       1.627886        44.2970 
 366   0.0000       1.633292        44.4441 
 367   0.0000       1.638925        44.5974 
 368   0.0000       1.645109        44.7657 
 369   0.0000       1.656450        45.0743 
 370   0.0000       1.664089        45.2822 
 371   0.0000       1.670884        45.4671 
 372   0.0000       1.671658        45.4881 
 373   0.0000       1.677576        45.6492 
 374   0.0000       1.680402        45.7261 
 375   0.0000       1.689585        45.9760 
 376   0.0000       1.699235        46.2385 
 377   0.0000       1.699613        46.2488 
 378   0.0000       1.708023        46.4777 
 379   0.0000       1.714613        46.6570 
 380   0.0000       1.727414        47.0053 
 381   0.0000       1.735293        47.2197 
 382   0.0000       1.738893        47.3177 
 383   0.0000       1.748234        47.5719 
 384   0.0000       1.751910        47.6719 
 385   0.0000       1.755679        47.7744 
 386   0.0000       1.756494        47.7966 
 387   0.0000       1.766851        48.0785 
 388   0.0000       1.773030        48.2466 
 389   0.0000       1.778020        48.3824 
 390   0.0000       1.778078        48.3839 
 391   0.0000       1.790028        48.7091 
 392   0.0000       1.797310        48.9073 
 393   0.0000       1.801992        49.0347 
 394   0.0000       1.821118        49.5551 
 395   0.0000       1.831334        49.8331 
 396   0.0000       1.835396        49.9437 
 397   0.0000       1.836746        49.9804 
 398   0.0000       1.844850        50.2009 
 399   0.0000       1.858907        50.5834 
 400   0.0000       1.869309        50.8665 
 401   0.0000       1.898641        51.6647 
 402   0.0000       1.906133        51.8685 
 403   0.0000       1.910786        51.9951 
 404   0.0000       1.923196        52.3328 
 405   0.0000       1.932151        52.5765 
 406   0.0000       1.933976        52.6262 
 407   0.0000       1.937459        52.7209 
 408   0.0000       1.942939        52.8700 
 409   0.0000       1.949786        53.0564 
 410   0.0000       1.956592        53.2416 
 411   0.0000       1.999386        54.4061 
 412   0.0000       2.001549        54.4649 
 413   0.0000       2.014045        54.8049 
 414   0.0000       2.025175        55.1078 
 415   0.0000       2.032260        55.3006 
 416   0.0000       2.056213        55.9524 
 417   0.0000       2.060629        56.0726 
 418   0.0000       2.079501        56.5861 
 419   0.0000       2.092106        56.9291 
 420   0.0000       2.111247        57.4500 
 421   0.0000       2.112355        57.4801 
 422   0.0000       2.131201        57.9929 
 423   0.0000       2.133943        58.0675 
 424   0.0000       2.144277        58.3488 
 425   0.0000       2.154366        58.6233 
 426   0.0000       2.175574        59.2004 
 427   0.0000       2.185858        59.4802 
 428   0.0000       2.208618        60.0996 
 429   0.0000       2.228456        60.6394 
 430   0.0000       2.230435        60.6932 
 431   0.0000       2.234371        60.8003 
 432   0.0000       2.245574        61.1052 
 433   0.0000       2.246873        61.1405 
 434   0.0000       2.255135        61.3653 
 435   0.0000       2.280768        62.0628 
 436   0.0000       2.298148        62.5358 
 437   0.0000       2.304931        62.7204 
 438   0.0000       2.307642        62.7941 
 439   0.0000       2.317013        63.0491 
 440   0.0000       2.320336        63.1395 
 441   0.0000       2.336452        63.5781 
 442   0.0000       2.342000        63.7291 
 443   0.0000       2.345457        63.8231 
 444   0.0000       2.380588        64.7791 
 445   0.0000       2.386191        64.9316 
 446   0.0000       2.394548        65.1590 
 447   0.0000       2.408686        65.5437 
 448   0.0000       2.410526        65.5937 
 449   0.0000       2.416811        65.7648 
 450   0.0000       2.431973        66.1773 
 451   0.0000       2.444837        66.5274 
 452   0.0000       2.446063        66.5608 
 453   0.0000       2.456105        66.8340 
 454   0.0000       2.457903        66.8829 
 455   0.0000       2.469143        67.1888 
 456   0.0000       2.474105        67.3238 
 457   0.0000       2.485007        67.6205 
 458   0.0000       2.489990        67.7561 
 459   0.0000       2.502270        68.0902 
 460   0.0000       2.509501        68.2870 
 461   0.0000       2.514261        68.4165 
 462   0.0000       2.517655        68.5089 
 463   0.0000       2.536989        69.0350 
 464   0.0000       2.547085        69.3097 
 465   0.0000       2.555249        69.5318 
 466   0.0000       2.563782        69.7640 
 467   0.0000       2.572496        70.0012 
 468   0.0000       2.589314        70.4588 
 469   0.0000       2.604114        70.8616 
 470   0.0000       2.606316        70.9215 
 471   0.0000       2.614486        71.1438 
 472   0.0000       2.614686        71.1492 
 473   0.0000       2.626911        71.4819 
 474   0.0000       2.678299        72.8802 
 475   0.0000       2.710307        73.7512 
 476   0.0000       2.738491        74.5181 
 477   0.0000       2.749602        74.8205 
 478   0.0000       2.775491        75.5249 
 479   0.0000       2.803852        76.2967 
 480   0.0000       2.827000        76.9266 
 481   0.0000       2.925379        79.6036 
 482   0.0000       3.045848        82.8818 
 483   0.0000       3.243497        88.2600 
 484   0.0000       3.412660        92.8632 
 485   0.0000       4.976959       135.4299 
 486   0.0000       4.981740       135.5600 
 487   0.0000       4.992845       135.8622 
 488   0.0000       5.001090       136.0866 
 489   0.0000       5.006735       136.2402 
 490   0.0000       5.008003       136.2747 
 491   0.0000       5.014806       136.4598 
 492   0.0000       5.025764       136.7580 
 493   0.0000       5.030768       136.8941 
 494   0.0000       5.038224       137.0970 
 495   0.0000       5.043405       137.2380 
 496   0.0000       5.074170       138.0752 
 497   0.0000       5.079168       138.2112 
 498   0.0000       5.157985       140.3559 
 499   0.0000       5.182911       141.0342 
 500   0.0000       5.214074       141.8822 
 501   0.0000       5.228812       142.2832 
 502   0.0000       5.231541       142.3575 
 503   0.0000       5.247590       142.7942 
 504   0.0000       5.266363       143.3050 
 505   0.0000       5.282692       143.7494 
 506   0.0000       5.295540       144.0990 
 507   0.0000       5.298292       144.1738 
 508   0.0000       5.301456       144.2600 
 509   0.0000       5.305878       144.3803 
 510   0.0000       5.350907       145.6056 
 511   0.0000       5.358969       145.8250 
 512   0.0000       5.364746       145.9822 
 513   0.0000       5.402772       147.0169 
 514   0.0000       5.434546       147.8815 
 515   0.0000       5.447783       148.2417 
 516   0.0000       5.464765       148.7038 
 517   0.0000       5.484678       149.2457 
 518   0.0000       5.547695       150.9604 
 519   0.0000       5.559825       151.2905 
 520   0.0000       5.576343       151.7400 
 521   0.0000       5.606476       152.5600 
 522   0.0000       5.627623       153.1354 
 523   0.0000       5.642613       153.5433 
 524   0.0000       5.662396       154.0816 
 525   0.0000       5.725102       155.7879 
 526   0.0000       5.735022       156.0579 
 527   0.0000       5.775900       157.1702 
 528   0.0000       5.823181       158.4568 
 529   0.0000       5.847443       159.1170 
 530   0.0000       5.868045       159.6776 
 531   0.0000       5.934277       161.4799 
 532   0.0000       6.150475       167.3629 
 533   0.0000       6.295067       171.2975 
 534   0.0000      29.582233       804.9735 
 535   0.0000      29.712041       808.5057 
 536   0.0000      29.794268       810.7432 
 537   0.0000      29.798877       810.8687 
 538   0.0000      29.826349       811.6162 
 539   0.0000      29.841595       812.0311 
 540   0.0000      29.915654       814.0463 
 541   0.0000      29.945973       814.8714 
 542   0.0000      29.973979       815.6334 
 543   0.0000      29.995962       816.2316 
 544   0.0000      30.025852       817.0450 
 545   0.0000      30.055829       817.8607 
 546   0.0000      30.068238       818.1984 
 547   0.0000      30.094653       818.9171 
 548   0.0000      30.108821       819.3027 
 549   0.0000      30.120565       819.6222 
 550   0.0000      30.154129       820.5356 
 551   0.0000      30.204831       821.9152 
 552   0.0000      30.233789       822.7032 
 553   0.0000      30.245918       823.0333 
 554   0.0000      30.268147       823.6381 
 555   0.0000      30.299478       824.4907 
 556   0.0000      30.455575       828.7383 
 557   0.0000      30.522420       830.5573 
 558   0.0000      36.604973       996.0719 
 559   0.0000      36.609538       996.1962 
 560   0.0000      36.619739       996.4738 
 561   0.0000      36.625165       996.6214 
 562   0.0000      36.631795       996.8018 
 563   0.0000      36.636220       996.9222 
 564   0.0000      36.651803       997.3463 
 565   0.0000      36.657123       997.4910 
 566   0.0000      36.663459       997.6634 
 567   0.0000      36.667877       997.7837 
 568   0.0000      36.687805       998.3259 
 569   0.0000      36.700310       998.6662 
 570   0.0000      36.771220      1000.5958 
 571   0.0000      36.808403      1001.6076 
 572   0.0000      36.820927      1001.9484 
 573   0.0000      36.848948      1002.7109 
 574   0.0000      36.859698      1003.0034 
 575   0.0000      36.873496      1003.3788 
 576   0.0000      36.878822      1003.5238 
 577   0.0000      36.922569      1004.7142 
 578   0.0000      36.926701      1004.8266 
 579   0.0000      36.932038      1004.9718 
 580   0.0000      36.990536      1006.5637 
 581   0.0000      37.019565      1007.3536 
 582   0.0000      37.024940      1007.4998 

                 SPIN DOWN ORBITALS
  NO   OCC          E(Eh)            E(eV) 
   0   1.0000     -10.251673      -278.9622 
   1   1.0000     -10.248269      -278.8696 
   2   1.0000     -10.242267      -278.7063 
   3   1.0000     -10.231369      -278.4097 
   4   1.0000     -10.231177      -278.4045 
   5   1.0000     -10.230936      -278.3979 
   6   1.0000     -10.226729      -278.2834 
   7   1.0000     -10.225639      -278.2538 
   8   1.0000     -10.225484      -278.2496 
   9   1.0000     -10.224535      -278.2237 
  10   1.0000     -10.222590      -278.1708 
  11   1.0000     -10.222453      -278.1671 
  12   1.0000     -10.218750      -278.0663 
  13   1.0000     -10.217247      -278.0254 
  14   1.0000     -10.203132      -277.6413 
  15   1.0000     -10.194673      -277.4112 
  16   1.0000     -10.192457      -277.3508 
  17   1.0000     -10.190799      -277.3057 
  18   1.0000     -10.189102      -277.2596 
  19   1.0000     -10.185194      -277.1532 
  20   1.0000     -10.182608      -277.0829 
  21   1.0000     -10.179738      -277.0048 
  22   1.0000     -10.178647      -276.9751 
  23   1.0000     -10.176089      -276.9054 
  24   1.0000      -0.890714       -24.2376 
  25   1.0000      -0.883061       -24.0293 
  26   1.0000      -0.831016       -22.6131 
  27   1.0000      -0.813620       -22.1397 
  28   1.0000      -0.800470       -21.7819 
  29   1.0000      -0.794661       -21.6238 
  30   1.0000      -0.775944       -21.1145 
  31   1.0000      -0.770598       -20.9690 
  32   1.0000      -0.751284       -20.4435 
  33   1.0000      -0.737397       -20.0656 
  34   1.0000      -0.711099       -19.3500 
  35   1.0000      -0.700121       -19.0513 
  36   1.0000      -0.661819       -18.0090 
  37   1.0000      -0.653868       -17.7926 
  38   1.0000      -0.631224       -17.1765 
  39   1.0000      -0.629120       -17.1192 
  40   1.0000      -0.628607       -17.1053 
  41   1.0000      -0.600914       -16.3517 
  42   1.0000      -0.585430       -15.9304 
  43   1.0000      -0.572368       -15.5749 
  44   1.0000      -0.559017       -15.2116 
  45   1.0000      -0.524431       -14.2705 
  46   1.0000      -0.521385       -14.1876 
  47   1.0000      -0.499231       -13.5848 
  48   1.0000      -0.492090       -13.3905 
  49   1.0000      -0.480915       -13.0864 
  50   1.0000      -0.476720       -12.9722 
  51   1.0000      -0.474942       -12.9238 
  52   1.0000      -0.455519       -12.3953 
  53   1.0000      -0.446146       -12.1402 
  54   1.0000      -0.444550       -12.0968 
  55   1.0000      -0.434110       -11.8127 
  56   1.0000      -0.433272       -11.7899 
  57   1.0000      -0.429388       -11.6842 
  58   1.0000      -0.423115       -11.5135 
  59   1.0000      -0.417900       -11.3716 
  60   1.0000      -0.409405       -11.1405 
  61   1.0000      -0.401550       -10.9267 
  62   1.0000      -0.387419       -10.5422 
  63   1.0000      -0.382210       -10.4005 
  64   1.0000      -0.380495       -10.3538 
  65   1.0000      -0.374032       -10.1779 
  66   1.0000      -0.371027       -10.0962 
  67   1.0000      -0.366677        -9.9778 
  68   1.0000      -0.365253        -9.9390 
  69   1.0000      -0.352404        -9.5894 
  70   1.0000      -0.340498        -9.2654 
  71   1.0000      -0.337959        -9.1963 
  72   1.0000      -0.335760        -9.1365 
  73   1.0000      -0.332100        -9.0369 
  74   1.0000      -0.330577        -8.9955 
  75   1.0000      -0.329120        -8.9558 
  76   1.0000      -0.325812        -8.8658 
  77   1.0000      -0.298860        -8.1324 
  78   1.0000      -0.292592        -7.9618 
  79   1.0000      -0.277534        -7.5521 
  80   1.0000      -0.262708        -7.1486 
  81   1.0000      -0.246719        -6.7136 
  82   1.0000      -0.240759        -6.5514 
  83   1.0000      -0.239686        -6.5222 
  84   0.0000      -0.156427        -4.2566 
  85   0.0000      -0.072396        -1.9700 
  86   0.0000      -0.032062        -0.8725 
  87   0.0000      -0.022450        -0.6109 
  88   0.0000      -0.015641        -0.4256 
  89   0.0000       0.001196         0.0325 
  90   0.0000       0.014293         0.3889 
  91   0.0000       0.016290         0.4433 
  92   0.0000       0.022409         0.6098 
  93   0.0000       0.025202         0.6858 
  94   0.0000       0.028331         0.7709 
  95   0.0000       0.030899         0.8408 
  96   0.0000       0.042012         1.1432 
  97   0.0000       0.044772         1.2183 
  98   0.0000       0.049784         1.3547 
[...]
  Y          -0.0024351            0.9075182            0.4200058
  Z           0.9999969            0.0023962            0.0006202

Notes:  (1) The A matrix conforms to the "SAI" spin Hamiltonian convention.
        (2) Tensor is right-handed.

 -----------------------------------------------------------
 Nucleus  46H : A:ISTP=    1 I=  0.5 P=533.5514 MHz/au**3
                Q:ISTP=    2 I=  1.0 Q=  0.0029 barn     
 -----------------------------------------------------------
 Solving for nuclear perturbation:
Forming RHS of the CP-SCF equations         ... 
Calc. nucleus orbit integrals (SHARK)       ... done

------------------------------------------------------------------------------
                           ORCA CP-SCF CALCULATION
------------------------------------------------------------------------------

Input orbitals are from        ... EPRII_i.gbw
Input Perturbation             ... EPRII_i.pin.tmp
Wavefunction output            ... EPRII_i.pout.tmp
Perturbation mode              ... Imaginary perturbation
Solver                         ... POPLE
Max. number of iterations      ... 64
Convergence tolerance          ... 1.000e-03
Integral handling              ... Direct
DFT GridXC                     ... 1
COSX GridX                     ... 1
COSX IntAccX                   ... 3.067
COSX Algorithm                 ... Auto
Number of perturbations        ... 3
Number of operators            ... 2
Orbital ranges used for CP-SCF:
 Operator 0:  Orbitals   0... 84  to  85...582
 Operator 1:  Orbitals   0... 83  to  84...582
Variables per perturbation     ... 84246
DFT calculation                         ... on
XC functional terms                     ... off
Hybrid DFT                              ... on
   Exchange mixing (SCF)                ...  0.200
   Exchange mixing (CP-SCF)             ...  0.200
   GGA exch. scaling(SCF)               ...  0.720
   GGA exch. scaling (CP-SCF)           ...  0.720
   GGA corr. scaling (SCF)              ...  0.810
   GGA corr. scaling (CP-SCF)           ...  0.810

CP-SCF GRID
-----------

General Integration Accuracy     IntAcc      ... 3.467
Radial Grid Type                 RadialGrid  ... OptM3 with GC (2021)
Angular Grid (max. ang.)         AngularGrid ... 1 (Lebedev-50)
Angular grid pruning method      GridPruning ... 4 (adaptive)
Weight generation scheme         WeightScheme... Becke
Basis function cutoff            BFCut       ... 1.0000e-10
Integration weight cutoff        WCut        ... 1.0000e-14
Angular grids for H and He will be reduced by one unit
Partially contracted basis set               ... off
Rotationally invariant grid construction     ... off

Total number of grid points                  ...    31842
Total number of batches                      ...      519
Average number of points per batch           ...       61
Average number of grid points per atom       ...      650

CP-SCF GRIDX
------------

General Integration Accuracy     IntAcc      ... 3.067
Radial Grid Type                 RadialGrid  ... OptM3 with GC (2021)
Angular Grid (max. ang.)         AngularGrid ... 1 (Lebedev-50)
Angular grid pruning method      GridPruning ... 4 (adaptive)
Weight generation scheme         WeightScheme... Becke
Basis function cutoff            BFCut       ... 1.0000e-10
Integration weight cutoff        WCut        ... 1.0000e-14
Angular grids for H and He will be reduced by one unit
Partially contracted basis set               ... on
Rotationally invariant grid construction     ... off

Total number of grid points                  ...    14941
Total number of batches                      ...      262
Average number of points per batch           ...       57
Average number of grid points per atom       ...      305

Memory available               ... 849.5 MB
Memory needed per perturbation ...  20.0 MB
Perturbations treated per batch... 3
Number of batches              ... 1
     CP-SCF ITERATION   0:   4.6172e-02 (   2.3 sec   0/  3 done)
     CP-SCF ITERATION   1:   2.1395e-03 (   2.2 sec   0/  3 done)
     CP-SCF ITERATION   2:   4.1925e-04 (   2.3 sec   3/  3 done)
                    *** THE CP-SCF HAS CONVERGED ***

Forming final perturbed densities           ... done
Transforming perturbed density to AO basis  ... done

 Raw HFC matrix (all values in MHz): 
 -----------------------------------
                -3.3577               0.7678               0.0019
                 0.7676              -1.8924               0.0039
                 0.0019               0.0039              -3.5653

 A(FC)          -2.9390              -2.9390              -2.9390
 A(SD)           1.3749              -0.6262              -0.7487
 A(ORB+DIA)      0.0002              -0.0001               0.0014    A(PC) =   0.0005
 A(ORB)         -0.0001               0.0000               0.0013    A(PC) =   0.0004
 A(DIA)          0.0003              -0.0001               0.0001    A(PC) =   0.0001
             ----------           ----------           ----------
 A(Tot)         -1.5639              -3.5653              -3.6863    A(iso)=   -2.9385
 Orientation: 
  X           0.3934727            0.0010876            0.9193357
  Y           0.9193338           -0.0028079           -0.3934686
  Z           0.0021535            0.9999955           -0.0021047

Notes:  (1) The A matrix conforms to the "SAI" spin Hamiltonian convention.
        (2) Tensor is right-handed.

 -----------------------------------------------------------
 Nucleus  47H : A:ISTP=    1 I=  0.5 P=533.5514 MHz/au**3
                Q:ISTP=    2 I=  1.0 Q=  0.0029 barn     
 -----------------------------------------------------------
 Solving for nuclear perturbation:
Forming RHS of the CP-SCF equations         ... 
Calc. nucleus orbit integrals (SHARK)       ... done

------------------------------------------------------------------------------
                           ORCA CP-SCF CALCULATION
------------------------------------------------------------------------------

Input orbitals are from        ... EPRII_i.gbw
Input Perturbation             ... EPRII_i.pin.tmp
Wavefunction output            ... EPRII_i.pout.tmp
Perturbation mode              ... Imaginary perturbation
Solver                         ... POPLE
Max. number of iterations      ... 64
Convergence tolerance          ... 1.000e-03
Integral handling              ... Direct
DFT GridXC                     ... 1
COSX GridX                     ... 1
COSX IntAccX                   ... 3.067
COSX Algorithm                 ... Auto
Number of perturbations        ... 3
Number of operators            ... 2
Orbital ranges used for CP-SCF:
 Operator 0:  Orbitals   0... 84  to  85...582
 Operator 1:  Orbitals   0... 83  to  84...582
Variables per perturbation     ... 84246
DFT calculation                         ... on
XC functional terms                     ... off
Hybrid DFT                              ... on
   Exchange mixing (SCF)                ...  0.200
   Exchange mixing (CP-SCF)             ...  0.200
   GGA exch. scaling(SCF)               ...  0.720
   GGA exch. scaling (CP-SCF)           ...  0.720
   GGA corr. scaling (SCF)              ...  0.810
   GGA corr. scaling (CP-SCF)           ...  0.810

CP-SCF GRID
-----------

General Integration Accuracy     IntAcc      ... 3.467
Radial Grid Type                 RadialGrid  ... OptM3 with GC (2021)
Angular Grid (max. ang.)         AngularGrid ... 1 (Lebedev-50)
Angular grid pruning method      GridPruning ... 4 (adaptive)
Weight generation scheme         WeightScheme... Becke
Basis function cutoff            BFCut       ... 1.0000e-10
Integration weight cutoff        WCut        ... 1.0000e-14
Angular grids for H and He will be reduced by one unit
Partially contracted basis set               ... off
Rotationally invariant grid construction     ... off

Total number of grid points                  ...    31842
Total number of batches                      ...      519
Average number of points per batch           ...       61
Average number of grid points per atom       ...      650

CP-SCF GRIDX
------------

General Integration Accuracy     IntAcc      ... 3.067
Radial Grid Type                 RadialGrid  ... OptM3 with GC (2021)
Angular Grid (max. ang.)         AngularGrid ... 1 (Lebedev-50)
Angular grid pruning method      GridPruning ... 4 (adaptive)
Weight generation scheme         WeightScheme... Becke
Basis function cutoff            BFCut       ... 1.0000e-10
Integration weight cutoff        WCut        ... 1.0000e-14
Angular grids for H and He will be reduced by one unit
Partially contracted basis set               ... on
Rotationally invariant grid construction     ... off

Total number of grid points                  ...    14941
Total number of batches                      ...      262
Average number of points per batch           ...       57
Average number of grid points per atom       ...      305

Memory available               ... 848.8 MB
Memory needed per perturbation ...  20.0 MB
Perturbations treated per batch... 3
Number of batches              ... 1
     CP-SCF ITERATION   0:   4.6241e-02 (   2.2 sec   0/  3 done)
     CP-SCF ITERATION   1:   2.1353e-03 (   2.2 sec   0/  3 done)
     CP-SCF ITERATION   2:   4.1610e-04 (   2.3 sec   3/  3 done)
                    *** THE CP-SCF HAS CONVERGED ***

Forming final perturbed densities           ... done
Transforming perturbed density to AO basis  ... done

 Raw HFC matrix (all values in MHz): 
 -----------------------------------
                -3.4795              -0.6294              -0.0011
                -0.6294              -1.7657               0.0039
                -0.0011               0.0039              -3.5579

 A(FC)          -2.9349              -2.9349              -2.9349
 A(SD)           1.3753              -0.6229              -0.7524
 A(ORB+DIA)      0.0002              -0.0001               0.0015    A(PC) =   0.0005
 A(ORB)         -0.0001               0.0000               0.0014    A(PC) =   0.0005
 A(DIA)          0.0003              -0.0001               0.0001    A(PC) =   0.0001
             ----------           ----------           ----------
 A(Tot)         -1.5594              -3.5579              -3.6858    A(iso)=   -2.9344
 Orientation: 
  X          -0.3114757            0.0015595            0.9502528
  Y           0.9502519           -0.0016261            0.3114781
  Z           0.0020309            0.9999975           -0.0009754

Notes:  (1) The A matrix conforms to the "SAI" spin Hamiltonian convention.
        (2) Tensor is right-handed.

 -----------------------------------------------------------
 Nucleus  48H : A:ISTP=    1 I=  0.5 P=533.5514 MHz/au**3
                Q:ISTP=    2 I=  1.0 Q=  0.0029 barn     
 -----------------------------------------------------------
 Solving for nuclear perturbation:
Forming RHS of the CP-SCF equations         ... 
Calc. nucleus orbit integrals (SHARK)       ... done

------------------------------------------------------------------------------
                           ORCA CP-SCF CALCULATION
------------------------------------------------------------------------------

Input orbitals are from        ... EPRII_i.gbw
Input Perturbation             ... EPRII_i.pin.tmp
Wavefunction output            ... EPRII_i.pout.tmp
Perturbation mode              ... Imaginary perturbation
Solver                         ... POPLE
Max. number of iterations      ... 64
Convergence tolerance          ... 1.000e-03
Integral handling              ... Direct
DFT GridXC                     ... 1
COSX GridX                     ... 1
COSX IntAccX                   ... 3.067
COSX Algorithm                 ... Auto
Number of perturbations        ... 3
Number of operators            ... 2
Orbital ranges used for CP-SCF:
 Operator 0:  Orbitals   0... 84  to  85...582
 Operator 1:  Orbitals   0... 83  to  84...582
Variables per perturbation     ... 84246
DFT calculation                         ... on
XC functional terms                     ... off
Hybrid DFT                              ... on
   Exchange mixing (SCF)                ...  0.200
   Exchange mixing (CP-SCF)             ...  0.200
   GGA exch. scaling(SCF)               ...  0.720
   GGA exch. scaling (CP-SCF)           ...  0.720
   GGA corr. scaling (SCF)              ...  0.810
   GGA corr. scaling (CP-SCF)           ...  0.810

CP-SCF GRID
-----------

General Integration Accuracy     IntAcc      ... 3.467
Radial Grid Type                 RadialGrid  ... OptM3 with GC (2021)
Angular Grid (max. ang.)         AngularGrid ... 1 (Lebedev-50)
Angular grid pruning method      GridPruning ... 4 (adaptive)
Weight generation scheme         WeightScheme... Becke
Basis function cutoff            BFCut       ... 1.0000e-10
Integration weight cutoff        WCut        ... 1.0000e-14
Angular grids for H and He will be reduced by one unit
Partially contracted basis set               ... off
Rotationally invariant grid construction     ... off

Total number of grid points                  ...    31842
Total number of batches                      ...      519
Average number of points per batch           ...       61
Average number of grid points per atom       ...      650

CP-SCF GRIDX
------------

General Integration Accuracy     IntAcc      ... 3.067
Radial Grid Type                 RadialGrid  ... OptM3 with GC (2021)
Angular Grid (max. ang.)         AngularGrid ... 1 (Lebedev-50)
Angular grid pruning method      GridPruning ... 4 (adaptive)
Weight generation scheme         WeightScheme... Becke
Basis function cutoff            BFCut       ... 1.0000e-10
Integration weight cutoff        WCut        ... 1.0000e-14
Angular grids for H and He will be reduced by one unit
Partially contracted basis set               ... on
Rotationally invariant grid construction     ... off

Total number of grid points                  ...    14941
Total number of batches                      ...      262
Average number of points per batch           ...       57
Average number of grid points per atom       ...      305

Memory available               ... 848.0 MB
Memory needed per perturbation ...  20.0 MB
Perturbations treated per batch... 3
Number of batches              ... 1
     CP-SCF ITERATION   0:   4.1979e-02 (   2.3 sec   0/  3 done)
     CP-SCF ITERATION   1:   1.7594e-03 (   2.3 sec   1/  3 done)
     CP-SCF ITERATION   2:   9.7815e-05 (   1.8 sec   3/  3 done)
                    *** THE CP-SCF HAS CONVERGED ***

Forming final perturbed densities           ... done
Transforming perturbed density to AO basis  ... done

 Raw HFC matrix (all values in MHz): 
 -----------------------------------
                 1.8505               0.2978               0.0010
                 0.2977               1.1595               0.0007
                 0.0010               0.0007               0.8543

 A(FC)           1.2881               1.2881               1.2881
 A(SD)          -0.4338              -0.2394               0.6733
 A(ORB+DIA)      0.0000               0.0002              -0.0003    A(PC) =  -0.0000
 A(ORB)         -0.0000               0.0002              -0.0004    A(PC) =  -0.0001
 A(DIA)          0.0001               0.0000               0.0001    A(PC) =   0.0001
             ----------           ----------           ----------
 A(Tot)          0.8543               1.0489               1.9611    A(iso)=    1.2881
 Orientation: 
  X          -0.0004374           -0.3482318           -0.9374084
  Y          -0.0018225            0.9374072           -0.3482305
  Z           0.9999982            0.0015561           -0.0010447

Notes:  (1) The A matrix conforms to the "SAI" spin Hamiltonian convention.
        (2) Tensor is right-handed.


--------------------------------------------------------------------------------
----------------------------------------------------------------------------
                           ORCA EULER ANGLE PROGRAM
----------------------------------------------------------------------------

Only g-tensor available        -->  using g-tensor as reference tensor

Reference tensor               ...  g

g-tensor ordering              ...  |g_min> --> |gx>
                                    |g_mid> --> |gy>
                                    |g_max> --> |gz>

A- and EFG-tensor ordering     ...  the axes |Ax>, |Qx>, |Ay>, etc. are assigned
                                    such that the Euler rotation is minimal. You
                                    can find the respective eigenvalues as Ax,
                                    EFGx, Ay, etc. in the tables below.
                                    The relation of |Ax>, |Ay>,  etc. to Amin, Amid, etc.
                                    (as printed in the ORCA EPR/NMR CALCULATION Output)
                                    is obtained in the detailed printout.

Euler rotation around          ...  z - y - z
   First rotation              -->  by alpha around z
   Second rotation             -->  by beta around y'
   Third rotation              -->  by gamma around z''
   Positive / Negative angle   -->  clockwise / counterclockwise rotation

Plot EFG-tensors                    (-)
Plot HFC-tensors                    (-)
Detailed Printout                   (-)

-------------------------------------------------------------------------
          Euler rotation of hyperfine tensor to g-tensor
-------------------------------------------------------------------------

-------------------------------------------------------------------
 Atom  |   Alpha    Beta    Gamma   |   Ax       Ay       Az 
       |          [degrees]         |           [MHz]         
-------------------------------------------------------------------
  9H       90.4     38.5    -90.4       2.72     3.59     6.67
 10H       90.9     20.2    -90.9     -10.27    -3.87   -10.89
 12H       59.2     15.5    -42.3      13.05    17.78    14.67
 13H      122.2     15.9   -139.0      13.05    17.78    14.67
 15H       78.6     29.9    -64.1      -0.98     0.85    -0.76
 16H      102.6     30.1   -116.9      -0.98     0.85    -0.76
 18H      133.4      6.9   -142.8      -0.38     0.87    -0.29
 19H       50.6      6.4    -41.2      -0.38     0.87    -0.29
 21H       92.2     17.6   -100.0      -0.17     0.39    -0.11
 22H       89.9     17.5    -82.0      -0.17     0.39    -0.11
 24H      -98.2     25.9    113.6      -5.14    -3.49    -4.40
 25H      -83.1     25.6     67.7      -5.14    -3.49    -4.39
 27H      -82.4     24.5     69.9      -0.14     1.50     0.06
 28H      -99.0     24.8    111.5      -0.14     1.51     0.06
 30H      -96.0     26.8    105.7      -0.32     0.28    -0.16
 31H      -85.3     26.6     75.5      -0.32     0.28    -0.16
 33H      -92.0     13.9     99.5      -0.21     0.32    -0.14
 34H      -90.7     13.8     83.1      -0.21     0.32    -0.14
 36H       92.4      8.2    -92.4      -0.18     0.29    -0.14
 37H      -91.0     17.8     91.0      -0.14     0.21    -0.09
 44H      167.4      0.3   -167.4      -3.45    -5.21    -1.27
 45H      -90.8     22.5     90.7       0.85     1.05     1.95
 46H      -91.1     20.9     91.0      -3.57    -1.56    -3.69
 47H       91.2     20.5    -91.1      -3.56    -1.56    -3.69
 48H       90.8     22.7    -90.7       0.85     1.05     1.96
-------------------------------------------------------------------


Maximum memory used throughout the entire EPRNMR-calculation: 284.1 MB

Timings for individual modules:

Sum of individual times         ...     5497.045 sec (=  91.617 min)
GTO integral calculation        ...        5.909 sec (=   0.098 min)   0.1 %
Spin-Orbit-Coupling Matrices    ...       14.914 sec (=   0.249 min)   0.3 %
SCF iterations                  ...       37.497 sec (=   0.625 min)   0.7 %
EPR/NMR calculation             ...     5438.725 sec (=  90.645 min)  98.9 %
                             ****ORCA TERMINATED NORMALLY****
TOTAL RUN TIME: 0 days 1 hours 31 minutes 41 seconds 230 msec
