
                                 *****************
                                 * O   R   C   A *
                                 *****************

                                            #,                                       
                                            ###                                      
                                            ####                                     
                                            #####                                    
                                            ######                                   
                                           ########,                                 
                                     ,,################,,,,,                         
                               ,,#################################,,                 
                          ,,##########################################,,             
                       ,#########################################, ''#####,          
                    ,#############################################,,   '####,        
                  ,##################################################,,,,####,       
                ,###########''''           ''''###############################       
              ,#####''   ,,,,##########,,,,          '''####'''          '####       
            ,##' ,,,,###########################,,,                        '##       
           ' ,,###''''                  '''############,,,                           
         ,,##''                                '''############,,,,        ,,,,,,###''
      ,#''                                            '''#######################'''  
     '                                                          ''''####''''         
             ,#######,   #######,   ,#######,      ##                                
            ,#'     '#,  ##    ##  ,#'     '#,    #''#        ######   ,####,        
            ##       ##  ##   ,#'  ##            #'  '#       #        #'  '#        
            ##       ##  #######   ##           ,######,      #####,   #    #        
            '#,     ,#'  ##    ##  '#,     ,#' ,#      #,         ##   #,  ,#        
             '#######'   ##     ##  '#######'  #'      '#     #####' # '####'        



                  #######################################################
                  #                        -***-                        #
                  #          Department of theory and spectroscopy      #
                  #    Directorship and core code : Frank Neese         #
                  #        Max Planck Institute fuer Kohlenforschung    #
                  #                Kaiser Wilhelm Platz 1               #
                  #                 D-45470 Muelheim/Ruhr               #
                  #                      Germany                        #
                  #                                                     #
                  #                  All rights reserved                #
                  #                        -***-                        #
                  #######################################################


                         Program Version 5.0.4 -  RELEASE  -


 With contributions from (in alphabetic order):
   Daniel Aravena         : Magnetic Suceptibility
   Michael Atanasov       : Ab Initio Ligand Field Theory (pilot matlab implementation)
   Alexander A. Auer      : GIAO ZORA, VPT2 properties, NMR spectrum
   Ute Becker             : Parallelization
   Giovanni Bistoni       : ED, misc. LED, open-shell LED, HFLD
   Martin Brehm           : Molecular dynamics
   Dmytro Bykov           : SCF Hessian
   Vijay G. Chilkuri      : MRCI spin determinant printing, contributions to CSF-ICE
   Dipayan Datta          : RHF DLPNO-CCSD density
   Achintya Kumar Dutta   : EOM-CC, STEOM-CC
   Dmitry Ganyushin       : Spin-Orbit,Spin-Spin,Magnetic field MRCI
   Miquel Garcia          : C-PCM and meta-GGA Hessian, CC/C-PCM, Gaussian charge scheme
   Yang Guo               : DLPNO-NEVPT2, F12-NEVPT2, CIM, IAO-localization
   Andreas Hansen         : Spin unrestricted coupled pair/coupled cluster methods
   Benjamin Helmich-Paris : MC-RPA, TRAH-SCF, COSX integrals
   Lee Huntington         : MR-EOM, pCC
   Robert Izsak           : Overlap fitted RIJCOSX, COSX-SCS-MP3, EOM
   Marcus Kettner         : VPT2
   Christian Kollmar      : KDIIS, OOCD, Brueckner-CCSD(T), CCSD density, CASPT2, CASPT2-K
   Simone Kossmann        : Meta GGA functionals, TD-DFT gradient, OOMP2, MP2 Hessian
   Martin Krupicka        : Initial AUTO-CI
   Lucas Lang             : DCDCAS
   Marvin Lechner         : AUTO-CI (C++ implementation), FIC-MRCC
   Dagmar Lenk            : GEPOL surface, SMD
   Dimitrios Liakos       : Extrapolation schemes; Compound Job, initial MDCI parallelization
   Dimitrios Manganas     : Further ROCIS development; embedding schemes
   Dimitrios Pantazis     : SARC Basis sets
   Anastasios Papadopoulos: AUTO-CI, single reference methods and gradients
   Taras Petrenko         : DFT Hessian,TD-DFT gradient, ASA, ECA, R-Raman, ABS, FL, XAS/XES, NRVS
   Peter Pinski           : DLPNO-MP2, DLPNO-MP2 Gradient
   Christoph Reimann      : Effective Core Potentials
   Marius Retegan         : Local ZFS, SOC
   Christoph Riplinger    : Optimizer, TS searches, QM/MM, DLPNO-CCSD(T), (RO)-DLPNO pert. Triples
   Tobias Risthaus        : Range-separated hybrids, TD-DFT gradient, RPA, STAB
   Michael Roemelt        : Original ROCIS implementation
   Masaaki Saitow         : Open-shell DLPNO-CCSD energy and density
   Barbara Sandhoefer     : DKH picture change effects
   Avijit Sen             : IP-ROCIS
   Kantharuban Sivalingam : CASSCF convergence, NEVPT2, FIC-MRCI
   Bernardo de Souza      : ESD, SOC TD-DFT
   Georgi Stoychev        : AutoAux, RI-MP2 NMR, DLPNO-MP2 response
   Willem Van den Heuvel  : Paramagnetic NMR
   Boris Wezisla          : Elementary symmetry handling
   Frank Wennmohs         : Technical directorship


 We gratefully acknowledge several colleagues who have allowed us to
 interface, adapt or use parts of their codes:
   Stefan Grimme, W. Hujo, H. Kruse, P. Pracht,  : VdW corrections, initial TS optimization,
                  C. Bannwarth, S. Ehlert          DFT functionals, gCP, sTDA/sTD-DF
   Ed Valeev, F. Pavosevic, A. Kumar             : LibInt (2-el integral package), F12 methods
   Garnet Chan, S. Sharma, J. Yang, R. Olivares  : DMRG
   Ulf Ekstrom                                   : XCFun DFT Library
   Mihaly Kallay                                 : mrcc  (arbitrary order and MRCC methods)
   Jiri Pittner, Ondrej Demel                    : Mk-CCSD
   Frank Weinhold                                : gennbo (NPA and NBO analysis)
   Christopher J. Cramer and Donald G. Truhlar   : smd solvation model
   Lars Goerigk                                  : TD-DFT with DH, B97 family of functionals
   V. Asgeirsson, H. Jonsson                     : NEB implementation
   FAccTs GmbH                                   : IRC, NEB, NEB-TS, DLPNO-Multilevel, CI-OPT
                                                   MM, QMMM, 2- and 3-layer-ONIOM, Crystal-QMMM,
                                                   LR-CPCM, SF, NACMEs, symmetry and pop. for TD-DFT,
                                                   nearIR, NL-DFT gradient (VV10), updates on ESD,
                                                   ML-optimized integration grids
   S Lehtola, MJT Oliveira, MAL Marques          : LibXC Library
   Liviu Ungur et al                             : ANISO software


 Your calculation uses the libint2 library for the computation of 2-el integrals
 For citations please refer to: http://libint.valeyev.net

 Your ORCA version has been built with support for libXC version: 5.1.0
 For citations please refer to: https://tddft.org/programs/libxc/

 This ORCA versions uses:
   CBLAS   interface :  Fast vector & matrix operations
   LAPACKE interface :  Fast linear algebra routines
   SCALAPACK package :  Parallel linear algebra routines
   Shared memory     :  Shared parallel matrices
   BLAS/LAPACK       :  OpenBLAS 0.3.15  USE64BITINT DYNAMIC_ARCH NO_AFFINITY SkylakeX SINGLE_THREADED
        Core in use  :  SkylakeX
   Copyright (c) 2011-2014, The OpenBLAS Project




***************************************
The coordinates will be read from file: opt.xyz
***************************************


================================================================================

----- Orbital basis set information -----
Your calculation utilizes the basis: cc-pVDZ 
       H, B-Ne : Obtained from the ccRepo (grant-hill.group.shef.ac.uk/ccrepo) Feb. 2017
                 T. H. Dunning, Jr., J. Chem. Phys. 90, 1007 (1989)
            He : Obtained from the ccRepo (grant-hill.group.shef.ac.uk/ccrepo) Feb. 2017
                 D. E. Woon, T. H. Dunning, Jr., J. Chem. Phys. 100, 2975 (1994)
  Li-Be, Na-Mg : Obtained from the ccRepo (grant-hill.group.shef.ac.uk/ccrepo) Feb. 2017
                 B. P. Prascher, D. E. Woon, K. A. Peterson, T. H. Dunning, Jr., A. K. Wilson, Theor. Chem. Acc. 128, 69 (2011)
         Al-Ar : Obtained from the ccRepo (grant-hill.group.shef.ac.uk/ccrepo) Feb. 2017
                 D. E. Woon, T. H. Dunning, Jr., J. Chem. Phys. 98, 1358 (1993)
            Ca : Obtained from the Peterson Research Group Website (tyr0.chem.wsu.edu/~kipeters) Feb. 2017
                 J. Koput, K. A. Peterson, J. Phys. Chem. 106, 9595 (2002)
         Sc-Zn : Obtained from the ccRepo (grant-hill.group.shef.ac.uk/ccrepo) Feb. 2017
                 N. B. Balabanov, K. A. Peterson, J. Chem. Phys. 123, 064107 (2005)
                 N. B. Balabanov, K. A. Peterson, J. Chem. Phys. 125, 074110 (2006)
         Ga-Kr : Obtained from the ccRepo (grant-hill.group.shef.ac.uk/ccrepo) Feb. 2017
                 A. K. Wilson, D. E. Woon, K. A. Peterson, T. H. Dunning, Jr., J. Chem. Phys. 110, 7667 (1999)

----- AuxJ basis set information -----
Your calculation utilizes the AutoAux generation procedure.
  G. L. Stoychev, A. A. Auer, F. Neese, J. Chem. Theory Comput. 13, 554 (2017)

----- AuxC basis set information -----
Your calculation utilizes the AutoAux generation procedure.
  G. L. Stoychev, A. A. Auer, F. Neese, J. Chem. Theory Comput. 13, 554 (2017)

----- AuxJK basis set information -----
Your calculation utilizes the AutoAux generation procedure.
  G. L. Stoychev, A. A. Auer, F. Neese, J. Chem. Theory Comput. 13, 554 (2017)

================================================================================
                                        WARNINGS
                       Please study these warnings very carefully!
================================================================================


INFO   : the flag for use of the SHARK integral package has been found!

================================================================================
                                       INPUT FILE
================================================================================
NAME = cc-pVDZ_i.inp
|  1> ! B3LYP cc-pVDZ AUTOAUX
|  2> %pal nprocs 16 end
|  3> *XYZFile 0 1 opt.xyz
|  4> %EPRNMR
|  5>         GTENSOR   TRUE
|  6>         NUCLEI    = ALL H {SHIFT, AISO, ADIP, AORB}
|  7>         ORI       GIAO
|  8> END
|  9> 
| 10>                          ****END OF INPUT****
================================================================================

                       ****************************
                       * Single Point Calculation *
                       ****************************

---------------------------------
CARTESIAN COORDINATES (ANGSTROEM)
---------------------------------
  C      5.589420    0.070494    0.000323
  C      1.354301   -0.004021    0.001196
  C      2.077945   -1.227820    0.007689
  C      3.469512   -1.152791    0.007131
  C      4.163016    0.077262    0.000380
  C      3.439788    1.301059   -0.006152
  C      2.048304    1.226133   -0.005582
  H      4.064131   -2.066154    0.011995
  H      1.453927    2.139663   -0.010423
  C      1.327068   -2.545299    0.015085
  H      0.649770   -2.560445   -0.858829
  H      0.651130   -2.551360    0.890169
  C      2.169133   -3.823744    0.021064
  H      2.832052   -3.841510   -0.863622
  H      2.833574   -3.832344    0.904737
  C      1.310358   -5.094424    0.028430
  H      0.644664   -5.078197    0.911385
  H      0.642923   -5.087221   -0.853327
  C      2.138719   -6.381672    0.034221
  H      2.790992   -6.434047    0.923079
  H      2.788685   -6.443530   -0.855716
  C      4.190583    2.618750   -0.013465
  H      4.867852    2.634114    0.860458
  H      4.866392    2.625255   -0.888634
  C      3.347619    3.896623   -0.019206
  H      2.683120    3.904644   -0.902840
  H      2.684763    3.913549    0.865542
  C      4.204462    5.168565   -0.026450
  H      4.871909    5.162381    0.855303
  H      4.869955    5.153678   -0.909575
  C      3.373807    6.454377   -0.031892
  H      2.723860    6.514952    0.858165
  H      2.721293    6.505760   -0.920647
  C      6.812027    0.055992   -0.001076
  H      1.495387   -7.276532    0.039834
  H      4.015531    7.350393   -0.037454
  C      8.239600    0.035628   -0.001211
  C      8.941501   -1.189921    0.003875
  C     10.335909   -1.205056    0.003839
  C     11.056317   -0.005132   -0.001284
  C     10.370981    1.215245   -0.006398
  C      8.976796    1.240323   -0.006394
  H     12.148719   -0.021001   -0.001290
  H     10.927851    2.155405   -0.010410
  H      8.377633   -2.124631    0.007864
  H      8.440408    2.191098   -0.010356
  H     10.865375   -2.160908    0.007840
  C     -0.071356    0.002038    0.001357
  C     -1.295231    0.012179    0.004436
  C     -6.956006   -0.056313    0.004008
  C     -2.720887    0.018228    0.004234
  C     -3.444538    1.242028   -0.001212
  C     -4.836104    1.166992   -0.000988
  C     -5.529601   -0.063073    0.004316
  C     -4.806365   -1.286870    0.009784
  C     -3.414882   -1.211937    0.009590
  H     -5.430729    2.080355   -0.005034
  H     -2.820499   -2.125468    0.013613
  C     -2.693666    2.559518   -0.007117
  H     -2.017607    2.566502   -0.882100
  H     -2.016489    2.573745    0.866906
  C     -3.535735    3.837965   -0.011861
  H     -4.200060    3.847496   -0.895612
  H     -4.198772    3.854792    0.872756
  C     -2.676964    5.108655   -0.017780
  H     -2.009586    5.100490    0.864012
  H     -2.011214    5.093396   -0.900709
  C     -3.505330    6.395906   -0.022218
  H     -4.155308    6.456818    0.867775
  H     -4.157591    6.449220   -0.911029
  C     -5.557159   -2.604571    0.015546
  H     -6.233055   -2.612075    0.890639
  H     -6.234338   -2.618941   -0.858464
  C     -4.714192   -3.882447    0.019923
  H     -4.051222   -3.898343   -0.864759
  H     -4.049807   -3.891493    0.903632
  C     -5.571032   -5.154399    0.025593
  H     -6.236578   -5.140572    0.908696
  H     -6.238426   -5.147162   -0.856192
  C     -4.740375   -6.440215    0.029548
  H     -4.087859   -6.492622    0.918242
  H     -4.090428   -6.499763   -0.860579
  C     -8.178610   -0.041628    0.002350
  H     -2.862001    7.290773   -0.026876
  H     -5.382096   -7.336239    0.034081
  C     -9.606184   -0.021301    0.001711
  C    -10.308126    1.204228   -0.002091
  C    -11.702534    1.219316   -0.002679
  C    -12.422902    0.019362    0.000481
  C    -11.737525   -1.200999    0.004243
  C    -10.343340   -1.226029    0.004847
  H    -13.515305    0.035192    0.000002
  H    -12.294362   -2.141183    0.006710
  H     -9.744292    2.138965   -0.004547
  H     -9.806920   -2.176790    0.007751
  H    -12.232030    2.175155   -0.005632

----------------------------
CARTESIAN COORDINATES (A.U.)
----------------------------
  NO LB      ZA    FRAG     MASS         X           Y           Z
   0 C     6.0000    0    12.011   10.562474    0.133215    0.000611
   1 C     6.0000    0    12.011    2.559259   -0.007598    0.002260
   2 C     6.0000    0    12.011    3.926748   -2.320244    0.014531
   3 C     6.0000    0    12.011    6.556427   -2.178460    0.013475
   4 C     6.0000    0    12.011    7.866960    0.146004    0.000718
   5 C     6.0000    0    12.011    6.500257    2.458646   -0.011625
   6 C     6.0000    0    12.011    3.870734    2.317056   -0.010548
   7 H     1.0000    0     1.008    7.680094   -3.904466    0.022668
   8 H     1.0000    0     1.008    2.747523    4.043378   -0.019696
   9 C     6.0000    0    12.011    2.507795   -4.809918    0.028507
  10 H     1.0000    0     1.008    1.227888   -4.838539   -1.622951
  11 H     1.0000    0     1.008    1.230458   -4.821371    1.682175
  12 C     6.0000    0    12.011    4.099068   -7.225829    0.039805
  13 H     1.0000    0     1.008    5.351803   -7.259401   -1.632009
  14 H     1.0000    0     1.008    5.354680   -7.242080    1.709705
  15 C     6.0000    0    12.011    2.476217   -9.627066    0.053726
  16 H     1.0000    0     1.008    1.218238   -9.596401    1.722269
  17 H     1.0000    0     1.008    1.214949   -9.613454   -1.612554
  18 C     6.0000    0    12.011    4.041593  -12.059612    0.064669
  19 H     1.0000    0     1.008    5.274210  -12.158587    1.744366
  20 H     1.0000    0     1.008    5.269851  -12.176506   -1.617070
  21 C     6.0000    0    12.011    7.919055    4.948721   -0.025445
  22 H     1.0000    0     1.008    9.198906    4.977755    1.626031
  23 H     1.0000    0     1.008    9.196147    4.961013   -1.679274
  24 C     6.0000    0    12.011    6.326083    7.363550   -0.036295
  25 H     1.0000    0     1.008    5.070363    7.378707   -1.706121
  26 H     1.0000    0     1.008    5.073466    7.395537    1.635637
  27 C     6.0000    0    12.011    7.945281    9.767172   -0.049983
  28 H     1.0000    0     1.008    9.206573    9.755487    1.616288
  29 H     1.0000    0     1.008    9.202881    9.739041   -1.718848
  30 C     6.0000    0    12.011    6.375572   12.197005   -0.060266
  31 H     1.0000    0     1.008    5.147349   12.311475    1.621697
  32 H     1.0000    0     1.008    5.142499   12.294105   -1.739770
  33 C     6.0000    0    12.011   12.872865    0.105809   -0.002033
  34 H     1.0000    0     1.008    2.825872  -13.750652    0.075274
  35 H     1.0000    0     1.008    7.588253   13.890230   -0.070779
  36 C     6.0000    0    12.011   15.570588    0.067327   -0.002289
  37 C     6.0000    0    12.011   16.896989   -2.248624    0.007324
  38 C     6.0000    0    12.011   19.532037   -2.277226    0.007255
  39 C     6.0000    0    12.011   20.893411   -0.009699   -0.002426
  40 C     6.0000    0    12.011   19.598314    2.296481   -0.012091
  41 C     6.0000    0    12.011   16.963686    2.343870   -0.012082
  42 H     1.0000    0     1.008   22.957752   -0.039686   -0.002438
  43 H     1.0000    0     1.008   20.650646    4.073125   -0.019672
  44 H     1.0000    0     1.008   15.831432   -4.014971    0.014861
  45 H     1.0000    0     1.008   15.950059    4.140576   -0.019570
  46 H     1.0000    0     1.008   20.532584   -4.083525    0.014816
  47 C     6.0000    0    12.011   -0.134843    0.003851    0.002565
  48 C     6.0000    0    12.011   -2.447631    0.023015    0.008382
  49 C     6.0000    0    12.011  -13.144946   -0.106416    0.007575
  50 C     6.0000    0    12.011   -5.141731    0.034446    0.008001
  51 C     6.0000    0    12.011   -6.509234    2.347093   -0.002291
  52 C     6.0000    0    12.011   -9.138913    2.205295   -0.001868
  53 C     6.0000    0    12.011  -10.449432   -0.119191    0.008157
  54 C     6.0000    0    12.011   -9.082714   -2.431832    0.018489
  55 C     6.0000    0    12.011   -6.453192   -2.290229    0.018122
  56 H     1.0000    0     1.008  -10.262591    3.931301   -0.009513
  57 H     1.0000    0     1.008   -5.329971   -4.016552    0.025724
  58 C     6.0000    0    12.011   -5.090291    4.836787   -0.013450
  59 H     1.0000    0     1.008   -3.812725    4.849986   -1.666927
  60 H     1.0000    0     1.008   -3.810612    4.863673    1.638215
  61 C     6.0000    0    12.011   -6.681572    7.252702   -0.022414
  62 H     1.0000    0     1.008   -7.936962    7.270714   -1.692461
  63 H     1.0000    0     1.008   -7.934528    7.284501    1.649270
  64 C     6.0000    0    12.011   -5.058729    9.653959   -0.033599
  65 H     1.0000    0     1.008   -3.797567    9.638528    1.632746
  66 H     1.0000    0     1.008   -3.800644    9.625124   -1.702094
  67 C     6.0000    0    12.011   -6.624113   12.086510   -0.041986
  68 H     1.0000    0     1.008   -7.852394   12.201619    1.639858
  69 H     1.0000    0     1.008   -7.856708   12.187260   -1.721595
  70 C     6.0000    0    12.011  -10.501508   -4.921926    0.029377
  71 H     1.0000    0     1.008  -11.778767   -4.936105    1.683063
  72 H     1.0000    0     1.008  -11.781191   -4.949082   -1.622261
  73 C     6.0000    0    12.011   -8.908532   -7.336762    0.037650
  74 H     1.0000    0     1.008   -7.655699   -7.366801   -1.634158
  75 H     1.0000    0     1.008   -7.653027   -7.353856    1.707617
  76 C     6.0000    0    12.011  -10.527724   -9.740403    0.048364
  77 H     1.0000    0     1.008  -11.785424   -9.714273    1.717186
  78 H     1.0000    0     1.008  -11.788916   -9.726727   -1.617968
  79 C     6.0000    0    12.011   -8.958010  -12.170244    0.055838
  80 H     1.0000    0     1.008   -7.724933  -12.269277    1.735226
  81 H     1.0000    0     1.008   -7.729789  -12.282772   -1.626259
  82 C     6.0000    0    12.011  -15.455333   -0.078665    0.004441
  83 H     1.0000    0     1.008   -5.408398   13.777565   -0.050788
  84 H     1.0000    0     1.008  -10.170687  -13.863482    0.064403
  85 C     6.0000    0    12.011  -18.153056   -0.040253    0.003233
  86 C     6.0000    0    12.011  -19.479535    2.275662   -0.003951
  87 C     6.0000    0    12.011  -22.114584    2.304174   -0.005062
  88 C     6.0000    0    12.011  -23.475883    0.036589    0.000909
  89 C     6.0000    0    12.011  -22.180708   -2.269558    0.008018
  90 C     6.0000    0    12.011  -19.546080   -2.316858    0.009159
  91 H     1.0000    0     1.008  -25.540225    0.066504    0.000004
  92 H     1.0000    0     1.008  -23.232977   -4.046250    0.012681
  93 H     1.0000    0     1.008  -18.414044    4.042058   -0.008592
  94 H     1.0000    0     1.008  -18.532394   -4.113538    0.014647
  95 H     1.0000    0     1.008  -23.115187    4.110448   -0.010643

--------------------------------
INTERNAL COORDINATES (ANGSTROEM)
--------------------------------
 C      0   0   0     0.000000000000     0.00000000     0.00000000
 C      1   0   0     4.235774461560     0.00000000     0.00000000
 C      2   1   0     1.421755120740    60.41217576     0.00000000
 C      3   2   1     1.393587551674   117.50956641     0.00000000
 C      4   3   2     1.412099649612   122.50023882     0.00000000
 C      5   4   3     1.421541931816   120.00457637     0.00000000
 C      6   5   4     1.393499680456   117.49920231     0.00000000
 H      4   3   2     1.089875024763   119.97834724   179.99851243
 H      7   6   5     1.089883380879   119.96690327   179.99830245
 C      3   2   1     1.516450531693   119.72419730   179.98978475
 H     10   3   2     1.105751861555   108.13990945    56.29508436
 H     10   3   2     1.105757406009   108.13784564   303.63801724
 C     10   3   2     1.530859764951   116.94888792   179.96718349
 H     13  10   3     1.105643203225   109.88280882   301.73755950
 H     13  10   3     1.105637306309   109.88783402    58.25144954
 C     13  10   3     1.533680658623   112.57688647   179.99472217
 H     16  13  10     1.105902782795   109.19195702   302.33657715
 H     16  13  10     1.105900734312   109.19064166    57.64227202
 C     16  13  10     1.530759150822   113.18647355   179.98999609
 H     19  16  13     1.103753301567   111.26879102    59.82735545
 H     19  16  13     1.103753153567   111.26860733   300.13013687
 C      6   5   4     1.516593769647   119.74521863   180.00350743
 H     22   6   5     1.105744222991   108.14853550   303.70448701
 H     22   6   5     1.105748198987   108.14926115    56.38190948
 C     22   6   5     1.530875569165   116.91559750   180.04460610
 H     25  22   6     1.105636150552   109.87653785   301.75190084
 H     25  22   6     1.105642049249   109.87078259    58.25462090
 C     25  22   6     1.533645686376   112.62316949   180.00284550
 H     28  25  22     1.105898217999   109.19531090   302.35049678
 H     28  25  22     1.105899139151   109.19672722    57.67877228
 C     28  25  22     1.530793906918   113.17138410   180.01429636
 H     31  28  25     1.103767380760   111.26951423    59.87160310
 H     31  28  25     1.103766651204   111.26926716   300.17418861
 C      1   2   3     1.222693445705   178.31154325     2.13224841
 H     19  16  13     1.102125805520   111.52584266   179.97838259
 H     31  28  25     1.102127120981   111.52748860   180.02335717
 C     34   1   5     1.427718623901   179.84981137   327.58153261
 C     37  34   1     1.412324324283   120.61779806    23.35564581
 C     38  37  34     1.394489519971   120.42246959   180.00554034
 C     39  38  37     1.399582671940   120.35757264     0.00000000
 C     40  39  38     1.399654467860   119.70320006     0.00000000
 C     41  40  39     1.394410783875   120.34780826     0.00000000
 H     40  39  38     1.092517467070   120.14722618   179.99968723
 H     41  40  39     1.092712738376   120.04402041   179.99990104
 H     38  37  34     1.091625688337   119.09896884     0.00000000
 H     42  41  40     1.091651386039   120.46013372   179.99865664
 H     39  38  37     1.092704750493   119.60466993   179.99804418
 C      2   1   3     1.425670249023   178.74851693   179.93624312
 C     48   2   7     1.223920521947   179.73088521   328.93200051
 C     49  48   2     5.661189472048   178.82264895   203.51494362
 C     49  48   2     1.425669417015   179.72283049   177.44904327
 C     51  49  48     1.421754896657   120.83935489   213.55841612
 C     52  51  49     1.393587523851   117.50967944   180.00307707
 C     53  52  51     1.412099732048   122.50012689     0.00000000
 C     54  53  52     1.421541147100   120.00455807     0.00000000
 C     55  54  53     1.393499421592   117.49937262     0.00000000
 H     53  52  51     1.089874959879   119.97844818   179.99859733
 H     56  55  54     1.089883269394   119.96705535   180.00388074
 C     52  51  49     1.516450839563   119.72406552     0.00000000
 H     59  52  51     1.105757062001   108.13781986    56.36850737
 H     59  52  51     1.105752277408   108.13987011   303.71151265
 C     59  52  51     1.530859512575   116.94891357   180.03962500
 H     62  59  52     1.105637232635   109.88799622   301.74860638
 H     62  59  52     1.105643179400   109.88263059    58.26249113
 C     62  59  52     1.533680762527   112.57688762   180.00563645
 H     65  62  59     1.105900711449   109.19069748   302.36223180
 H     65  62  59     1.105902873268   109.19187175    57.66791910
 C     65  62  59     1.530759018424   113.18648332   180.01430550
 H     68  65  62     1.103753098393   111.26860250    59.87351068
 H     68  65  62     1.103753315901   111.26879330   300.17628964
 C     55  54  53     1.516594518549   119.74495869   179.99651763
 H     71  55  54     1.105748505163   108.15004580   303.60682481
 H     71  55  54     1.105744181955   108.14773253    56.28436086
 C     71  55  54     1.530875678385   116.91561211   179.94382479
 H     74  71  55     1.105642524012   109.87030025   301.74830200
 H     74  71  55     1.105635649575   109.87692937    58.25094727
 C     74  71  55     1.533645582470   112.62322115   179.99975097
 H     77  74  71     1.105899059559   109.19672241   302.31655599
 H     77  74  71     1.105898353179   109.19530153    57.64482259
 C     77  74  71     1.530793904895   113.17141106   179.98113453
 H     80  77  74     1.103766405461   111.26918468    59.82142830
 H     80  77  74     1.103767566051   111.26960121   300.12401996
 C     50  49  48     1.222693601906   178.61666336   190.28376396
 H     68  65  62     1.102125904415   111.52584752   180.02535278
 H     80  77  74     1.102127101432   111.52749569   179.97212874
 C     83  50  54     1.427718484952   179.86221450   328.90344040
 C     86  83  50     1.412324029007   120.61836152    22.34989728
 C     87  86  83     1.394489879209   120.42252743   180.00112427
 C     88  87  86     1.399582487793   120.35756948     0.00000000
 C     89  88  87     1.399655566563   119.70316708     0.00000000
 C     90  89  88     1.394410169570   120.34786331     0.00000000
 H     89  88  87     1.092517334740   120.14727351   180.00041625
 H     90  89  88     1.092712707945   120.04412583   180.00064995
 H     87  86  83     1.091625911655   119.09917023     0.00000000
 H     91  90  89     1.091651182380   120.46016784   180.00167982
 H     88  87  86     1.092704579450   119.60457565   179.99971469

---------------------------
INTERNAL COORDINATES (A.U.)
---------------------------
 C      0   0   0     0.000000000000     0.00000000     0.00000000
 C      1   0   0     8.004453697407     0.00000000     0.00000000
 C      2   1   0     2.686727807698    60.41217576     0.00000000
 C      3   2   1     2.633498816306   117.50956641     0.00000000
 C      4   3   2     2.668481611573   122.50023882     0.00000000
 C      5   4   3     2.686324939018   120.00457637     0.00000000
 C      6   5   4     2.633332763769   117.49920231     0.00000000
 H      4   3   2     2.059565317003   119.97834724   179.99851243
 H      7   6   5     2.059581107773   119.96690327   179.99830245
 C      3   2   1     2.865676200539   119.72419730   179.98978475
 H     10   3   2     2.089568190413   108.13990945    56.29508436
 H     10   3   2     2.089578667912   108.13784564   303.63801724
 C     10   3   2     2.892905705196   116.94888792   179.96718349
 H     13  10   3     2.089362855927   109.88280882   301.73755950
 H     13  10   3     2.089351712370   109.88783402    58.25144954
 C     13  10   3     2.898236421690   112.57688647   179.99472217
 H     16  13  10     2.089853390223   109.19195702   302.33657715
 H     16  13  10     2.089849519153   109.19064166    57.64227202
 C     16  13  10     2.892715572047   113.18647355   179.98999609
 H     19  16  13     2.085791459372   111.26879102    59.82735545
 H     19  16  13     2.085791179694   111.26860733   300.13013687
 C      6   5   4     2.865946881044   119.74521863   180.00350743
 H     22   6   5     2.089553755618   108.14853550   303.70448701
 H     22   6   5     2.089561269162   108.14926115    56.38190948
 C     22   6   5     2.892935570832   116.91559750   180.04460610
 H     25  22   6     2.089349528306   109.87653785   301.75190084
 H     25  22   6     2.089360675229   109.87078259    58.25462090
 C     25  22   6     2.898170333720   112.62316949   180.00284550
 H     28  25  22     2.089844764010   109.19531090   302.35049678
 H     28  25  22     2.089846504735   109.19672722    57.67877228
 C     28  25  22     2.892781251551   113.17138410   180.01429636
 H     31  28  25     2.085818065192   111.26951423    59.87160310
 H     31  28  25     2.085816686531   111.26926716   300.17418861
 C      1   2   3     2.310555758123   178.31154325     2.13224841
 H     19  16  13     2.082715937560   111.52584266   179.97838259
 H     31  28  25     2.082718423421   111.52748860   180.02335717
 C     34   1   5     2.697997195471   179.84981137   327.58153261
 C     37  34   1     2.668906185171   120.61779806    23.35564581
 C     38  37  34     2.635203289368   120.42246959   180.00554034
 C     39  38  37     2.644827951748   120.35757264     0.00000000
 C     40  39  38     2.644963626375   119.70320006     0.00000000
 C     41  40  39     2.635054499710   120.34780826     0.00000000
 H     40  39  38     2.064558809287   120.14722618   179.99968723
 H     41  40  39     2.064927818578   120.04402041   179.99990104
 H     38  37  34     2.062873591710   119.09896884     0.00000000
 H     42  41  40     2.062922153329   120.46013372   179.99865664
 H     39  38  37     2.064912723666   119.60466993   179.99804418
 C      2   1   3     2.694126327932   178.74851693   179.93624312
 C     48   2   7     2.312874596166   179.73088521   328.93200051
 C     49  48   2    10.698097694408   178.82264895   203.51494362
 C     49  48   2     2.694124755666   179.72283049   177.44904327
 C     51  49  48     2.686727384243   120.83935489   213.55841612
 C     52  51  49     2.633498763727   117.50967944   180.00307707
 C     53  52  51     2.668481767355   122.50012689     0.00000000
 C     54  53  52     2.686323456119   120.00455807     0.00000000
 C     55  54  53     2.633332274586   117.49937262     0.00000000
 H     53  52  51     2.059565194389   119.97844818   179.99859733
 H     56  55  54     2.059580897098   119.96705535   180.00388074
 C     52  51  49     2.865676782329   119.72406552     0.00000000
 H     59  52  51     2.089578017832   108.13781986    56.36850737
 H     59  52  51     2.089568976261   108.13987011   303.71151265
 C     59  52  51     2.892905228274   116.94891357   180.03962500
 H     62  59  52     2.089351573147   109.88799622   301.74860638
 H     62  59  52     2.089362810905   109.88263059    58.26249113
 C     62  59  52     2.898236618039   112.57688762   180.00563645
 H     65  62  59     2.089849475948   109.19069748   302.36223180
 H     65  62  59     2.089853561194   109.19187175    57.66791910
 C     65  62  59     2.892715321851   113.18648332   180.01430550
 H     68  65  62     2.085791075431   111.26860250    59.87351068
 H     68  65  62     2.085791486461   111.26879330   300.17628964
 C     55  54  53     2.865948296265   119.74495869   179.99651763
 H     71  55  54     2.089561847750   108.15004580   303.60682481
 H     71  55  54     2.089553678071   108.14773253    56.28436086
 C     71  55  54     2.892935777229   116.91561211   179.94382479
 H     74  71  55     2.089361572401   109.87030025   301.74830200
 H     74  71  55     2.089348581597   109.87692937    58.25094727
 C     74  71  55     2.898170137366   112.62322115   179.99975097
 H     77  74  71     2.089846354327   109.19672241   302.31655599
 H     77  74  71     2.089845019463   109.19530153    57.64482259
 C     77  74  71     2.892781247728   113.17141106   179.98113453
 H     80  77  74     2.085816222143   111.26918468    59.82142830
 H     80  77  74     2.085818415342   111.26960121   300.12401996
 C     50  49  48     2.310556053301   178.61666336   190.28376396
 H     68  65  62     2.082716124445   111.52584752   180.02535278
 H     80  77  74     2.082718386479   111.52749569   179.97212874
 C     83  50  54     2.697996932896   179.86221450   328.90344040
 C     86  83  50     2.668905627179   120.61836152    22.34989728
 C     87  86  83     2.635203968230   120.42252743   180.00112427
 C     88  87  86     2.644827603760   120.35756948     0.00000000
 C     89  88  87     2.644965702622   119.70316708     0.00000000
 C     90  89  88     2.635053338841   120.34786331     0.00000000
 H     89  88  87     2.064558559221   120.14727351   180.00041625
 H     90  89  88     2.064927761071   120.04412583   180.00064995
 H     87  86  83     2.062874013719   119.09917023     0.00000000
 H     91  90  89     2.062921768470   120.46016784   180.00167982
 H     88  87  86     2.064912400441   119.60457565   179.99971469

---------------------
BASIS SET INFORMATION
---------------------
There are 2 groups of distinct atoms

 Group   1 Type C   : 17s4p1d contracted to 3s2p1d pattern {881/31/1}
 Group   2 Type H   : 4s1p contracted to 2s1p pattern {31/1}

Atom   0C    basis set group =>   1
Atom   1C    basis set group =>   1
Atom   2C    basis set group =>   1
Atom   3C    basis set group =>   1
Atom   4C    basis set group =>   1
Atom   5C    basis set group =>   1
Atom   6C    basis set group =>   1
Atom   7H    basis set group =>   2
Atom   8H    basis set group =>   2
Atom   9C    basis set group =>   1
Atom  10H    basis set group =>   2
Atom  11H    basis set group =>   2
Atom  12C    basis set group =>   1
Atom  13H    basis set group =>   2
Atom  14H    basis set group =>   2
Atom  15C    basis set group =>   1
Atom  16H    basis set group =>   2
Atom  17H    basis set group =>   2
Atom  18C    basis set group =>   1
Atom  19H    basis set group =>   2
Atom  20H    basis set group =>   2
Atom  21C    basis set group =>   1
Atom  22H    basis set group =>   2
Atom  23H    basis set group =>   2
Atom  24C    basis set group =>   1
Atom  25H    basis set group =>   2
Atom  26H    basis set group =>   2
Atom  27C    basis set group =>   1
Atom  28H    basis set group =>   2
Atom  29H    basis set group =>   2
Atom  30C    basis set group =>   1
Atom  31H    basis set group =>   2
Atom  32H    basis set group =>   2
Atom  33C    basis set group =>   1
Atom  34H    basis set group =>   2
Atom  35H    basis set group =>   2
Atom  36C    basis set group =>   1
Atom  37C    basis set group =>   1
Atom  38C    basis set group =>   1
Atom  39C    basis set group =>   1
Atom  40C    basis set group =>   1
Atom  41C    basis set group =>   1
Atom  42H    basis set group =>   2
Atom  43H    basis set group =>   2
Atom  44H    basis set group =>   2
Atom  45H    basis set group =>   2
Atom  46H    basis set group =>   2
Atom  47C    basis set group =>   1
Atom  48C    basis set group =>   1
Atom  49C    basis set group =>   1
Atom  50C    basis set group =>   1
Atom  51C    basis set group =>   1
Atom  52C    basis set group =>   1
Atom  53C    basis set group =>   1
Atom  54C    basis set group =>   1
Atom  55C    basis set group =>   1
Atom  56H    basis set group =>   2
Atom  57H    basis set group =>   2
Atom  58C    basis set group =>   1
Atom  59H    basis set group =>   2
Atom  60H    basis set group =>   2
Atom  61C    basis set group =>   1
Atom  62H    basis set group =>   2
Atom  63H    basis set group =>   2
Atom  64C    basis set group =>   1
Atom  65H    basis set group =>   2
Atom  66H    basis set group =>   2
Atom  67C    basis set group =>   1
Atom  68H    basis set group =>   2
Atom  69H    basis set group =>   2
Atom  70C    basis set group =>   1
Atom  71H    basis set group =>   2
Atom  72H    basis set group =>   2
Atom  73C    basis set group =>   1
Atom  74H    basis set group =>   2
Atom  75H    basis set group =>   2
Atom  76C    basis set group =>   1
Atom  77H    basis set group =>   2
Atom  78H    basis set group =>   2
Atom  79C    basis set group =>   1
Atom  80H    basis set group =>   2
Atom  81H    basis set group =>   2
Atom  82C    basis set group =>   1
Atom  83H    basis set group =>   2
Atom  84H    basis set group =>   2
Atom  85C    basis set group =>   1
Atom  86C    basis set group =>   1
Atom  87C    basis set group =>   1
Atom  88C    basis set group =>   1
Atom  89C    basis set group =>   1
Atom  90C    basis set group =>   1
Atom  91H    basis set group =>   2
Atom  92H    basis set group =>   2
Atom  93H    basis set group =>   2
Atom  94H    basis set group =>   2
Atom  95H    basis set group =>   2
---------------------------------
AUXILIARY/J BASIS SET INFORMATION
---------------------------------
There are 2 groups of distinct atoms

 Group   1 Type C   : 14s11p10d2f contracted to 14s11p10d2f pattern {11111111111111/11111111111/1111111111/11}
 Group   2 Type H   : 9s2p1d contracted to 9s2p1d pattern {111111111/11/1}

Atom   0C    basis set group =>   1
Atom   1C    basis set group =>   1
Atom   2C    basis set group =>   1
Atom   3C    basis set group =>   1
Atom   4C    basis set group =>   1
Atom   5C    basis set group =>   1
Atom   6C    basis set group =>   1
Atom   7H    basis set group =>   2
Atom   8H    basis set group =>   2
Atom   9C    basis set group =>   1
Atom  10H    basis set group =>   2
Atom  11H    basis set group =>   2
Atom  12C    basis set group =>   1
Atom  13H    basis set group =>   2
Atom  14H    basis set group =>   2
Atom  15C    basis set group =>   1
Atom  16H    basis set group =>   2
Atom  17H    basis set group =>   2
Atom  18C    basis set group =>   1
Atom  19H    basis set group =>   2
Atom  20H    basis set group =>   2
Atom  21C    basis set group =>   1
Atom  22H    basis set group =>   2
Atom  23H    basis set group =>   2
Atom  24C    basis set group =>   1
Atom  25H    basis set group =>   2
Atom  26H    basis set group =>   2
Atom  27C    basis set group =>   1
Atom  28H    basis set group =>   2
Atom  29H    basis set group =>   2
Atom  30C    basis set group =>   1
Atom  31H    basis set group =>   2
Atom  32H    basis set group =>   2
Atom  33C    basis set group =>   1
Atom  34H    basis set group =>   2
Atom  35H    basis set group =>   2
Atom  36C    basis set group =>   1
Atom  37C    basis set group =>   1
Atom  38C    basis set group =>   1
Atom  39C    basis set group =>   1
Atom  40C    basis set group =>   1
Atom  41C    basis set group =>   1
Atom  42H    basis set group =>   2
Atom  43H    basis set group =>   2
Atom  44H    basis set group =>   2
Atom  45H    basis set group =>   2
Atom  46H    basis set group =>   2
Atom  47C    basis set group =>   1
Atom  48C    basis set group =>   1
Atom  49C    basis set group =>   1
Atom  50C    basis set group =>   1
Atom  51C    basis set group =>   1
Atom  52C    basis set group =>   1
Atom  53C    basis set group =>   1
Atom  54C    basis set group =>   1
Atom  55C    basis set group =>   1
Atom  56H    basis set group =>   2
Atom  57H    basis set group =>   2
Atom  58C    basis set group =>   1
Atom  59H    basis set group =>   2
Atom  60H    basis set group =>   2
Atom  61C    basis set group =>   1
Atom  62H    basis set group =>   2
Atom  63H    basis set group =>   2
Atom  64C    basis set group =>   1
Atom  65H    basis set group =>   2
Atom  66H    basis set group =>   2
Atom  67C    basis set group =>   1
Atom  68H    basis set group =>   2
Atom  69H    basis set group =>   2
Atom  70C    basis set group =>   1
Atom  71H    basis set group =>   2
Atom  72H    basis set group =>   2
Atom  73C    basis set group =>   1
Atom  74H    basis set group =>   2
Atom  75H    basis set group =>   2
Atom  76C    basis set group =>   1
Atom  77H    basis set group =>   2
Atom  78H    basis set group =>   2
Atom  79C    basis set group =>   1
Atom  80H    basis set group =>   2
Atom  81H    basis set group =>   2
Atom  82C    basis set group =>   1
Atom  83H    basis set group =>   2
Atom  84H    basis set group =>   2
Atom  85C    basis set group =>   1
Atom  86C    basis set group =>   1
Atom  87C    basis set group =>   1
Atom  88C    basis set group =>   1
Atom  89C    basis set group =>   1
Atom  90C    basis set group =>   1
Atom  91H    basis set group =>   2
Atom  92H    basis set group =>   2
Atom  93H    basis set group =>   2
Atom  94H    basis set group =>   2
Atom  95H    basis set group =>   2
---------------------------------
AUXILIARY/C BASIS SET INFORMATION
---------------------------------
There are 2 groups of distinct atoms

 Group   1 Type C   : 14s11p10d2f contracted to 14s11p10d2f pattern {11111111111111/11111111111/1111111111/11}
 Group   2 Type H   : 9s2p1d contracted to 9s2p1d pattern {111111111/11/1}

Atom   0C    basis set group =>   1
Atom   1C    basis set group =>   1
Atom   2C    basis set group =>   1
Atom   3C    basis set group =>   1
Atom   4C    basis set group =>   1
Atom   5C    basis set group =>   1
Atom   6C    basis set group =>   1
Atom   7H    basis set group =>   2
Atom   8H    basis set group =>   2
Atom   9C    basis set group =>   1
Atom  10H    basis set group =>   2
Atom  11H    basis set group =>   2
Atom  12C    basis set group =>   1
Atom  13H    basis set group =>   2
Atom  14H    basis set group =>   2
Atom  15C    basis set group =>   1
Atom  16H    basis set group =>   2
Atom  17H    basis set group =>   2
Atom  18C    basis set group =>   1
Atom  19H    basis set group =>   2
Atom  20H    basis set group =>   2
Atom  21C    basis set group =>   1
Atom  22H    basis set group =>   2
Atom  23H    basis set group =>   2
Atom  24C    basis set group =>   1
Atom  25H    basis set group =>   2
Atom  26H    basis set group =>   2
Atom  27C    basis set group =>   1
Atom  28H    basis set group =>   2
Atom  29H    basis set group =>   2
Atom  30C    basis set group =>   1
Atom  31H    basis set group =>   2
Atom  32H    basis set group =>   2
Atom  33C    basis set group =>   1
Atom  34H    basis set group =>   2
Atom  35H    basis set group =>   2
Atom  36C    basis set group =>   1
Atom  37C    basis set group =>   1
Atom  38C    basis set group =>   1
Atom  39C    basis set group =>   1
Atom  40C    basis set group =>   1
Atom  41C    basis set group =>   1
Atom  42H    basis set group =>   2
Atom  43H    basis set group =>   2
Atom  44H    basis set group =>   2
Atom  45H    basis set group =>   2
Atom  46H    basis set group =>   2
Atom  47C    basis set group =>   1
Atom  48C    basis set group =>   1
Atom  49C    basis set group =>   1
Atom  50C    basis set group =>   1
Atom  51C    basis set group =>   1
Atom  52C    basis set group =>   1
Atom  53C    basis set group =>   1
Atom  54C    basis set group =>   1
Atom  55C    basis set group =>   1
Atom  56H    basis set group =>   2
Atom  57H    basis set group =>   2
Atom  58C    basis set group =>   1
Atom  59H    basis set group =>   2
Atom  60H    basis set group =>   2
Atom  61C    basis set group =>   1
Atom  62H    basis set group =>   2
Atom  63H    basis set group =>   2
Atom  64C    basis set group =>   1
Atom  65H    basis set group =>   2
Atom  66H    basis set group =>   2
Atom  67C    basis set group =>   1
Atom  68H    basis set group =>   2
Atom  69H    basis set group =>   2
Atom  70C    basis set group =>   1
Atom  71H    basis set group =>   2
Atom  72H    basis set group =>   2
Atom  73C    basis set group =>   1
Atom  74H    basis set group =>   2
Atom  75H    basis set group =>   2
Atom  76C    basis set group =>   1
Atom  77H    basis set group =>   2
Atom  78H    basis set group =>   2
Atom  79C    basis set group =>   1
Atom  80H    basis set group =>   2
Atom  81H    basis set group =>   2
Atom  82C    basis set group =>   1
Atom  83H    basis set group =>   2
Atom  84H    basis set group =>   2
Atom  85C    basis set group =>   1
Atom  86C    basis set group =>   1
Atom  87C    basis set group =>   1
Atom  88C    basis set group =>   1
Atom  89C    basis set group =>   1
Atom  90C    basis set group =>   1
Atom  91H    basis set group =>   2
Atom  92H    basis set group =>   2
Atom  93H    basis set group =>   2
Atom  94H    basis set group =>   2
Atom  95H    basis set group =>   2
----------------------------------
AUXILIARY/JK BASIS SET INFORMATION
----------------------------------
There are 2 groups of distinct atoms

 Group   1 Type C   : 14s11p10d2f contracted to 14s11p10d2f pattern {11111111111111/11111111111/1111111111/11}
 Group   2 Type H   : 9s2p1d contracted to 9s2p1d pattern {111111111/11/1}

Atom   0C    basis set group =>   1
Atom   1C    basis set group =>   1
Atom   2C    basis set group =>   1
Atom   3C    basis set group =>   1
Atom   4C    basis set group =>   1
Atom   5C    basis set group =>   1
Atom   6C    basis set group =>   1
Atom   7H    basis set group =>   2
Atom   8H    basis set group =>   2
Atom   9C    basis set group =>   1
Atom  10H    basis set group =>   2
Atom  11H    basis set group =>   2
Atom  12C    basis set group =>   1
Atom  13H    basis set group =>   2
Atom  14H    basis set group =>   2
Atom  15C    basis set group =>   1
Atom  16H    basis set group =>   2
Atom  17H    basis set group =>   2
Atom  18C    basis set group =>   1
Atom  19H    basis set group =>   2
Atom  20H    basis set group =>   2
Atom  21C    basis set group =>   1
Atom  22H    basis set group =>   2
Atom  23H    basis set group =>   2
Atom  24C    basis set group =>   1
Atom  25H    basis set group =>   2
Atom  26H    basis set group =>   2
Atom  27C    basis set group =>   1
Atom  28H    basis set group =>   2
Atom  29H    basis set group =>   2
Atom  30C    basis set group =>   1
Atom  31H    basis set group =>   2
Atom  32H    basis set group =>   2
Atom  33C    basis set group =>   1
Atom  34H    basis set group =>   2
Atom  35H    basis set group =>   2
Atom  36C    basis set group =>   1
Atom  37C    basis set group =>   1
Atom  38C    basis set group =>   1
Atom  39C    basis set group =>   1
Atom  40C    basis set group =>   1
Atom  41C    basis set group =>   1
Atom  42H    basis set group =>   2
Atom  43H    basis set group =>   2
Atom  44H    basis set group =>   2
Atom  45H    basis set group =>   2
Atom  46H    basis set group =>   2
Atom  47C    basis set group =>   1
Atom  48C    basis set group =>   1
Atom  49C    basis set group =>   1
Atom  50C    basis set group =>   1
Atom  51C    basis set group =>   1
Atom  52C    basis set group =>   1
Atom  53C    basis set group =>   1
Atom  54C    basis set group =>   1
Atom  55C    basis set group =>   1
Atom  56H    basis set group =>   2
Atom  57H    basis set group =>   2
Atom  58C    basis set group =>   1
Atom  59H    basis set group =>   2
Atom  60H    basis set group =>   2
Atom  61C    basis set group =>   1
Atom  62H    basis set group =>   2
Atom  63H    basis set group =>   2
Atom  64C    basis set group =>   1
Atom  65H    basis set group =>   2
Atom  66H    basis set group =>   2
Atom  67C    basis set group =>   1
Atom  68H    basis set group =>   2
Atom  69H    basis set group =>   2
Atom  70C    basis set group =>   1
Atom  71H    basis set group =>   2
Atom  72H    basis set group =>   2
Atom  73C    basis set group =>   1
Atom  74H    basis set group =>   2
Atom  75H    basis set group =>   2
Atom  76C    basis set group =>   1
Atom  77H    basis set group =>   2
Atom  78H    basis set group =>   2
Atom  79C    basis set group =>   1
Atom  80H    basis set group =>   2
Atom  81H    basis set group =>   2
Atom  82C    basis set group =>   1
Atom  83H    basis set group =>   2
Atom  84H    basis set group =>   2
Atom  85C    basis set group =>   1
Atom  86C    basis set group =>   1
Atom  87C    basis set group =>   1
Atom  88C    basis set group =>   1
Atom  89C    basis set group =>   1
Atom  90C    basis set group =>   1
Atom  91H    basis set group =>   2
Atom  92H    basis set group =>   2
Atom  93H    basis set group =>   2
Atom  94H    basis set group =>   2
Atom  95H    basis set group =>   2


           ************************************************************
           *        Program running with 16 parallel MPI-processes    *
           *              working on a common directory               *
           ************************************************************
------------------------------------------------------------------------------
                           ORCA GTO INTEGRAL CALCULATION
                           -- RI-GTO INTEGRALS CHOSEN --
------------------------------------------------------------------------------
------------------------------------------------------------------------------
                   ___                                                        
                  /   \      - P O W E R E D   B Y -                         
                 /     \                                                     
                 |  |  |   _    _      __       _____    __    __             
                 |  |  |  | |  | |    /  \     |  _  \  |  |  /  |          
                  \  \/   | |  | |   /    \    | | | |  |  | /  /          
                 / \  \   | |__| |  /  /\  \   | |_| |  |  |/  /          
                |  |  |   |  __  | /  /__\  \  |    /   |      \           
                |  |  |   | |  | | |   __   |  |    \   |  |\   \          
                \     /   | |  | | |  |  |  |  | |\  \  |  | \   \       
                 \___/    |_|  |_| |__|  |__|  |_| \__\ |__|  \__/        
                                                                              
                      - O R C A' S   B I G   F R I E N D -                    
                                      &                                       
                       - I N T E G R A L  F E E D E R -                       
                                                                              
 v1 FN, 2020, v2 2021                                                         
------------------------------------------------------------------------------


Reading SHARK input file cc-pVDZ_i.SHARKINP.tmp ... ok
----------------------
SHARK INTEGRAL PACKAGE
----------------------

Number of atoms                             ...     96
Number of basis functions                   ...   1170
Number of shells                            ...    702
Maximum angular momentum                    ...      2
Integral batch strategy                     ... SHARK/LIBINT Hybrid
RI-J (if used) integral strategy            ... SPLIT-RIJ (Revised 2003 algorithm where possible)
Printlevel                                  ...      1
Contraction scheme used                     ... PARTIAL GENERAL contraction
Coulomb Range Separation                    ... NOT USED
Exchange Range Separation                   ... NOT USED
Finite Nucleus Model                        ... NOT USED
Auxiliary Coulomb fitting basis             ... AVAILABLE
   # of basis functions in Aux-J            ...   6106
   # of shells in Aux-J                     ...   2302
   Maximum angular momentum in Aux-J        ...      3
Auxiliary J/K fitting basis                 ... AVAILABLE
   # of basis functions in Aux-JK           ...   6106
   # of shells in Aux-JK                    ...   2302
   Maximum angular momentum in Aux-JK       ...      3
Auxiliary Correlation fitting basis         ... AVAILABLE
   # of basis functions in Aux-C            ...   6106
   # of shells in Aux-C                     ...   2302
   Maximum angular momentum in Aux-C        ...      3
Auxiliary 'external' fitting basis          ... NOT available
Integral threshold                          ...     1.000000e-10
Primitive cut-off                           ...     1.000000e-11
Primitive pair pre-selection threshold      ...     1.000000e-11

Calculating pre-screening integrals         ... done (  0.0 sec) Dimension = 702
Calculating pre-screening integrals (ORCA)  ... done (  0.2 sec) Dimension = 426
Organizing shell pair data                  ... done (  0.4 sec)
Shell pair information
Total number of shell pairs                 ...    246753
Shell pairs after pre-screening             ...     58424
Total number of primitive shell pairs       ...    400353
Primitive shell pairs kept                  ...     77610
          la=0 lb=0:  25281 shell pairs
          la=1 lb=0:  20850 shell pairs
          la=1 lb=1:   3811 shell pairs
          la=2 lb=0:   5940 shell pairs
          la=2 lb=1:   2210 shell pairs
          la=2 lb=2:    332 shell pairs

Calculating one electron integrals          ... done (  0.1 sec)
Calculating RI/J V-Matrix + Cholesky decomp.... done (  2.3 sec)
Calculating RI/JK V-Matrix + Cholesky decomp... done (  2.3 sec)
Calculating RI/C V-Matrix + Cholesky decomp.... done (  2.2 sec)
Calculating Nuclear repulsion               ... done (  0.0 sec) ENN=   4666.906923282490 Eh

SHARK setup successfully completed in   8.1 seconds

Maximum memory used throughout the entire GTOINT-calculation: 117.9 MB


           ************************************************************
           *        Program running with 16 parallel MPI-processes    *
           *              working on a common directory               *
           ************************************************************
-------------------------------------------------------------------------------
                                 ORCA SCF
-------------------------------------------------------------------------------

------------
SCF SETTINGS
------------
Hamiltonian:
 Density Functional     Method          .... DFT(GTOs)
 Exchange Functional    Exchange        .... B88
   X-Alpha parameter    XAlpha          ....  0.666667
   Becke's b parameter  XBeta           ....  0.004200
 Correlation Functional Correlation     .... LYP
 LDA part of GGA corr.  LDAOpt          .... VWN-5
 Gradients option       PostSCFGGA      .... off
 Hybrid DFT is turned on
   Fraction HF Exchange ScalHFX         ....  0.200000
   Scaling of DF-GGA-X  ScalDFX         ....  0.720000
   Scaling of DF-GGA-C  ScalDFC         ....  0.810000
   Scaling of DF-LDA-C  ScalLDAC        ....  1.000000
   Perturbative correction              ....  0.000000
   Density functional embedding theory  .... OFF
   NL short-range parameter             ....  4.800000
 RI-approximation to the Coulomb term is turned on
   Number of AuxJ basis functions       .... 6106
   RIJ-COSX (HFX calculated with COS-X)).... on


General Settings:
 Integral files         IntName         .... cc-pVDZ_i
 Hartree-Fock type      HFTyp           .... RHF
 Total Charge           Charge          ....    0
 Multiplicity           Mult            ....    1
 Number of Electrons    NEL             ....  326
 Basis Dimension        Dim             ....  894
 Nuclear Repulsion      ENuc            ....   4666.9069232825 Eh

Convergence Acceleration:
 DIIS                   CNVDIIS         .... on
   Start iteration      DIISMaxIt       ....    12
   Startup error        DIISStart       ....  0.200000
   # of expansion vecs  DIISMaxEq       ....     5
   Bias factor          DIISBfac        ....   1.050
   Max. coefficient     DIISMaxC        ....  10.000
 Trust-Rad. Augm. Hess. CNVTRAH         .... auto
   Auto Start mean grad. ratio tolernc. ....  1.125000
   Auto Start start iteration           ....    20
   Auto Start num. interpolation iter.  ....    10
   Max. Number of Micro iterations      ....    16
   Max. Number of Macro iterations      .... Maxiter - #DIIS iter
   Number of Davidson start vectors     ....     2
   Converg. threshold I  (grad. norm)   ....   5.000e-05
   Converg. threshold II (energy diff.) ....   1.000e-06
   Grad. Scal. Fac. for Micro threshold ....   0.100
   Minimum threshold for Micro iter.    ....   0.010
   NR start threshold (gradient norm)   ....   0.001
   Initial trust radius                 ....   0.400
   Minimum AH scaling param. (alpha)    ....   1.000
   Maximum AH scaling param. (alpha)    .... 1000.000
   Orbital update algorithm             .... Taylor
   White noise on init. David. guess    .... on
   Maximum white noise                  ....   0.010
   Quad. conv. algorithm                .... NR
 SOSCF                  CNVSOSCF        .... on
   Start iteration      SOSCFMaxIt      ....   150
   Startup grad/error   SOSCFStart      ....  0.003300
 Level Shifting         CNVShift        .... on
   Level shift para.    LevelShift      ....    0.2500
   Turn off err/grad.   ShiftErr        ....    0.0010
 Zerner damping         CNVZerner       .... off
 Static damping         CNVDamp         .... on
   Fraction old density DampFac         ....    0.7000
   Max. Damping (<1)    DampMax         ....    0.9800
   Min. Damping (>=0)   DampMin         ....    0.0000
   Turn off err/grad.   DampErr         ....    0.1000
 Fernandez-Rico         CNVRico         .... off

SCF Procedure:
 Maximum # iterations   MaxIter         ....   125
 SCF integral mode      SCFMode         .... Direct
   Integral package                     .... SHARK and LIBINT hybrid scheme
 Reset frequency        DirectResetFreq ....    20
 Integral Threshold     Thresh          ....  1.000e-10 Eh
 Primitive CutOff       TCut            ....  1.000e-11 Eh

Convergence Tolerance:
 Convergence Check Mode ConvCheckMode   .... Total+1el-Energy
 Convergence forced     ConvForced      .... 0
 Energy Change          TolE            ....  1.000e-06 Eh
 1-El. energy change                    ....  1.000e-03 Eh
 Orbital Gradient       TolG            ....  5.000e-05
 Orbital Rotation angle TolX            ....  5.000e-05
 DIIS Error             TolErr          ....  1.000e-06


Diagonalization of the overlap matrix:
Smallest eigenvalue                        ... 4.188e-05
Time for diagonalization                   ...    0.179 sec
Threshold for overlap eigenvalues          ... 1.000e-08
Number of eigenvalues below threshold      ... 0
Time for construction of square roots      ...    0.106 sec
Total time needed                          ...    0.288 sec

Time for model grid setup =    1.255 sec

------------------------------
INITIAL GUESS: MODEL POTENTIAL
------------------------------
Loading Hartree-Fock densities                     ... done
Calculating cut-offs                               ... done
Initializing the effective Hamiltonian             ... done
Setting up the integral package (SHARK)            ... done
Starting the Coulomb interaction                   ... done (   0.9 sec)
Reading the grid                                   ... done
Mapping shells                                     ... done
Starting the XC term evaluation                    ... done (   0.3 sec)
  promolecular density results
     # of electrons  =    325.998836787
     EX              =   -251.211901423
     EC              =    -10.748879238
     EX+EC           =   -261.960780661
Transforming the Hamiltonian                       ... done (   0.1 sec)
Diagonalizing the Hamiltonian                      ... done (   0.2 sec)
Back transforming the eigenvectors                 ... done (   0.0 sec)
Now organizing SCF variables                       ... done
                      ------------------
                      INITIAL GUESS DONE (   3.1 sec)
                      ------------------
-------------------
DFT GRID GENERATION
-------------------

General Integration Accuracy     IntAcc      ... 4.388
Radial Grid Type                 RadialGrid  ... OptM3 with GC (2021)
Angular Grid (max. ang.)         AngularGrid ... 4 (Lebedev-302)
Angular grid pruning method      GridPruning ... 4 (adaptive)
Weight generation scheme         WeightScheme... Becke
Basis function cutoff            BFCut       ... 1.0000e-10
Integration weight cutoff        WCut        ... 1.0000e-14
Angular grids for H and He will be reduced by one unit
Partially contracted basis set               ... off
Rotationally invariant grid construction     ... off

Total number of grid points                  ...   432812
Total number of batches                      ...     6813
Average number of points per batch           ...       63
Average number of grid points per atom       ...     4508
Time for grid setup =    4.401 sec

--------------------
COSX GRID GENERATION
--------------------

GRIDX 1
-------
General Integration Accuracy     IntAcc      ... 3.816
Radial Grid Type                 RadialGrid  ... OptM3 with GC (2021)
Angular Grid (max. ang.)         AngularGrid ... 1 (Lebedev-50)
Angular grid pruning method      GridPruning ... 4 (adaptive)
Weight generation scheme         WeightScheme... Becke
Basis function cutoff            BFCut       ... 1.0000e-10
Integration weight cutoff        WCut        ... 1.0000e-14
Angular grids for H and He will be reduced by one unit
Partially contracted basis set               ... on
Rotationally invariant grid construction     ... off

Total number of grid points                  ...    55095
Total number of batches                      ...      920
Average number of points per batch           ...       59
Average number of grid points per atom       ...      574
UseSFitting                                  ... on

GRIDX 2
-------
General Integration Accuracy     IntAcc      ... 4.020
Radial Grid Type                 RadialGrid  ... OptM3 with GC (2021)
Angular Grid (max. ang.)         AngularGrid ... 2 (Lebedev-110)
Angular grid pruning method      GridPruning ... 4 (adaptive)
Weight generation scheme         WeightScheme... Becke
Basis function cutoff            BFCut       ... 1.0000e-10
Integration weight cutoff        WCut        ... 1.0000e-14
Angular grids for H and He will be reduced by one unit
Partially contracted basis set               ... on
Rotationally invariant grid construction     ... off

Total number of grid points                  ...   116348
Total number of batches                      ...     1866
Average number of points per batch           ...       62
Average number of grid points per atom       ...     1212
UseSFitting                                  ... on

GRIDX 3
-------
General Integration Accuracy     IntAcc      ... 4.338
Radial Grid Type                 RadialGrid  ... OptM3 with GC (2021)
Angular Grid (max. ang.)         AngularGrid ... 3 (Lebedev-194)
Angular grid pruning method      GridPruning ... 4 (adaptive)
Weight generation scheme         WeightScheme... Becke
Basis function cutoff            BFCut       ... 1.0000e-10
Integration weight cutoff        WCut        ... 1.0000e-14
Angular grids for H and He will be reduced by one unit
Partially contracted basis set               ... on
Rotationally invariant grid construction     ... off

Total number of grid points                  ...   253673
Total number of batches                      ...     4012
Average number of points per batch           ...       63
Average number of grid points per atom       ...     2642
UseSFitting                                  ... on

Time for X-Grid setup             =    6.555 sec

 re-compute Schwartz prescreening matrix in partically contracted basis (1) ...done (   0.140 sec)
--------------
SCF ITERATIONS
--------------
ITER       Energy         Delta-E        Max-DP      RMS-DP      [F,P]     Damp
               ***  Starting incremental Fock matrix formation  ***
  0  -1780.7558297978   0.000000000000 0.13241627  0.00128142  0.1738737 0.7000
  1  -1781.2188941179  -0.463064320045 0.11926742  0.00103994  0.0916166 0.7000
                               ***Turning on DIIS***
  2  -1781.4269361177  -0.208041999810 0.25254071  0.00205815  0.0350856 0.0000
  3  -1781.7212161300  -0.294280012308 0.05162830  0.00053351  0.0497635 0.0000
  4  -1781.7964101472  -0.075194017193 0.03519924  0.00025124  0.0098707 0.0000
                      *** Initiating the SOSCF procedure ***
                           *** Shutting down DIIS ***
                      *** Re-Reading the Fockian *** 
                      *** Removing any level shift *** 
ITER      Energy       Delta-E        Grad      Rot      Max-DP    RMS-DP
  5  -1781.80063334  -0.0042231903  0.000862  0.000862  0.004995  0.000050
               *** Restarting incremental Fock matrix formation ***
  6  -1781.80143123  -0.0007978952  0.000387  0.001532  0.001995  0.000035
  7  -1781.80143807  -0.0000068356  0.000413  0.000829  0.001762  0.000014
  8  -1781.80145754  -0.0000194696  0.000210  0.000572  0.000907  0.000008
  9  -1781.80145539   0.0000021440  0.000230  0.000301  0.000641  0.000005
 10  -1781.80145925  -0.0000038543  0.000054  0.000182  0.000347  0.000002
 11  -1781.80145901   0.0000002430  0.000107  0.000108  0.000219  0.000001
 12  -1781.80145968  -0.0000006727  0.000015  0.000056  0.000063  0.000001
 13  -1781.80145968  -0.0000000052  0.000030  0.000043  0.000060  0.000001
                  ***Gradient check signals convergence***
              ***Rediagonalizing the Fockian in SOSCF/NRSCF***

               *****************************************************
               *                     SUCCESS                       *
               *           SCF CONVERGED AFTER  14 CYCLES          *
               *****************************************************

Old exchange energy                            =    -51.228543998 Eh
New exchange energy                            =    -51.228778735 Eh
Exchange energy change after final integration =     -0.000234738 Eh
Total energy after final integration           =  -1781.801694251 Eh
Final COS-X integration done in                =    25.712 sec

----------------
TOTAL SCF ENERGY
----------------

Total Energy       :        -1781.80169425 Eh          -48485.28905 eV

Components:
Nuclear Repulsion  :         4666.90692328 Eh          126992.99358 eV
Electronic Energy  :        -6448.70861753 Eh         -175478.28263 eV
One Electron Energy:       -11690.92756954 Eh         -318126.31240 eV
Two Electron Energy:         5242.21895201 Eh          142648.02977 eV
Max COSX asymmetry :            0.00000251 Eh               0.00007 eV

Virial components:
Potential Energy   :        -3551.18389048 Eh          -96632.62637 eV
Kinetic Energy     :         1769.38219623 Eh           48147.33732 eV
Virial Ratio       :            2.00701912


DFT components:
N(Alpha)           :      163.000495853345 electrons
N(Beta)            :      163.000495853345 electrons
N(Total)           :      326.000991706689 electrons
E(X)               :     -203.163887937194 Eh       
E(C)               :      -12.696436015685 Eh       
E(XC)              :     -215.860323952878 Eh       
DFET-embed. en.    :        0.000000000000 Eh       

---------------
SCF CONVERGENCE
---------------

  Last Energy change         ...    1.7010e-07  Tolerance :   1.0000e-06
  Last MAX-Density change    ...    5.7732e-15  Tolerance :   1.0000e-05
  Last RMS-Density change    ...    2.9968e-17  Tolerance :   1.0000e-06
  Last Orbital Gradient      ...    3.7960e-06  Tolerance :   5.0000e-05
  Last Orbital Rotation      ...    2.0007e-05  Tolerance :   5.0000e-05

             **** THE GBW FILE WAS UPDATED (cc-pVDZ_i.gbw) ****
             **** DENSITY cc-pVDZ_i.scfp WAS UPDATED ****
             **** ENERGY FILE WAS UPDATED (cc-pVDZ_i.en.tmp) ****
             **** THE GBW FILE WAS UPDATED (cc-pVDZ_i.gbw) ****
             **** DENSITY cc-pVDZ_i.scfp WAS UPDATED ****
----------------
ORBITAL ENERGIES
----------------

  NO   OCC          E(Eh)            E(eV) 
   0   2.0000     -10.215346      -277.9737 
   1   2.0000     -10.215346      -277.9737 
   2   2.0000     -10.209350      -277.8105 
   3   2.0000     -10.209296      -277.8091 
   4   2.0000     -10.209287      -277.8088 
   5   2.0000     -10.209282      -277.8087 
   6   2.0000     -10.198198      -277.5071 
   7   2.0000     -10.198198      -277.5071 
   8   2.0000     -10.198068      -277.5035 
   9   2.0000     -10.198064      -277.5034 
  10   2.0000     -10.196107      -277.4502 
  11   2.0000     -10.196107      -277.4502 
  12   2.0000     -10.195960      -277.4462 
  13   2.0000     -10.195960      -277.4462 
  14   2.0000     -10.195006      -277.4202 
  15   2.0000     -10.195006      -277.4202 
  16   2.0000     -10.194504      -277.4066 
  17   2.0000     -10.194504      -277.4065 
  18   2.0000     -10.194287      -277.4007 
  19   2.0000     -10.194287      -277.4007 
  20   2.0000     -10.188737      -277.2496 
  21   2.0000     -10.188733      -277.2495 
  22   2.0000     -10.188666      -277.2477 
  23   2.0000     -10.188666      -277.2477 
  24   2.0000     -10.188122      -277.2329 
  25   2.0000     -10.188121      -277.2329 
  26   2.0000     -10.187493      -277.2158 
  27   2.0000     -10.186103      -277.1780 
  28   2.0000     -10.186103      -277.1780 
  29   2.0000     -10.185532      -277.1624 
  30   2.0000     -10.185530      -277.1624 
  31   2.0000     -10.185527      -277.1623 
  32   2.0000     -10.185196      -277.1533 
  33   2.0000     -10.185194      -277.1532 
  34   2.0000     -10.181707      -277.0583 
  35   2.0000     -10.181706      -277.0583 
  36   2.0000     -10.181255      -277.0460 
  37   2.0000     -10.181255      -277.0460 
  38   2.0000     -10.181205      -277.0447 
  39   2.0000     -10.181204      -277.0447 
  40   2.0000     -10.180754      -277.0324 
  41   2.0000     -10.180754      -277.0324 
  42   2.0000     -10.175782      -276.8971 
  43   2.0000     -10.175782      -276.8971 
  44   2.0000     -10.175277      -276.8834 
  45   2.0000     -10.175277      -276.8834 
  46   2.0000      -0.872034       -23.7292 
  47   2.0000      -0.870141       -23.6777 
  48   2.0000      -0.862203       -23.4617 
  49   2.0000      -0.862135       -23.4599 
  50   2.0000      -0.817885       -22.2558 
  51   2.0000      -0.814607       -22.1666 
  52   2.0000      -0.797601       -21.7038 
  53   2.0000      -0.794902       -21.6304 
  54   2.0000      -0.794715       -21.6253 
  55   2.0000      -0.790973       -21.5235 
  56   2.0000      -0.778393       -21.1811 
  57   2.0000      -0.773537       -21.0490 
  58   2.0000      -0.764315       -20.7981 
  59   2.0000      -0.762551       -20.7501 
  60   2.0000      -0.749970       -20.4077 
  61   2.0000      -0.749970       -20.4077 
  62   2.0000      -0.742488       -20.2041 
  63   2.0000      -0.732361       -19.9286 
  64   2.0000      -0.727890       -19.8069 
  65   2.0000      -0.719249       -19.5718 
  66   2.0000      -0.706546       -19.2261 
  67   2.0000      -0.697941       -18.9919 
  68   2.0000      -0.695078       -18.9140 
  69   2.0000      -0.652042       -17.7430 
  70   2.0000      -0.651554       -17.7297 
  71   2.0000      -0.650679       -17.7059 
  72   2.0000      -0.633007       -17.2250 
  73   2.0000      -0.621971       -16.9247 
  74   2.0000      -0.617949       -16.8153 
  75   2.0000      -0.612714       -16.6728 
  76   2.0000      -0.609002       -16.5718 
  77   2.0000      -0.607982       -16.5440 
  78   2.0000      -0.607935       -16.5428 
  79   2.0000      -0.591380       -16.0923 
  80   2.0000      -0.586290       -15.9538 
  81   2.0000      -0.578537       -15.7428 
  82   2.0000      -0.578267       -15.7355 
  83   2.0000      -0.561722       -15.2852 
  84   2.0000      -0.561192       -15.2708 
  85   2.0000      -0.538725       -14.6595 
  86   2.0000      -0.536729       -14.6051 
  87   2.0000      -0.515259       -14.0209 
  88   2.0000      -0.505121       -13.7450 
  89   2.0000      -0.504766       -13.7354 
  90   2.0000      -0.490146       -13.3376 
  91   2.0000      -0.478158       -13.0114 
  92   2.0000      -0.476445       -12.9647 
  93   2.0000      -0.475734       -12.9454 
  94   2.0000      -0.471889       -12.8407 
  95   2.0000      -0.470234       -12.7957 
  96   2.0000      -0.470084       -12.7916 
  97   2.0000      -0.469014       -12.7625 
  98   2.0000      -0.468973       -12.7614 
  99   2.0000      -0.456626       -12.4254 
 100   2.0000      -0.456571       -12.4239 
 101   2.0000      -0.435031       -11.8378 
 102   2.0000      -0.434981       -11.8364 
 103   2.0000      -0.428266       -11.6537 
 104   2.0000      -0.426861       -11.6155 
 105   2.0000      -0.423278       -11.5180 
 106   2.0000      -0.423273       -11.5178 
 107   2.0000      -0.422973       -11.5097 
 108   2.0000      -0.422218       -11.4891 
 109   2.0000      -0.421745       -11.4763 
 110   2.0000      -0.421629       -11.4731 
 111   2.0000      -0.421580       -11.4718 
 112   2.0000      -0.420927       -11.4540 
 113   2.0000      -0.416079       -11.3221 
 114   2.0000      -0.415726       -11.3125 
 115   2.0000      -0.409908       -11.1542 
 116   2.0000      -0.409481       -11.1426 
 117   2.0000      -0.396942       -10.8013 
 118   2.0000      -0.393839       -10.7169 
 119   2.0000      -0.383216       -10.4278 
 120   2.0000      -0.382399       -10.4056 
 121   2.0000      -0.377345       -10.2681 
 122   2.0000      -0.373320       -10.1585 
 123   2.0000      -0.369952       -10.0669 
 124   2.0000      -0.367742       -10.0068 
 125   2.0000      -0.364485        -9.9182 
 126   2.0000      -0.364397        -9.9158 
 127   2.0000      -0.360591        -9.8122 
 128   2.0000      -0.360089        -9.7985 
 129   2.0000      -0.358323        -9.7505 
 130   2.0000      -0.356119        -9.6905 
 131   2.0000      -0.355850        -9.6832 
 132   2.0000      -0.352368        -9.5884 
 133   2.0000      -0.349388        -9.5073 
 134   2.0000      -0.349300        -9.5049 
 135   2.0000      -0.342560        -9.3215 
 136   2.0000      -0.340541        -9.2666 
 137   2.0000      -0.332970        -9.0606 
 138   2.0000      -0.332570        -9.0497 
 139   2.0000      -0.332447        -9.0464 
 140   2.0000      -0.328032        -8.9262 
 141   2.0000      -0.326903        -8.8955 
 142   2.0000      -0.325301        -8.8519 
 143   2.0000      -0.325114        -8.8468 
 144   2.0000      -0.324312        -8.8250 
 145   2.0000      -0.321983        -8.7616 
 146   2.0000      -0.321757        -8.7555 
 147   2.0000      -0.320895        -8.7320 
 148   2.0000      -0.320830        -8.7302 
 149   2.0000      -0.319392        -8.6911 
 150   2.0000      -0.314998        -8.5715 
 151   2.0000      -0.296376        -8.0648 
 152   2.0000      -0.274556        -7.4710 
 153   2.0000      -0.266685        -7.2569 
 154   2.0000      -0.266538        -7.2529 
 155   2.0000      -0.264719        -7.2034 
 156   2.0000      -0.257792        -7.0149 
 157   2.0000      -0.257792        -7.0149 
 158   2.0000      -0.246852        -6.7172 
 159   2.0000      -0.241735        -6.5780 
 160   2.0000      -0.241452        -6.5702 
 161   2.0000      -0.216471        -5.8905 
 162   2.0000      -0.191137        -5.2011 
 163   0.0000      -0.072197        -1.9646 
 164   0.0000      -0.045358        -1.2343 
 165   0.0000      -0.014277        -0.3885 
 166   0.0000      -0.009430        -0.2566 
 167   0.0000      -0.009430        -0.2566 
 168   0.0000       0.000140         0.0038 
 169   0.0000       0.001308         0.0356 
 170   0.0000       0.011194         0.3046 
 171   0.0000       0.039786         1.0826 
 172   0.0000       0.047897         1.3033 
 173   0.0000       0.053666         1.4603 
 174   0.0000       0.055277         1.5042 
 175   0.0000       0.055616         1.5134 
 176   0.0000       0.056073         1.5258 
 177   0.0000       0.058653         1.5960 
 178   0.0000       0.065592         1.7848 
 179   0.0000       0.066375         1.8062 
 180   0.0000       0.066916         1.8209 
 181   0.0000       0.071730         1.9519 
 182   0.0000       0.073841         2.0093 
 183   0.0000       0.082380         2.2417 
 184   0.0000       0.082987         2.2582 
 185   0.0000       0.090034         2.4500 
 186   0.0000       0.090428         2.4607 
 187   0.0000       0.090580         2.4648 
 188   0.0000       0.093129         2.5342 
 189   0.0000       0.094455         2.5702 
 190   0.0000       0.098792         2.6883 
 191   0.0000       0.101517         2.7624 
 192   0.0000       0.101894         2.7727 
 193   0.0000       0.105413         2.8684 
 194   0.0000       0.106730         2.9043 
 195   0.0000       0.107368         2.9216 
 196   0.0000       0.113027         3.0756 
 197   0.0000       0.116076         3.1586 
 198   0.0000       0.123385         3.3575 
 199   0.0000       0.124450         3.3865 
 200   0.0000       0.128966         3.5093 
 201   0.0000       0.128969         3.5094 
 202   0.0000       0.132182         3.5969 
 203   0.0000       0.138445         3.7673 
 204   0.0000       0.139052         3.7838 
 205   0.0000       0.144396         3.9292 
 206   0.0000       0.144813         3.9406 
 207   0.0000       0.145795         3.9673 
 208   0.0000       0.147265         4.0073 
 209   0.0000       0.148936         4.0527 
 210   0.0000       0.149300         4.0627 
 211   0.0000       0.154065         4.1923 
 212   0.0000       0.154566         4.2060 
 213   0.0000       0.156344         4.2543 
 214   0.0000       0.156607         4.2615 
 215   0.0000       0.158703         4.3185 
 216   0.0000       0.159572         4.3422 
 217   0.0000       0.161862         4.4045 
 218   0.0000       0.164650         4.4803 
 219   0.0000       0.165224         4.4960 
[...]
            -0.207         30.492        -0.650
            -4.050         -1.439        27.448


 Diagonalized sT*s matrix:
 
 sDSO            42.344           41.133           43.264  iso=      42.247
 sPSO           -17.708          -10.496           -9.153  iso=     -12.452
        ---------------  ---------------  ---------------
 Total           24.636           30.637           34.111  iso=      29.794

 --------------
 Nucleus  68H :
 --------------

Diamagnetic contribution to the shielding tensor (ppm) : 
            21.864        -14.276        -6.146
           -10.184         24.995         1.882
           -10.665         12.538        30.036

Paramagnetic contribution to the shielding tensor (ppm): 
             8.427         12.481         2.173
             7.557          5.442         0.378
             7.294        -10.545        -0.011

Total shielding tensor (ppm): 
            30.290         -1.795        -3.973
            -2.627         30.437         2.261
            -3.371          1.992        30.025


 Diagonalized sT*s matrix:
 
 sDSO            17.606           15.404           43.885  iso=      25.632
 sPSO             8.877           13.224           -8.244  iso=       4.619
        ---------------  ---------------  ---------------
 Total           26.484           28.629           35.640  iso=      30.251

 --------------
 Nucleus  69H :
 --------------

Diamagnetic contribution to the shielding tensor (ppm) : 
            21.908        -14.252         6.264
           -10.099         24.880        -1.804
            10.759        -12.470        30.116

Paramagnetic contribution to the shielding tensor (ppm): 
             8.402         12.488        -2.273
             7.496          5.523        -0.453
            -7.366         10.481        -0.075

Total shielding tensor (ppm): 
            30.310         -1.764         3.991
            -2.603         30.403        -2.256
             3.394         -1.989        30.041


 Diagonalized sT*s matrix:
 
 sDSO            17.628           15.404           43.872  iso=      25.635
 sPSO             8.853           13.229           -8.232  iso=       4.617
        ---------------  ---------------  ---------------
 Total           26.481           28.633           35.640  iso=      30.251

 --------------
 Nucleus  71H :
 --------------

Diamagnetic contribution to the shielding tensor (ppm) : 
            44.050          6.866        -7.337
            -8.962         19.833        -1.453
           -32.844         -0.671        40.795

Paramagnetic contribution to the shielding tensor (ppm): 
           -14.557         -8.688         4.002
             7.580         11.116         1.511
            28.126         -0.626       -15.629

Total shielding tensor (ppm): 
            29.493         -1.822        -3.335
            -1.382         30.948         0.058
            -4.719         -1.297        25.166


 Diagonalized sT*s matrix:
 
 sDSO            23.360           34.611           46.707  iso=      34.893
 sPSO            -0.820           -4.185          -14.065  iso=      -6.357
        ---------------  ---------------  ---------------
 Total           22.540           30.426           32.641  iso=      28.536

 --------------
 Nucleus  72H :
 --------------

Diamagnetic contribution to the shielding tensor (ppm) : 
            44.116          6.911         7.239
            -8.701         19.886         1.529
            32.844          0.775        40.764

Paramagnetic contribution to the shielding tensor (ppm): 
           -14.613         -8.715        -3.888
             7.353         11.076        -1.633
           -28.112          0.469       -15.629

Total shielding tensor (ppm): 
            29.503         -1.803         3.351
            -1.348         30.963        -0.104
             4.732          1.243        25.135


 Diagonalized sT*s matrix:
 
 sDSO            23.458           34.619           46.689  iso=      34.922
 sPSO            -0.932           -4.197          -14.036  iso=      -6.388
        ---------------  ---------------  ---------------
 Total           22.526           30.421           32.653  iso=      28.534

 --------------
 Nucleus  74H :
 --------------

Diamagnetic contribution to the shielding tensor (ppm) : 
            41.959         -5.903        -5.780
            -3.508         44.645         0.678
            10.629         15.364        62.997

Paramagnetic contribution to the shielding tensor (ppm): 
           -10.905          6.569         2.215
             4.151        -13.559        -0.468
           -14.162        -13.742       -35.955

Total shielding tensor (ppm): 
            31.055          0.665        -3.564
             0.643         31.086         0.210
            -3.533          1.621        27.042


 Diagonalized sT*s matrix:
 
 sDSO            57.862           47.448           44.291  iso=      49.867
 sPSO           -33.088          -16.170          -11.160  iso=     -20.139
        ---------------  ---------------  ---------------
 Total           24.774           31.278           33.131  iso=      29.728

 --------------
 Nucleus  75H :
 --------------

Diamagnetic contribution to the shielding tensor (ppm) : 
            41.941         -5.871         5.832
            -3.590         44.501        -0.578
           -10.581        -15.202        63.117

Paramagnetic contribution to the shielding tensor (ppm): 
           -10.874          6.567        -2.272
             4.264        -13.431         0.335
            14.112         13.551       -36.076

Total shielding tensor (ppm): 
            31.067          0.696         3.560
             0.674         31.070        -0.243
             3.531         -1.651        27.041


 Diagonalized sT*s matrix:
 
 sDSO            57.857           47.471           44.231  iso=      49.853
 sPSO           -33.094          -16.195          -11.093  iso=     -20.127
        ---------------  ---------------  ---------------
 Total           24.763           31.277           33.138  iso=      29.726

 --------------
 Nucleus  77H :
 --------------

Diamagnetic contribution to the shielding tensor (ppm) : 
            30.291         13.963        -8.439
             7.035         17.169         0.687
           -23.173        -13.295        29.406

Paramagnetic contribution to the shielding tensor (ppm): 
             0.777        -14.074         3.892
            -7.020         13.423        -1.323
            18.880         11.876        -1.658

Total shielding tensor (ppm): 
            31.068         -0.111        -4.547
             0.015         30.592        -0.636
            -4.293         -1.419        27.748


 Diagonalized sT*s matrix:
 
 sDSO            15.200           13.647           48.020  iso=      25.622
 sPSO             9.361           16.988          -13.806  iso=       4.181
        ---------------  ---------------  ---------------
 Total           24.560           30.635           34.214  iso=      29.803

 --------------
 Nucleus  78H :
 --------------

Diamagnetic contribution to the shielding tensor (ppm) : 
            30.357         14.053         8.309
             7.206         17.271        -0.665
            23.066         13.341        29.254

Paramagnetic contribution to the shielding tensor (ppm): 
             0.729        -14.131        -3.763
            -7.159         13.339         1.278
           -18.775        -11.948        -1.541

Total shielding tensor (ppm): 
            31.086         -0.077         4.545
             0.047         30.610         0.613
             4.292          1.393        27.713


 Diagonalized sT*s matrix:
 
 sDSO            15.245           13.670           47.967  iso=      25.627
 sPSO             9.310           16.968          -13.751  iso=       4.176
        ---------------  ---------------  ---------------
 Total           24.555           30.638           34.217  iso=      29.803

 --------------
 Nucleus  80H :
 --------------

Diamagnetic contribution to the shielding tensor (ppm) : 
            21.157         -8.155         6.030
             8.515         38.399        -1.754
            -9.244        -15.352        47.111

Paramagnetic contribution to the shielding tensor (ppm): 
             9.429          6.799        -2.232
           -10.693         -8.089        -0.517
            12.444         13.344       -17.220

Total shielding tensor (ppm): 
            30.586         -1.355         3.798
            -2.178         30.310        -2.272
             3.201         -2.008        29.892


 Diagonalized sT*s matrix:
 
 sDSO            36.374           31.953           38.341  iso=      35.556
 sPSO            -9.713           -3.104           -3.062  iso=      -5.293
        ---------------  ---------------  ---------------
 Total           26.661           28.849           35.278  iso=      30.263

 --------------
 Nucleus  81H :
 --------------

Diamagnetic contribution to the shielding tensor (ppm) : 
            21.154         -8.171        -5.935
             8.588         38.528         1.776
             9.222         15.458        46.970

Paramagnetic contribution to the shielding tensor (ppm): 
             9.410          6.788         2.153
           -10.786         -8.185         0.499
           -12.400        -13.446       -17.090

Total shielding tensor (ppm): 
            30.564         -1.382        -3.782
            -2.198         30.342         2.276
            -3.178          2.012        29.880


 Diagonalized sT*s matrix:
 
 sDSO            36.336           31.935           38.381  iso=      35.551
 sPSO            -9.668           -3.092           -3.106  iso=      -5.288
        ---------------  ---------------  ---------------
 Total           26.668           28.843           35.275  iso=      30.262

 --------------
 Nucleus  83H :
 --------------

Diamagnetic contribution to the shielding tensor (ppm) : 
            12.529          4.530        -0.020
            -5.431         41.955        -0.082
             0.025         -0.106        20.004

Paramagnetic contribution to the shielding tensor (ppm): 
            16.388         -2.939         0.009
             8.248         -5.780         0.031
            -0.042          0.057         5.077

Total shielding tensor (ppm): 
            28.917          1.591        -0.011
             2.817         36.175        -0.051
            -0.017         -0.049        25.081


 Diagonalized sT*s matrix:
 
 sDSO            20.004           15.054           39.430  iso=      24.829
 sPSO             5.077           13.247           -2.639  iso=       5.228
        ---------------  ---------------  ---------------
 Total           25.081           28.300           36.791  iso=      30.057

 --------------
 Nucleus  84H :
 --------------

Diamagnetic contribution to the shielding tensor (ppm) : 
            12.060         10.531        -0.063
            21.798         35.989        -0.161
            -0.116         -0.142         4.204

Paramagnetic contribution to the shielding tensor (ppm): 
            16.759         -8.525         0.052
           -18.532          0.200         0.112
             0.100          0.095        20.956

Total shielding tensor (ppm): 
            28.818          2.006        -0.011
             3.266         36.190        -0.049
            -0.016         -0.047        25.160


 Diagonalized sT*s matrix:
 
 sDSO             4.203            4.773           43.277  iso=      17.418
 sPSO            20.956           23.201           -6.243  iso=      12.638
        ---------------  ---------------  ---------------
 Total           25.160           27.974           37.035  iso=      30.056

 --------------
 Nucleus  91H :
 --------------

Diamagnetic contribution to the shielding tensor (ppm) : 
            45.517          0.216        -0.004
            -0.916         25.983        -0.256
             0.045         -0.257       -63.955

Paramagnetic contribution to the shielding tensor (ppm): 
           -21.110         -0.225         0.006
             0.902          1.181         0.238
            -0.044          0.240        85.135

Total shielding tensor (ppm): 
            24.408         -0.009         0.001
            -0.014         27.164        -0.018
             0.001         -0.017        21.180


 Diagonalized sT*s matrix:
 
 sDSO           -63.956           45.514           25.987  iso=       2.515
 sPSO            85.136          -21.107            1.177  iso=      21.735
        ---------------  ---------------  ---------------
 Total           21.180           24.407           27.165  iso=      24.251

 --------------
 Nucleus  92H :
 --------------

Diamagnetic contribution to the shielding tensor (ppm) : 
            34.948          8.710        -0.031
             5.978         35.810        -0.206
             0.011         -0.168       -23.744

Paramagnetic contribution to the shielding tensor (ppm): 
            -7.593        -10.132         0.038
            -7.367        -11.343         0.194
            -0.004          0.156        44.511

Total shielding tensor (ppm): 
            27.355         -1.422         0.007
            -1.389         24.467        -0.012
             0.007         -0.012        20.766


 Diagonalized sT*s matrix:
 
 sDSO           -23.745           40.814           29.945  iso=      15.671
 sPSO            44.511          -16.918           -2.018  iso=       8.525
        ---------------  ---------------  ---------------
 Total           20.766           23.896           27.926  iso=      24.196

 --------------
 Nucleus  93H :
 --------------

Diamagnetic contribution to the shielding tensor (ppm) : 
            38.085          3.136        -0.006
             5.538         36.352         0.130
            -0.030          0.095        68.766

Paramagnetic contribution to the shielding tensor (ppm): 
           -10.521         -6.377         0.018
            -8.015        -11.723        -0.146
             0.039         -0.112       -48.956

Total shielding tensor (ppm): 
            27.564         -3.241         0.012
            -2.477         24.629        -0.016
             0.009         -0.017        19.810


 Diagonalized sT*s matrix:
 
 sDSO            68.767           40.721           33.716  iso=      47.734
 sPSO           -48.956          -17.837           -4.406  iso=     -23.733
        ---------------  ---------------  ---------------
 Total           19.810           22.884           29.310  iso=      24.001

 --------------
 Nucleus  94H :
 --------------

Diamagnetic contribution to the shielding tensor (ppm) : 
            38.667         -0.317        -0.003
            -9.303         31.935         0.061
             0.029          0.091        65.093

Paramagnetic contribution to the shielding tensor (ppm): 
           -10.390          3.053         0.000
            11.306         -7.782        -0.076
            -0.027         -0.103       -45.575

Total shielding tensor (ppm): 
            28.276          2.736        -0.003
             2.003         24.152        -0.015
             0.001         -0.012        19.518


 Diagonalized sT*s matrix:
 
 sDSO            65.093           36.799           33.803  iso=      45.231
 sPSO           -45.575          -13.725           -4.448  iso=     -21.249
        ---------------  ---------------  ---------------
 Total           19.518           23.074           29.355  iso=      23.982

 --------------
 Nucleus  95H :
 --------------

Diamagnetic contribution to the shielding tensor (ppm) : 
            34.514         -7.274         0.018
            -7.422         37.577        -0.127
             0.044         -0.166       -20.780

Paramagnetic contribution to the shielding tensor (ppm): 
            -7.233          8.497        -0.019
             8.621        -13.114         0.117
            -0.045          0.155        41.598

Total shielding tensor (ppm): 
            27.281          1.223        -0.001
             1.199         24.463        -0.010
            -0.001         -0.011        20.818


 Diagonalized sT*s matrix:
 
 sDSO           -20.781           42.000           30.091  iso=      17.104
 sPSO            41.599          -17.986           -2.362  iso=       7.084
        ---------------  ---------------  ---------------
 Total           20.818           24.014           27.730  iso=      24.187



--------------------------------
CHEMICAL SHIELDING SUMMARY (ppm)
--------------------------------


  Nucleus  Element    Isotropic     Anisotropy
  -------  -------  ------------   ------------
      7       H           24.216         13.022 
      8       H           24.212         13.071 
     10       H           28.537          6.073 
     11       H           28.537          6.065 
     13       H           29.709          5.090 
     14       H           29.708          5.096 
     16       H           29.794          6.471 
     17       H           29.794          6.478 
     19       H           30.252          8.084 
     20       H           30.251          8.083 
     22       H           28.535          6.175 
     23       H           28.536          6.163 
     25       H           29.726          5.115 
     26       H           29.727          5.109 
     28       H           29.804          6.617 
     29       H           29.804          6.616 
     31       H           30.262          7.522 
     32       H           30.262          7.522 
     34       H           30.057         10.100 
     35       H           30.056         10.468 
     42       H           24.250          4.372 
     43       H           24.196          5.595 
     44       H           24.001          7.962 
     45       H           23.983          8.058 
     46       H           24.187          5.314 
     56       H           24.216         13.021 
     57       H           24.212         13.071 
     59       H           28.538          6.064 
     60       H           28.537          6.072 
     62       H           29.707          5.097 
     63       H           29.709          5.091 
     65       H           29.795          6.473 
     66       H           29.794          6.474 
     68       H           30.251          8.084 
     69       H           30.251          8.084 
     71       H           28.536          6.158 
     72       H           28.534          6.179 
     74       H           29.728          5.105 
     75       H           29.726          5.118 
     77       H           29.803          6.616 
     78       H           29.803          6.620 
     80       H           30.263          7.524 
     81       H           30.262          7.519 
     83       H           30.057         10.100 
     84       H           30.056         10.468 
     91       H           24.251          4.371 
     92       H           24.196          5.595 
     93       H           24.001          7.963 
     94       H           23.982          8.059 
     95       H           24.187          5.314 



-----------------------------------------
ELECTRIC AND MAGNETIC HYPERFINE STRUCTURE
-----------------------------------------


--------------------------------------------------------------------------------

Maximum memory used throughout the entire EPRNMR-calculation: 549.5 MB

Timings for individual modules:

Sum of individual times         ...      376.651 sec (=   6.278 min)
GTO integral calculation        ...       10.551 sec (=   0.176 min)   2.8 %
Spin-Orbit-Coupling Matrices    ...       33.049 sec (=   0.551 min)   8.8 %
SCF iterations                  ...      246.102 sec (=   4.102 min)  65.3 %
EPR/NMR calculation             ...       86.948 sec (=   1.449 min)  23.1 %
                             ****ORCA TERMINATED NORMALLY****
TOTAL RUN TIME: 0 days 0 hours 6 minutes 21 seconds 98 msec
