
                                 *****************
                                 * O   R   C   A *
                                 *****************

                                            #,                                       
                                            ###                                      
                                            ####                                     
                                            #####                                    
                                            ######                                   
                                           ########,                                 
                                     ,,################,,,,,                         
                               ,,#################################,,                 
                          ,,##########################################,,             
                       ,#########################################, ''#####,          
                    ,#############################################,,   '####,        
                  ,##################################################,,,,####,       
                ,###########''''           ''''###############################       
              ,#####''   ,,,,##########,,,,          '''####'''          '####       
            ,##' ,,,,###########################,,,                        '##       
           ' ,,###''''                  '''############,,,                           
         ,,##''                                '''############,,,,        ,,,,,,###''
      ,#''                                            '''#######################'''  
     '                                                          ''''####''''         
             ,#######,   #######,   ,#######,      ##                                
            ,#'     '#,  ##    ##  ,#'     '#,    #''#        ######   ,####,        
            ##       ##  ##   ,#'  ##            #'  '#       #        #'  '#        
            ##       ##  #######   ##           ,######,      #####,   #    #        
            '#,     ,#'  ##    ##  '#,     ,#' ,#      #,         ##   #,  ,#        
             '#######'   ##     ##  '#######'  #'      '#     #####' # '####'        



                  #######################################################
                  #                        -***-                        #
                  #          Department of theory and spectroscopy      #
                  #    Directorship and core code : Frank Neese         #
                  #        Max Planck Institute fuer Kohlenforschung    #
                  #                Kaiser Wilhelm Platz 1               #
                  #                 D-45470 Muelheim/Ruhr               #
                  #                      Germany                        #
                  #                                                     #
                  #                  All rights reserved                #
                  #                        -***-                        #
                  #######################################################


                         Program Version 5.0.4 -  RELEASE  -


 With contributions from (in alphabetic order):
   Daniel Aravena         : Magnetic Suceptibility
   Michael Atanasov       : Ab Initio Ligand Field Theory (pilot matlab implementation)
   Alexander A. Auer      : GIAO ZORA, VPT2 properties, NMR spectrum
   Ute Becker             : Parallelization
   Giovanni Bistoni       : ED, misc. LED, open-shell LED, HFLD
   Martin Brehm           : Molecular dynamics
   Dmytro Bykov           : SCF Hessian
   Vijay G. Chilkuri      : MRCI spin determinant printing, contributions to CSF-ICE
   Dipayan Datta          : RHF DLPNO-CCSD density
   Achintya Kumar Dutta   : EOM-CC, STEOM-CC
   Dmitry Ganyushin       : Spin-Orbit,Spin-Spin,Magnetic field MRCI
   Miquel Garcia          : C-PCM and meta-GGA Hessian, CC/C-PCM, Gaussian charge scheme
   Yang Guo               : DLPNO-NEVPT2, F12-NEVPT2, CIM, IAO-localization
   Andreas Hansen         : Spin unrestricted coupled pair/coupled cluster methods
   Benjamin Helmich-Paris : MC-RPA, TRAH-SCF, COSX integrals
   Lee Huntington         : MR-EOM, pCC
   Robert Izsak           : Overlap fitted RIJCOSX, COSX-SCS-MP3, EOM
   Marcus Kettner         : VPT2
   Christian Kollmar      : KDIIS, OOCD, Brueckner-CCSD(T), CCSD density, CASPT2, CASPT2-K
   Simone Kossmann        : Meta GGA functionals, TD-DFT gradient, OOMP2, MP2 Hessian
   Martin Krupicka        : Initial AUTO-CI
   Lucas Lang             : DCDCAS
   Marvin Lechner         : AUTO-CI (C++ implementation), FIC-MRCC
   Dagmar Lenk            : GEPOL surface, SMD
   Dimitrios Liakos       : Extrapolation schemes; Compound Job, initial MDCI parallelization
   Dimitrios Manganas     : Further ROCIS development; embedding schemes
   Dimitrios Pantazis     : SARC Basis sets
   Anastasios Papadopoulos: AUTO-CI, single reference methods and gradients
   Taras Petrenko         : DFT Hessian,TD-DFT gradient, ASA, ECA, R-Raman, ABS, FL, XAS/XES, NRVS
   Peter Pinski           : DLPNO-MP2, DLPNO-MP2 Gradient
   Christoph Reimann      : Effective Core Potentials
   Marius Retegan         : Local ZFS, SOC
   Christoph Riplinger    : Optimizer, TS searches, QM/MM, DLPNO-CCSD(T), (RO)-DLPNO pert. Triples
   Tobias Risthaus        : Range-separated hybrids, TD-DFT gradient, RPA, STAB
   Michael Roemelt        : Original ROCIS implementation
   Masaaki Saitow         : Open-shell DLPNO-CCSD energy and density
   Barbara Sandhoefer     : DKH picture change effects
   Avijit Sen             : IP-ROCIS
   Kantharuban Sivalingam : CASSCF convergence, NEVPT2, FIC-MRCI
   Bernardo de Souza      : ESD, SOC TD-DFT
   Georgi Stoychev        : AutoAux, RI-MP2 NMR, DLPNO-MP2 response
   Willem Van den Heuvel  : Paramagnetic NMR
   Boris Wezisla          : Elementary symmetry handling
   Frank Wennmohs         : Technical directorship


 We gratefully acknowledge several colleagues who have allowed us to
 interface, adapt or use parts of their codes:
   Stefan Grimme, W. Hujo, H. Kruse, P. Pracht,  : VdW corrections, initial TS optimization,
                  C. Bannwarth, S. Ehlert          DFT functionals, gCP, sTDA/sTD-DF
   Ed Valeev, F. Pavosevic, A. Kumar             : LibInt (2-el integral package), F12 methods
   Garnet Chan, S. Sharma, J. Yang, R. Olivares  : DMRG
   Ulf Ekstrom                                   : XCFun DFT Library
   Mihaly Kallay                                 : mrcc  (arbitrary order and MRCC methods)
   Jiri Pittner, Ondrej Demel                    : Mk-CCSD
   Frank Weinhold                                : gennbo (NPA and NBO analysis)
   Christopher J. Cramer and Donald G. Truhlar   : smd solvation model
   Lars Goerigk                                  : TD-DFT with DH, B97 family of functionals
   V. Asgeirsson, H. Jonsson                     : NEB implementation
   FAccTs GmbH                                   : IRC, NEB, NEB-TS, DLPNO-Multilevel, CI-OPT
                                                   MM, QMMM, 2- and 3-layer-ONIOM, Crystal-QMMM,
                                                   LR-CPCM, SF, NACMEs, symmetry and pop. for TD-DFT,
                                                   nearIR, NL-DFT gradient (VV10), updates on ESD,
                                                   ML-optimized integration grids
   S Lehtola, MJT Oliveira, MAL Marques          : LibXC Library
   Liviu Ungur et al                             : ANISO software


 Your calculation uses the libint2 library for the computation of 2-el integrals
 For citations please refer to: http://libint.valeyev.net

 Your ORCA version has been built with support for libXC version: 5.1.0
 For citations please refer to: https://tddft.org/programs/libxc/

 This ORCA versions uses:
   CBLAS   interface :  Fast vector & matrix operations
   LAPACKE interface :  Fast linear algebra routines
   SCALAPACK package :  Parallel linear algebra routines
   Shared memory     :  Shared parallel matrices
   BLAS/LAPACK       :  OpenBLAS 0.3.15  USE64BITINT DYNAMIC_ARCH NO_AFFINITY SkylakeX SINGLE_THREADED
        Core in use  :  SkylakeX
   Copyright (c) 2011-2014, The OpenBLAS Project




***************************************
The coordinates will be read from file: opt.xyz
***************************************


================================================================================

----- Orbital basis set information -----
Your calculation utilizes the basis: EPR-II
   V. Barone, in Recent Advances in Density Functional Methods, Part 1 (ed. D. P. Chong), World Scientific, Singapore, 1995, p. 287.

----- AuxJ basis set information -----
Your calculation utilizes the AutoAux generation procedure.
  G. L. Stoychev, A. A. Auer, F. Neese, J. Chem. Theory Comput. 13, 554 (2017)

----- AuxC basis set information -----
Your calculation utilizes the AutoAux generation procedure.
  G. L. Stoychev, A. A. Auer, F. Neese, J. Chem. Theory Comput. 13, 554 (2017)

----- AuxJK basis set information -----
Your calculation utilizes the AutoAux generation procedure.
  G. L. Stoychev, A. A. Auer, F. Neese, J. Chem. Theory Comput. 13, 554 (2017)

================================================================================
                                        WARNINGS
                       Please study these warnings very carefully!
================================================================================


INFO   : the flag for use of the SHARK integral package has been found!

================================================================================
                                       INPUT FILE
================================================================================
NAME = EPRII_i.inp
|  1> ! B3LYP EPR-II AUTOAUX
|  2> %pal nprocs 16 end
|  3> *XYZFile 0 1 opt.xyz
|  4> %EPRNMR
|  5>         GTENSOR   TRUE
|  6>         NUCLEI    = ALL H {SHIFT, AISO, ADIP, AORB}
|  7>         ORI       GIAO
|  8> END
|  9> 
| 10>                          ****END OF INPUT****
================================================================================

                       ****************************
                       * Single Point Calculation *
                       ****************************

---------------------------------
CARTESIAN COORDINATES (ANGSTROEM)
---------------------------------
  C      5.589420    0.070494    0.000323
  C      1.354301   -0.004021    0.001196
  C      2.077945   -1.227820    0.007689
  C      3.469512   -1.152791    0.007131
  C      4.163016    0.077262    0.000380
  C      3.439788    1.301059   -0.006152
  C      2.048304    1.226133   -0.005582
  H      4.064131   -2.066154    0.011995
  H      1.453927    2.139663   -0.010423
  C      1.327068   -2.545299    0.015085
  H      0.649770   -2.560445   -0.858829
  H      0.651130   -2.551360    0.890169
  C      2.169133   -3.823744    0.021064
  H      2.832052   -3.841510   -0.863622
  H      2.833574   -3.832344    0.904737
  C      1.310358   -5.094424    0.028430
  H      0.644664   -5.078197    0.911385
  H      0.642923   -5.087221   -0.853327
  C      2.138719   -6.381672    0.034221
  H      2.790992   -6.434047    0.923079
  H      2.788685   -6.443530   -0.855716
  C      4.190583    2.618750   -0.013465
  H      4.867852    2.634114    0.860458
  H      4.866392    2.625255   -0.888634
  C      3.347619    3.896623   -0.019206
  H      2.683120    3.904644   -0.902840
  H      2.684763    3.913549    0.865542
  C      4.204462    5.168565   -0.026450
  H      4.871909    5.162381    0.855303
  H      4.869955    5.153678   -0.909575
  C      3.373807    6.454377   -0.031892
  H      2.723860    6.514952    0.858165
  H      2.721293    6.505760   -0.920647
  C      6.812027    0.055992   -0.001076
  H      1.495387   -7.276532    0.039834
  H      4.015531    7.350393   -0.037454
  C      8.239600    0.035628   -0.001211
  C      8.941501   -1.189921    0.003875
  C     10.335909   -1.205056    0.003839
  C     11.056317   -0.005132   -0.001284
  C     10.370981    1.215245   -0.006398
  C      8.976796    1.240323   -0.006394
  H     12.148719   -0.021001   -0.001290
  H     10.927851    2.155405   -0.010410
  H      8.377633   -2.124631    0.007864
  H      8.440408    2.191098   -0.010356
  H     10.865375   -2.160908    0.007840
  C     -0.071356    0.002038    0.001357
  C     -1.295231    0.012179    0.004436
  C     -6.956006   -0.056313    0.004008
  C     -2.720887    0.018228    0.004234
  C     -3.444538    1.242028   -0.001212
  C     -4.836104    1.166992   -0.000988
  C     -5.529601   -0.063073    0.004316
  C     -4.806365   -1.286870    0.009784
  C     -3.414882   -1.211937    0.009590
  H     -5.430729    2.080355   -0.005034
  H     -2.820499   -2.125468    0.013613
  C     -2.693666    2.559518   -0.007117
  H     -2.017607    2.566502   -0.882100
  H     -2.016489    2.573745    0.866906
  C     -3.535735    3.837965   -0.011861
  H     -4.200060    3.847496   -0.895612
  H     -4.198772    3.854792    0.872756
  C     -2.676964    5.108655   -0.017780
  H     -2.009586    5.100490    0.864012
  H     -2.011214    5.093396   -0.900709
  C     -3.505330    6.395906   -0.022218
  H     -4.155308    6.456818    0.867775
  H     -4.157591    6.449220   -0.911029
  C     -5.557159   -2.604571    0.015546
  H     -6.233055   -2.612075    0.890639
  H     -6.234338   -2.618941   -0.858464
  C     -4.714192   -3.882447    0.019923
  H     -4.051222   -3.898343   -0.864759
  H     -4.049807   -3.891493    0.903632
  C     -5.571032   -5.154399    0.025593
  H     -6.236578   -5.140572    0.908696
  H     -6.238426   -5.147162   -0.856192
  C     -4.740375   -6.440215    0.029548
  H     -4.087859   -6.492622    0.918242
  H     -4.090428   -6.499763   -0.860579
  C     -8.178610   -0.041628    0.002350
  H     -2.862001    7.290773   -0.026876
  H     -5.382096   -7.336239    0.034081
  C     -9.606184   -0.021301    0.001711
  C    -10.308126    1.204228   -0.002091
  C    -11.702534    1.219316   -0.002679
  C    -12.422902    0.019362    0.000481
  C    -11.737525   -1.200999    0.004243
  C    -10.343340   -1.226029    0.004847
  H    -13.515305    0.035192    0.000002
  H    -12.294362   -2.141183    0.006710
  H     -9.744292    2.138965   -0.004547
  H     -9.806920   -2.176790    0.007751
  H    -12.232030    2.175155   -0.005632

----------------------------
CARTESIAN COORDINATES (A.U.)
----------------------------
  NO LB      ZA    FRAG     MASS         X           Y           Z
   0 C     6.0000    0    12.011   10.562474    0.133215    0.000611
   1 C     6.0000    0    12.011    2.559259   -0.007598    0.002260
   2 C     6.0000    0    12.011    3.926748   -2.320244    0.014531
   3 C     6.0000    0    12.011    6.556427   -2.178460    0.013475
   4 C     6.0000    0    12.011    7.866960    0.146004    0.000718
   5 C     6.0000    0    12.011    6.500257    2.458646   -0.011625
   6 C     6.0000    0    12.011    3.870734    2.317056   -0.010548
   7 H     1.0000    0     1.008    7.680094   -3.904466    0.022668
   8 H     1.0000    0     1.008    2.747523    4.043378   -0.019696
   9 C     6.0000    0    12.011    2.507795   -4.809918    0.028507
  10 H     1.0000    0     1.008    1.227888   -4.838539   -1.622951
  11 H     1.0000    0     1.008    1.230458   -4.821371    1.682175
  12 C     6.0000    0    12.011    4.099068   -7.225829    0.039805
  13 H     1.0000    0     1.008    5.351803   -7.259401   -1.632009
  14 H     1.0000    0     1.008    5.354680   -7.242080    1.709705
  15 C     6.0000    0    12.011    2.476217   -9.627066    0.053726
  16 H     1.0000    0     1.008    1.218238   -9.596401    1.722269
  17 H     1.0000    0     1.008    1.214949   -9.613454   -1.612554
  18 C     6.0000    0    12.011    4.041593  -12.059612    0.064669
  19 H     1.0000    0     1.008    5.274210  -12.158587    1.744366
  20 H     1.0000    0     1.008    5.269851  -12.176506   -1.617070
  21 C     6.0000    0    12.011    7.919055    4.948721   -0.025445
  22 H     1.0000    0     1.008    9.198906    4.977755    1.626031
  23 H     1.0000    0     1.008    9.196147    4.961013   -1.679274
  24 C     6.0000    0    12.011    6.326083    7.363550   -0.036295
  25 H     1.0000    0     1.008    5.070363    7.378707   -1.706121
  26 H     1.0000    0     1.008    5.073466    7.395537    1.635637
  27 C     6.0000    0    12.011    7.945281    9.767172   -0.049983
  28 H     1.0000    0     1.008    9.206573    9.755487    1.616288
  29 H     1.0000    0     1.008    9.202881    9.739041   -1.718848
  30 C     6.0000    0    12.011    6.375572   12.197005   -0.060266
  31 H     1.0000    0     1.008    5.147349   12.311475    1.621697
  32 H     1.0000    0     1.008    5.142499   12.294105   -1.739770
  33 C     6.0000    0    12.011   12.872865    0.105809   -0.002033
  34 H     1.0000    0     1.008    2.825872  -13.750652    0.075274
  35 H     1.0000    0     1.008    7.588253   13.890230   -0.070779
  36 C     6.0000    0    12.011   15.570588    0.067327   -0.002289
  37 C     6.0000    0    12.011   16.896989   -2.248624    0.007324
  38 C     6.0000    0    12.011   19.532037   -2.277226    0.007255
  39 C     6.0000    0    12.011   20.893411   -0.009699   -0.002426
  40 C     6.0000    0    12.011   19.598314    2.296481   -0.012091
  41 C     6.0000    0    12.011   16.963686    2.343870   -0.012082
  42 H     1.0000    0     1.008   22.957752   -0.039686   -0.002438
  43 H     1.0000    0     1.008   20.650646    4.073125   -0.019672
  44 H     1.0000    0     1.008   15.831432   -4.014971    0.014861
  45 H     1.0000    0     1.008   15.950059    4.140576   -0.019570
  46 H     1.0000    0     1.008   20.532584   -4.083525    0.014816
  47 C     6.0000    0    12.011   -0.134843    0.003851    0.002565
  48 C     6.0000    0    12.011   -2.447631    0.023015    0.008382
  49 C     6.0000    0    12.011  -13.144946   -0.106416    0.007575
  50 C     6.0000    0    12.011   -5.141731    0.034446    0.008001
  51 C     6.0000    0    12.011   -6.509234    2.347093   -0.002291
  52 C     6.0000    0    12.011   -9.138913    2.205295   -0.001868
  53 C     6.0000    0    12.011  -10.449432   -0.119191    0.008157
  54 C     6.0000    0    12.011   -9.082714   -2.431832    0.018489
  55 C     6.0000    0    12.011   -6.453192   -2.290229    0.018122
  56 H     1.0000    0     1.008  -10.262591    3.931301   -0.009513
  57 H     1.0000    0     1.008   -5.329971   -4.016552    0.025724
  58 C     6.0000    0    12.011   -5.090291    4.836787   -0.013450
  59 H     1.0000    0     1.008   -3.812725    4.849986   -1.666927
  60 H     1.0000    0     1.008   -3.810612    4.863673    1.638215
  61 C     6.0000    0    12.011   -6.681572    7.252702   -0.022414
  62 H     1.0000    0     1.008   -7.936962    7.270714   -1.692461
  63 H     1.0000    0     1.008   -7.934528    7.284501    1.649270
  64 C     6.0000    0    12.011   -5.058729    9.653959   -0.033599
  65 H     1.0000    0     1.008   -3.797567    9.638528    1.632746
  66 H     1.0000    0     1.008   -3.800644    9.625124   -1.702094
  67 C     6.0000    0    12.011   -6.624113   12.086510   -0.041986
  68 H     1.0000    0     1.008   -7.852394   12.201619    1.639858
  69 H     1.0000    0     1.008   -7.856708   12.187260   -1.721595
  70 C     6.0000    0    12.011  -10.501508   -4.921926    0.029377
  71 H     1.0000    0     1.008  -11.778767   -4.936105    1.683063
  72 H     1.0000    0     1.008  -11.781191   -4.949082   -1.622261
  73 C     6.0000    0    12.011   -8.908532   -7.336762    0.037650
  74 H     1.0000    0     1.008   -7.655699   -7.366801   -1.634158
  75 H     1.0000    0     1.008   -7.653027   -7.353856    1.707617
  76 C     6.0000    0    12.011  -10.527724   -9.740403    0.048364
  77 H     1.0000    0     1.008  -11.785424   -9.714273    1.717186
  78 H     1.0000    0     1.008  -11.788916   -9.726727   -1.617968
  79 C     6.0000    0    12.011   -8.958010  -12.170244    0.055838
  80 H     1.0000    0     1.008   -7.724933  -12.269277    1.735226
  81 H     1.0000    0     1.008   -7.729789  -12.282772   -1.626259
  82 C     6.0000    0    12.011  -15.455333   -0.078665    0.004441
  83 H     1.0000    0     1.008   -5.408398   13.777565   -0.050788
  84 H     1.0000    0     1.008  -10.170687  -13.863482    0.064403
  85 C     6.0000    0    12.011  -18.153056   -0.040253    0.003233
  86 C     6.0000    0    12.011  -19.479535    2.275662   -0.003951
  87 C     6.0000    0    12.011  -22.114584    2.304174   -0.005062
  88 C     6.0000    0    12.011  -23.475883    0.036589    0.000909
  89 C     6.0000    0    12.011  -22.180708   -2.269558    0.008018
  90 C     6.0000    0    12.011  -19.546080   -2.316858    0.009159
  91 H     1.0000    0     1.008  -25.540225    0.066504    0.000004
  92 H     1.0000    0     1.008  -23.232977   -4.046250    0.012681
  93 H     1.0000    0     1.008  -18.414044    4.042058   -0.008592
  94 H     1.0000    0     1.008  -18.532394   -4.113538    0.014647
  95 H     1.0000    0     1.008  -23.115187    4.110448   -0.010643

--------------------------------
INTERNAL COORDINATES (ANGSTROEM)
--------------------------------
 C      0   0   0     0.000000000000     0.00000000     0.00000000
 C      1   0   0     4.235774461560     0.00000000     0.00000000
 C      2   1   0     1.421755120740    60.41217576     0.00000000
 C      3   2   1     1.393587551674   117.50956641     0.00000000
 C      4   3   2     1.412099649612   122.50023882     0.00000000
 C      5   4   3     1.421541931816   120.00457637     0.00000000
 C      6   5   4     1.393499680456   117.49920231     0.00000000
 H      4   3   2     1.089875024763   119.97834724   179.99851243
 H      7   6   5     1.089883380879   119.96690327   179.99830245
 C      3   2   1     1.516450531693   119.72419730   179.98978475
 H     10   3   2     1.105751861555   108.13990945    56.29508436
 H     10   3   2     1.105757406009   108.13784564   303.63801724
 C     10   3   2     1.530859764951   116.94888792   179.96718349
 H     13  10   3     1.105643203225   109.88280882   301.73755950
 H     13  10   3     1.105637306309   109.88783402    58.25144954
 C     13  10   3     1.533680658623   112.57688647   179.99472217
 H     16  13  10     1.105902782795   109.19195702   302.33657715
 H     16  13  10     1.105900734312   109.19064166    57.64227202
 C     16  13  10     1.530759150822   113.18647355   179.98999609
 H     19  16  13     1.103753301567   111.26879102    59.82735545
 H     19  16  13     1.103753153567   111.26860733   300.13013687
 C      6   5   4     1.516593769647   119.74521863   180.00350743
 H     22   6   5     1.105744222991   108.14853550   303.70448701
 H     22   6   5     1.105748198987   108.14926115    56.38190948
 C     22   6   5     1.530875569165   116.91559750   180.04460610
 H     25  22   6     1.105636150552   109.87653785   301.75190084
 H     25  22   6     1.105642049249   109.87078259    58.25462090
 C     25  22   6     1.533645686376   112.62316949   180.00284550
 H     28  25  22     1.105898217999   109.19531090   302.35049678
 H     28  25  22     1.105899139151   109.19672722    57.67877228
 C     28  25  22     1.530793906918   113.17138410   180.01429636
 H     31  28  25     1.103767380760   111.26951423    59.87160310
 H     31  28  25     1.103766651204   111.26926716   300.17418861
 C      1   2   3     1.222693445705   178.31154325     2.13224841
 H     19  16  13     1.102125805520   111.52584266   179.97838259
 H     31  28  25     1.102127120981   111.52748860   180.02335717
 C     34   1   5     1.427718623901   179.84981137   327.58153261
 C     37  34   1     1.412324324283   120.61779806    23.35564581
 C     38  37  34     1.394489519971   120.42246959   180.00554034
 C     39  38  37     1.399582671940   120.35757264     0.00000000
 C     40  39  38     1.399654467860   119.70320006     0.00000000
 C     41  40  39     1.394410783875   120.34780826     0.00000000
 H     40  39  38     1.092517467070   120.14722618   179.99968723
 H     41  40  39     1.092712738376   120.04402041   179.99990104
 H     38  37  34     1.091625688337   119.09896884     0.00000000
 H     42  41  40     1.091651386039   120.46013372   179.99865664
 H     39  38  37     1.092704750493   119.60466993   179.99804418
 C      2   1   3     1.425670249023   178.74851693   179.93624312
 C     48   2   7     1.223920521947   179.73088521   328.93200051
 C     49  48   2     5.661189472048   178.82264895   203.51494362
 C     49  48   2     1.425669417015   179.72283049   177.44904327
 C     51  49  48     1.421754896657   120.83935489   213.55841612
 C     52  51  49     1.393587523851   117.50967944   180.00307707
 C     53  52  51     1.412099732048   122.50012689     0.00000000
 C     54  53  52     1.421541147100   120.00455807     0.00000000
 C     55  54  53     1.393499421592   117.49937262     0.00000000
 H     53  52  51     1.089874959879   119.97844818   179.99859733
 H     56  55  54     1.089883269394   119.96705535   180.00388074
 C     52  51  49     1.516450839563   119.72406552     0.00000000
 H     59  52  51     1.105757062001   108.13781986    56.36850737
 H     59  52  51     1.105752277408   108.13987011   303.71151265
 C     59  52  51     1.530859512575   116.94891357   180.03962500
 H     62  59  52     1.105637232635   109.88799622   301.74860638
 H     62  59  52     1.105643179400   109.88263059    58.26249113
 C     62  59  52     1.533680762527   112.57688762   180.00563645
 H     65  62  59     1.105900711449   109.19069748   302.36223180
 H     65  62  59     1.105902873268   109.19187175    57.66791910
 C     65  62  59     1.530759018424   113.18648332   180.01430550
 H     68  65  62     1.103753098393   111.26860250    59.87351068
 H     68  65  62     1.103753315901   111.26879330   300.17628964
 C     55  54  53     1.516594518549   119.74495869   179.99651763
 H     71  55  54     1.105748505163   108.15004580   303.60682481
 H     71  55  54     1.105744181955   108.14773253    56.28436086
 C     71  55  54     1.530875678385   116.91561211   179.94382479
 H     74  71  55     1.105642524012   109.87030025   301.74830200
 H     74  71  55     1.105635649575   109.87692937    58.25094727
 C     74  71  55     1.533645582470   112.62322115   179.99975097
 H     77  74  71     1.105899059559   109.19672241   302.31655599
 H     77  74  71     1.105898353179   109.19530153    57.64482259
 C     77  74  71     1.530793904895   113.17141106   179.98113453
 H     80  77  74     1.103766405461   111.26918468    59.82142830
 H     80  77  74     1.103767566051   111.26960121   300.12401996
 C     50  49  48     1.222693601906   178.61666336   190.28376396
 H     68  65  62     1.102125904415   111.52584752   180.02535278
 H     80  77  74     1.102127101432   111.52749569   179.97212874
 C     83  50  54     1.427718484952   179.86221450   328.90344040
 C     86  83  50     1.412324029007   120.61836152    22.34989728
 C     87  86  83     1.394489879209   120.42252743   180.00112427
 C     88  87  86     1.399582487793   120.35756948     0.00000000
 C     89  88  87     1.399655566563   119.70316708     0.00000000
 C     90  89  88     1.394410169570   120.34786331     0.00000000
 H     89  88  87     1.092517334740   120.14727351   180.00041625
 H     90  89  88     1.092712707945   120.04412583   180.00064995
 H     87  86  83     1.091625911655   119.09917023     0.00000000
 H     91  90  89     1.091651182380   120.46016784   180.00167982
 H     88  87  86     1.092704579450   119.60457565   179.99971469

---------------------------
INTERNAL COORDINATES (A.U.)
---------------------------
 C      0   0   0     0.000000000000     0.00000000     0.00000000
 C      1   0   0     8.004453697407     0.00000000     0.00000000
 C      2   1   0     2.686727807698    60.41217576     0.00000000
 C      3   2   1     2.633498816306   117.50956641     0.00000000
 C      4   3   2     2.668481611573   122.50023882     0.00000000
 C      5   4   3     2.686324939018   120.00457637     0.00000000
 C      6   5   4     2.633332763769   117.49920231     0.00000000
 H      4   3   2     2.059565317003   119.97834724   179.99851243
 H      7   6   5     2.059581107773   119.96690327   179.99830245
 C      3   2   1     2.865676200539   119.72419730   179.98978475
 H     10   3   2     2.089568190413   108.13990945    56.29508436
 H     10   3   2     2.089578667912   108.13784564   303.63801724
 C     10   3   2     2.892905705196   116.94888792   179.96718349
 H     13  10   3     2.089362855927   109.88280882   301.73755950
 H     13  10   3     2.089351712370   109.88783402    58.25144954
 C     13  10   3     2.898236421690   112.57688647   179.99472217
 H     16  13  10     2.089853390223   109.19195702   302.33657715
 H     16  13  10     2.089849519153   109.19064166    57.64227202
 C     16  13  10     2.892715572047   113.18647355   179.98999609
 H     19  16  13     2.085791459372   111.26879102    59.82735545
 H     19  16  13     2.085791179694   111.26860733   300.13013687
 C      6   5   4     2.865946881044   119.74521863   180.00350743
 H     22   6   5     2.089553755618   108.14853550   303.70448701
 H     22   6   5     2.089561269162   108.14926115    56.38190948
 C     22   6   5     2.892935570832   116.91559750   180.04460610
 H     25  22   6     2.089349528306   109.87653785   301.75190084
 H     25  22   6     2.089360675229   109.87078259    58.25462090
 C     25  22   6     2.898170333720   112.62316949   180.00284550
 H     28  25  22     2.089844764010   109.19531090   302.35049678
 H     28  25  22     2.089846504735   109.19672722    57.67877228
 C     28  25  22     2.892781251551   113.17138410   180.01429636
 H     31  28  25     2.085818065192   111.26951423    59.87160310
 H     31  28  25     2.085816686531   111.26926716   300.17418861
 C      1   2   3     2.310555758123   178.31154325     2.13224841
 H     19  16  13     2.082715937560   111.52584266   179.97838259
 H     31  28  25     2.082718423421   111.52748860   180.02335717
 C     34   1   5     2.697997195471   179.84981137   327.58153261
 C     37  34   1     2.668906185171   120.61779806    23.35564581
 C     38  37  34     2.635203289368   120.42246959   180.00554034
 C     39  38  37     2.644827951748   120.35757264     0.00000000
 C     40  39  38     2.644963626375   119.70320006     0.00000000
 C     41  40  39     2.635054499710   120.34780826     0.00000000
 H     40  39  38     2.064558809287   120.14722618   179.99968723
 H     41  40  39     2.064927818578   120.04402041   179.99990104
 H     38  37  34     2.062873591710   119.09896884     0.00000000
 H     42  41  40     2.062922153329   120.46013372   179.99865664
 H     39  38  37     2.064912723666   119.60466993   179.99804418
 C      2   1   3     2.694126327932   178.74851693   179.93624312
 C     48   2   7     2.312874596166   179.73088521   328.93200051
 C     49  48   2    10.698097694408   178.82264895   203.51494362
 C     49  48   2     2.694124755666   179.72283049   177.44904327
 C     51  49  48     2.686727384243   120.83935489   213.55841612
 C     52  51  49     2.633498763727   117.50967944   180.00307707
 C     53  52  51     2.668481767355   122.50012689     0.00000000
 C     54  53  52     2.686323456119   120.00455807     0.00000000
 C     55  54  53     2.633332274586   117.49937262     0.00000000
 H     53  52  51     2.059565194389   119.97844818   179.99859733
 H     56  55  54     2.059580897098   119.96705535   180.00388074
 C     52  51  49     2.865676782329   119.72406552     0.00000000
 H     59  52  51     2.089578017832   108.13781986    56.36850737
 H     59  52  51     2.089568976261   108.13987011   303.71151265
 C     59  52  51     2.892905228274   116.94891357   180.03962500
 H     62  59  52     2.089351573147   109.88799622   301.74860638
 H     62  59  52     2.089362810905   109.88263059    58.26249113
 C     62  59  52     2.898236618039   112.57688762   180.00563645
 H     65  62  59     2.089849475948   109.19069748   302.36223180
 H     65  62  59     2.089853561194   109.19187175    57.66791910
 C     65  62  59     2.892715321851   113.18648332   180.01430550
 H     68  65  62     2.085791075431   111.26860250    59.87351068
 H     68  65  62     2.085791486461   111.26879330   300.17628964
 C     55  54  53     2.865948296265   119.74495869   179.99651763
 H     71  55  54     2.089561847750   108.15004580   303.60682481
 H     71  55  54     2.089553678071   108.14773253    56.28436086
 C     71  55  54     2.892935777229   116.91561211   179.94382479
 H     74  71  55     2.089361572401   109.87030025   301.74830200
 H     74  71  55     2.089348581597   109.87692937    58.25094727
 C     74  71  55     2.898170137366   112.62322115   179.99975097
 H     77  74  71     2.089846354327   109.19672241   302.31655599
 H     77  74  71     2.089845019463   109.19530153    57.64482259
 C     77  74  71     2.892781247728   113.17141106   179.98113453
 H     80  77  74     2.085816222143   111.26918468    59.82142830
 H     80  77  74     2.085818415342   111.26960121   300.12401996
 C     50  49  48     2.310556053301   178.61666336   190.28376396
 H     68  65  62     2.082716124445   111.52584752   180.02535278
 H     80  77  74     2.082718386479   111.52749569   179.97212874
 C     83  50  54     2.697996932896   179.86221450   328.90344040
 C     86  83  50     2.668905627179   120.61836152    22.34989728
 C     87  86  83     2.635203968230   120.42252743   180.00112427
 C     88  87  86     2.644827603760   120.35756948     0.00000000
 C     89  88  87     2.644965702622   119.70316708     0.00000000
 C     90  89  88     2.635053338841   120.34786331     0.00000000
 H     89  88  87     2.064558559221   120.14727351   180.00041625
 H     90  89  88     2.064927761071   120.04412583   180.00064995
 H     87  86  83     2.062874013719   119.09917023     0.00000000
 H     91  90  89     2.062921768470   120.46016784   180.00167982
 H     88  87  86     2.064912400441   119.60457565   179.99971469

---------------------
BASIS SET INFORMATION
---------------------
There are 2 groups of distinct atoms

 Group   1 Type C   : 10s5p1d contracted to 6s2p1d pattern {511111/41/1}
 Group   2 Type H   : 6s1p contracted to 4s1p pattern {3111/1}

Atom   0C    basis set group =>   1
Atom   1C    basis set group =>   1
Atom   2C    basis set group =>   1
Atom   3C    basis set group =>   1
Atom   4C    basis set group =>   1
Atom   5C    basis set group =>   1
Atom   6C    basis set group =>   1
Atom   7H    basis set group =>   2
Atom   8H    basis set group =>   2
Atom   9C    basis set group =>   1
Atom  10H    basis set group =>   2
Atom  11H    basis set group =>   2
Atom  12C    basis set group =>   1
Atom  13H    basis set group =>   2
Atom  14H    basis set group =>   2
Atom  15C    basis set group =>   1
Atom  16H    basis set group =>   2
Atom  17H    basis set group =>   2
Atom  18C    basis set group =>   1
Atom  19H    basis set group =>   2
Atom  20H    basis set group =>   2
Atom  21C    basis set group =>   1
Atom  22H    basis set group =>   2
Atom  23H    basis set group =>   2
Atom  24C    basis set group =>   1
Atom  25H    basis set group =>   2
Atom  26H    basis set group =>   2
Atom  27C    basis set group =>   1
Atom  28H    basis set group =>   2
Atom  29H    basis set group =>   2
Atom  30C    basis set group =>   1
Atom  31H    basis set group =>   2
Atom  32H    basis set group =>   2
Atom  33C    basis set group =>   1
Atom  34H    basis set group =>   2
Atom  35H    basis set group =>   2
Atom  36C    basis set group =>   1
Atom  37C    basis set group =>   1
Atom  38C    basis set group =>   1
Atom  39C    basis set group =>   1
Atom  40C    basis set group =>   1
Atom  41C    basis set group =>   1
Atom  42H    basis set group =>   2
Atom  43H    basis set group =>   2
Atom  44H    basis set group =>   2
Atom  45H    basis set group =>   2
Atom  46H    basis set group =>   2
Atom  47C    basis set group =>   1
Atom  48C    basis set group =>   1
Atom  49C    basis set group =>   1
Atom  50C    basis set group =>   1
Atom  51C    basis set group =>   1
Atom  52C    basis set group =>   1
Atom  53C    basis set group =>   1
Atom  54C    basis set group =>   1
Atom  55C    basis set group =>   1
Atom  56H    basis set group =>   2
Atom  57H    basis set group =>   2
Atom  58C    basis set group =>   1
Atom  59H    basis set group =>   2
Atom  60H    basis set group =>   2
Atom  61C    basis set group =>   1
Atom  62H    basis set group =>   2
Atom  63H    basis set group =>   2
Atom  64C    basis set group =>   1
Atom  65H    basis set group =>   2
Atom  66H    basis set group =>   2
Atom  67C    basis set group =>   1
Atom  68H    basis set group =>   2
Atom  69H    basis set group =>   2
Atom  70C    basis set group =>   1
Atom  71H    basis set group =>   2
Atom  72H    basis set group =>   2
Atom  73C    basis set group =>   1
Atom  74H    basis set group =>   2
Atom  75H    basis set group =>   2
Atom  76C    basis set group =>   1
Atom  77H    basis set group =>   2
Atom  78H    basis set group =>   2
Atom  79C    basis set group =>   1
Atom  80H    basis set group =>   2
Atom  81H    basis set group =>   2
Atom  82C    basis set group =>   1
Atom  83H    basis set group =>   2
Atom  84H    basis set group =>   2
Atom  85C    basis set group =>   1
Atom  86C    basis set group =>   1
Atom  87C    basis set group =>   1
Atom  88C    basis set group =>   1
Atom  89C    basis set group =>   1
Atom  90C    basis set group =>   1
Atom  91H    basis set group =>   2
Atom  92H    basis set group =>   2
Atom  93H    basis set group =>   2
Atom  94H    basis set group =>   2
Atom  95H    basis set group =>   2
---------------------------------
AUXILIARY/J BASIS SET INFORMATION
---------------------------------
There are 2 groups of distinct atoms

 Group   1 Type C   : 17s13p12d2f contracted to 17s13p12d2f pattern {11111111111111111/1111111111111/111111111111/11}
 Group   2 Type H   : 15s6p1d contracted to 15s6p1d pattern {111111111111111/111111/1}

Atom   0C    basis set group =>   1
Atom   1C    basis set group =>   1
Atom   2C    basis set group =>   1
Atom   3C    basis set group =>   1
Atom   4C    basis set group =>   1
Atom   5C    basis set group =>   1
Atom   6C    basis set group =>   1
Atom   7H    basis set group =>   2
Atom   8H    basis set group =>   2
Atom   9C    basis set group =>   1
Atom  10H    basis set group =>   2
Atom  11H    basis set group =>   2
Atom  12C    basis set group =>   1
Atom  13H    basis set group =>   2
Atom  14H    basis set group =>   2
Atom  15C    basis set group =>   1
Atom  16H    basis set group =>   2
Atom  17H    basis set group =>   2
Atom  18C    basis set group =>   1
Atom  19H    basis set group =>   2
Atom  20H    basis set group =>   2
Atom  21C    basis set group =>   1
Atom  22H    basis set group =>   2
Atom  23H    basis set group =>   2
Atom  24C    basis set group =>   1
Atom  25H    basis set group =>   2
Atom  26H    basis set group =>   2
Atom  27C    basis set group =>   1
Atom  28H    basis set group =>   2
Atom  29H    basis set group =>   2
Atom  30C    basis set group =>   1
Atom  31H    basis set group =>   2
Atom  32H    basis set group =>   2
Atom  33C    basis set group =>   1
Atom  34H    basis set group =>   2
Atom  35H    basis set group =>   2
Atom  36C    basis set group =>   1
Atom  37C    basis set group =>   1
Atom  38C    basis set group =>   1
Atom  39C    basis set group =>   1
Atom  40C    basis set group =>   1
Atom  41C    basis set group =>   1
Atom  42H    basis set group =>   2
Atom  43H    basis set group =>   2
Atom  44H    basis set group =>   2
Atom  45H    basis set group =>   2
Atom  46H    basis set group =>   2
Atom  47C    basis set group =>   1
Atom  48C    basis set group =>   1
Atom  49C    basis set group =>   1
Atom  50C    basis set group =>   1
Atom  51C    basis set group =>   1
Atom  52C    basis set group =>   1
Atom  53C    basis set group =>   1
Atom  54C    basis set group =>   1
Atom  55C    basis set group =>   1
Atom  56H    basis set group =>   2
Atom  57H    basis set group =>   2
Atom  58C    basis set group =>   1
Atom  59H    basis set group =>   2
Atom  60H    basis set group =>   2
Atom  61C    basis set group =>   1
Atom  62H    basis set group =>   2
Atom  63H    basis set group =>   2
Atom  64C    basis set group =>   1
Atom  65H    basis set group =>   2
Atom  66H    basis set group =>   2
Atom  67C    basis set group =>   1
Atom  68H    basis set group =>   2
Atom  69H    basis set group =>   2
Atom  70C    basis set group =>   1
Atom  71H    basis set group =>   2
Atom  72H    basis set group =>   2
Atom  73C    basis set group =>   1
Atom  74H    basis set group =>   2
Atom  75H    basis set group =>   2
Atom  76C    basis set group =>   1
Atom  77H    basis set group =>   2
Atom  78H    basis set group =>   2
Atom  79C    basis set group =>   1
Atom  80H    basis set group =>   2
Atom  81H    basis set group =>   2
Atom  82C    basis set group =>   1
Atom  83H    basis set group =>   2
Atom  84H    basis set group =>   2
Atom  85C    basis set group =>   1
Atom  86C    basis set group =>   1
Atom  87C    basis set group =>   1
Atom  88C    basis set group =>   1
Atom  89C    basis set group =>   1
Atom  90C    basis set group =>   1
Atom  91H    basis set group =>   2
Atom  92H    basis set group =>   2
Atom  93H    basis set group =>   2
Atom  94H    basis set group =>   2
Atom  95H    basis set group =>   2
---------------------------------
AUXILIARY/C BASIS SET INFORMATION
---------------------------------
There are 2 groups of distinct atoms

 Group   1 Type C   : 17s13p12d2f contracted to 17s13p12d2f pattern {11111111111111111/1111111111111/111111111111/11}
 Group   2 Type H   : 15s6p1d contracted to 15s6p1d pattern {111111111111111/111111/1}

Atom   0C    basis set group =>   1
Atom   1C    basis set group =>   1
Atom   2C    basis set group =>   1
Atom   3C    basis set group =>   1
Atom   4C    basis set group =>   1
Atom   5C    basis set group =>   1
Atom   6C    basis set group =>   1
Atom   7H    basis set group =>   2
Atom   8H    basis set group =>   2
Atom   9C    basis set group =>   1
Atom  10H    basis set group =>   2
Atom  11H    basis set group =>   2
Atom  12C    basis set group =>   1
Atom  13H    basis set group =>   2
Atom  14H    basis set group =>   2
Atom  15C    basis set group =>   1
Atom  16H    basis set group =>   2
Atom  17H    basis set group =>   2
Atom  18C    basis set group =>   1
Atom  19H    basis set group =>   2
Atom  20H    basis set group =>   2
Atom  21C    basis set group =>   1
Atom  22H    basis set group =>   2
Atom  23H    basis set group =>   2
Atom  24C    basis set group =>   1
Atom  25H    basis set group =>   2
Atom  26H    basis set group =>   2
Atom  27C    basis set group =>   1
Atom  28H    basis set group =>   2
Atom  29H    basis set group =>   2
Atom  30C    basis set group =>   1
Atom  31H    basis set group =>   2
Atom  32H    basis set group =>   2
Atom  33C    basis set group =>   1
Atom  34H    basis set group =>   2
Atom  35H    basis set group =>   2
Atom  36C    basis set group =>   1
Atom  37C    basis set group =>   1
Atom  38C    basis set group =>   1
Atom  39C    basis set group =>   1
Atom  40C    basis set group =>   1
Atom  41C    basis set group =>   1
Atom  42H    basis set group =>   2
Atom  43H    basis set group =>   2
Atom  44H    basis set group =>   2
Atom  45H    basis set group =>   2
Atom  46H    basis set group =>   2
Atom  47C    basis set group =>   1
Atom  48C    basis set group =>   1
Atom  49C    basis set group =>   1
Atom  50C    basis set group =>   1
Atom  51C    basis set group =>   1
Atom  52C    basis set group =>   1
Atom  53C    basis set group =>   1
Atom  54C    basis set group =>   1
Atom  55C    basis set group =>   1
Atom  56H    basis set group =>   2
Atom  57H    basis set group =>   2
Atom  58C    basis set group =>   1
Atom  59H    basis set group =>   2
Atom  60H    basis set group =>   2
Atom  61C    basis set group =>   1
Atom  62H    basis set group =>   2
Atom  63H    basis set group =>   2
Atom  64C    basis set group =>   1
Atom  65H    basis set group =>   2
Atom  66H    basis set group =>   2
Atom  67C    basis set group =>   1
Atom  68H    basis set group =>   2
Atom  69H    basis set group =>   2
Atom  70C    basis set group =>   1
Atom  71H    basis set group =>   2
Atom  72H    basis set group =>   2
Atom  73C    basis set group =>   1
Atom  74H    basis set group =>   2
Atom  75H    basis set group =>   2
Atom  76C    basis set group =>   1
Atom  77H    basis set group =>   2
Atom  78H    basis set group =>   2
Atom  79C    basis set group =>   1
Atom  80H    basis set group =>   2
Atom  81H    basis set group =>   2
Atom  82C    basis set group =>   1
Atom  83H    basis set group =>   2
Atom  84H    basis set group =>   2
Atom  85C    basis set group =>   1
Atom  86C    basis set group =>   1
Atom  87C    basis set group =>   1
Atom  88C    basis set group =>   1
Atom  89C    basis set group =>   1
Atom  90C    basis set group =>   1
Atom  91H    basis set group =>   2
Atom  92H    basis set group =>   2
Atom  93H    basis set group =>   2
Atom  94H    basis set group =>   2
Atom  95H    basis set group =>   2
----------------------------------
AUXILIARY/JK BASIS SET INFORMATION
----------------------------------
There are 2 groups of distinct atoms

 Group   1 Type C   : 17s13p12d2f contracted to 17s13p12d2f pattern {11111111111111111/1111111111111/111111111111/11}
 Group   2 Type H   : 15s6p1d contracted to 15s6p1d pattern {111111111111111/111111/1}

Atom   0C    basis set group =>   1
Atom   1C    basis set group =>   1
Atom   2C    basis set group =>   1
Atom   3C    basis set group =>   1
Atom   4C    basis set group =>   1
Atom   5C    basis set group =>   1
Atom   6C    basis set group =>   1
Atom   7H    basis set group =>   2
Atom   8H    basis set group =>   2
Atom   9C    basis set group =>   1
Atom  10H    basis set group =>   2
Atom  11H    basis set group =>   2
Atom  12C    basis set group =>   1
Atom  13H    basis set group =>   2
Atom  14H    basis set group =>   2
Atom  15C    basis set group =>   1
Atom  16H    basis set group =>   2
Atom  17H    basis set group =>   2
Atom  18C    basis set group =>   1
Atom  19H    basis set group =>   2
Atom  20H    basis set group =>   2
Atom  21C    basis set group =>   1
Atom  22H    basis set group =>   2
Atom  23H    basis set group =>   2
Atom  24C    basis set group =>   1
Atom  25H    basis set group =>   2
Atom  26H    basis set group =>   2
Atom  27C    basis set group =>   1
Atom  28H    basis set group =>   2
Atom  29H    basis set group =>   2
Atom  30C    basis set group =>   1
Atom  31H    basis set group =>   2
Atom  32H    basis set group =>   2
Atom  33C    basis set group =>   1
Atom  34H    basis set group =>   2
Atom  35H    basis set group =>   2
Atom  36C    basis set group =>   1
Atom  37C    basis set group =>   1
Atom  38C    basis set group =>   1
Atom  39C    basis set group =>   1
Atom  40C    basis set group =>   1
Atom  41C    basis set group =>   1
Atom  42H    basis set group =>   2
Atom  43H    basis set group =>   2
Atom  44H    basis set group =>   2
Atom  45H    basis set group =>   2
Atom  46H    basis set group =>   2
Atom  47C    basis set group =>   1
Atom  48C    basis set group =>   1
Atom  49C    basis set group =>   1
Atom  50C    basis set group =>   1
Atom  51C    basis set group =>   1
Atom  52C    basis set group =>   1
Atom  53C    basis set group =>   1
Atom  54C    basis set group =>   1
Atom  55C    basis set group =>   1
Atom  56H    basis set group =>   2
Atom  57H    basis set group =>   2
Atom  58C    basis set group =>   1
Atom  59H    basis set group =>   2
Atom  60H    basis set group =>   2
Atom  61C    basis set group =>   1
Atom  62H    basis set group =>   2
Atom  63H    basis set group =>   2
Atom  64C    basis set group =>   1
Atom  65H    basis set group =>   2
Atom  66H    basis set group =>   2
Atom  67C    basis set group =>   1
Atom  68H    basis set group =>   2
Atom  69H    basis set group =>   2
Atom  70C    basis set group =>   1
Atom  71H    basis set group =>   2
Atom  72H    basis set group =>   2
Atom  73C    basis set group =>   1
Atom  74H    basis set group =>   2
Atom  75H    basis set group =>   2
Atom  76C    basis set group =>   1
Atom  77H    basis set group =>   2
Atom  78H    basis set group =>   2
Atom  79C    basis set group =>   1
Atom  80H    basis set group =>   2
Atom  81H    basis set group =>   2
Atom  82C    basis set group =>   1
Atom  83H    basis set group =>   2
Atom  84H    basis set group =>   2
Atom  85C    basis set group =>   1
Atom  86C    basis set group =>   1
Atom  87C    basis set group =>   1
Atom  88C    basis set group =>   1
Atom  89C    basis set group =>   1
Atom  90C    basis set group =>   1
Atom  91H    basis set group =>   2
Atom  92H    basis set group =>   2
Atom  93H    basis set group =>   2
Atom  94H    basis set group =>   2
Atom  95H    basis set group =>   2


           ************************************************************
           *        Program running with 16 parallel MPI-processes    *
           *              working on a common directory               *
           ************************************************************
------------------------------------------------------------------------------
                           ORCA GTO INTEGRAL CALCULATION
                           -- RI-GTO INTEGRALS CHOSEN --
------------------------------------------------------------------------------
------------------------------------------------------------------------------
                   ___                                                        
                  /   \      - P O W E R E D   B Y -                         
                 /     \                                                     
                 |  |  |   _    _      __       _____    __    __             
                 |  |  |  | |  | |    /  \     |  _  \  |  |  /  |          
                  \  \/   | |  | |   /    \    | | | |  |  | /  /          
                 / \  \   | |__| |  /  /\  \   | |_| |  |  |/  /          
                |  |  |   |  __  | /  /__\  \  |    /   |      \           
                |  |  |   | |  | | |   __   |  |    \   |  |\   \          
                \     /   | |  | | |  |  |  |  | |\  \  |  | \   \       
                 \___/    |_|  |_| |__|  |__|  |_| \__\ |__|  \__/        
                                                                              
                      - O R C A' S   B I G   F R I E N D -                    
                                      &                                       
                       - I N T E G R A L  F E E D E R -                       
                                                                              
 v1 FN, 2020, v2 2021                                                         
------------------------------------------------------------------------------


Reading SHARK input file EPRII_i.SHARKINP.tmp ... ok
----------------------
SHARK INTEGRAL PACKAGE
----------------------

Number of atoms                             ...     96
Number of basis functions                   ...   1132
Number of shells                            ...    664
Maximum angular momentum                    ...      2
Integral batch strategy                     ... SHARK/LIBINT Hybrid
RI-J (if used) integral strategy            ... SPLIT-RIJ (Revised 2003 algorithm where possible)
Printlevel                                  ...      1
Contraction scheme used                     ... SEGMENTED contraction
Coulomb Range Separation                    ... NOT USED
Exchange Range Separation                   ... NOT USED
Finite Nucleus Model                        ... NOT USED
Auxiliary Coulomb fitting basis             ... AVAILABLE
   # of basis functions in Aux-J            ...   7880
   # of shells in Aux-J                     ...   3124
   Maximum angular momentum in Aux-J        ...      3
Auxiliary J/K fitting basis                 ... AVAILABLE
   # of basis functions in Aux-JK           ...   7880
   # of shells in Aux-JK                    ...   3124
   Maximum angular momentum in Aux-JK       ...      3
Auxiliary Correlation fitting basis         ... AVAILABLE
   # of basis functions in Aux-C            ...   7880
   # of shells in Aux-C                     ...   3124
   Maximum angular momentum in Aux-C        ...      3
Auxiliary 'external' fitting basis          ... NOT available
Integral threshold                          ...     1.000000e-10
Primitive cut-off                           ...     1.000000e-11
Primitive pair pre-selection threshold      ...     1.000000e-11

Calculating pre-screening integrals         ... done (  0.1 sec) Dimension = 664
Organizing shell pair data                  ... done (  0.5 sec)
Shell pair information
Total number of shell pairs                 ...    220780
Shell pairs after pre-screening             ...     73986
Total number of primitive shell pairs       ...    591127
Primitive shell pairs kept                  ...    132640
          la=0 lb=0:  34551 shell pairs
          la=1 lb=0:  25544 shell pairs
          la=1 lb=1:   4599 shell pairs
          la=2 lb=0:   6482 shell pairs
          la=2 lb=1:   2478 shell pairs
          la=2 lb=2:    332 shell pairs

Calculating one electron integrals          ... done (  0.1 sec)
Calculating RI/J V-Matrix + Cholesky decomp.... done (  3.9 sec)
Calculating RI/JK V-Matrix + Cholesky decomp... done (  3.9 sec)
Calculating RI/C V-Matrix + Cholesky decomp.... done (  3.9 sec)
Calculating Nuclear repulsion               ... done (  0.0 sec) ENN=   4666.906923282490 Eh

SHARK setup successfully completed in  13.0 seconds

Maximum memory used throughout the entire GTOINT-calculation: 179.9 MB


           ************************************************************
           *        Program running with 16 parallel MPI-processes    *
           *              working on a common directory               *
           ************************************************************
-------------------------------------------------------------------------------
                                 ORCA SCF
-------------------------------------------------------------------------------

------------
SCF SETTINGS
------------
Hamiltonian:
 Density Functional     Method          .... DFT(GTOs)
 Exchange Functional    Exchange        .... B88
   X-Alpha parameter    XAlpha          ....  0.666667
   Becke's b parameter  XBeta           ....  0.004200
 Correlation Functional Correlation     .... LYP
 LDA part of GGA corr.  LDAOpt          .... VWN-5
 Gradients option       PostSCFGGA      .... off
 Hybrid DFT is turned on
   Fraction HF Exchange ScalHFX         ....  0.200000
   Scaling of DF-GGA-X  ScalDFX         ....  0.720000
   Scaling of DF-GGA-C  ScalDFC         ....  0.810000
   Scaling of DF-LDA-C  ScalLDAC        ....  1.000000
   Perturbative correction              ....  0.000000
   Density functional embedding theory  .... OFF
   NL short-range parameter             ....  4.800000
 RI-approximation to the Coulomb term is turned on
   Number of AuxJ basis functions       .... 7880
   RIJ-COSX (HFX calculated with COS-X)).... on


General Settings:
 Integral files         IntName         .... EPRII_i
 Hartree-Fock type      HFTyp           .... RHF
 Total Charge           Charge          ....    0
 Multiplicity           Mult            ....    1
 Number of Electrons    NEL             ....  326
 Basis Dimension        Dim             .... 1132
 Nuclear Repulsion      ENuc            ....   4666.9069232825 Eh

Convergence Acceleration:
 DIIS                   CNVDIIS         .... on
   Start iteration      DIISMaxIt       ....    12
   Startup error        DIISStart       ....  0.200000
   # of expansion vecs  DIISMaxEq       ....     5
   Bias factor          DIISBfac        ....   1.050
   Max. coefficient     DIISMaxC        ....  10.000
 Trust-Rad. Augm. Hess. CNVTRAH         .... auto
   Auto Start mean grad. ratio tolernc. ....  1.125000
   Auto Start start iteration           ....    20
   Auto Start num. interpolation iter.  ....    10
   Max. Number of Micro iterations      ....    16
   Max. Number of Macro iterations      .... Maxiter - #DIIS iter
   Number of Davidson start vectors     ....     2
   Converg. threshold I  (grad. norm)   ....   5.000e-05
   Converg. threshold II (energy diff.) ....   1.000e-06
   Grad. Scal. Fac. for Micro threshold ....   0.100
   Minimum threshold for Micro iter.    ....   0.010
   NR start threshold (gradient norm)   ....   0.001
   Initial trust radius                 ....   0.400
   Minimum AH scaling param. (alpha)    ....   1.000
   Maximum AH scaling param. (alpha)    .... 1000.000
   Orbital update algorithm             .... Taylor
   White noise on init. David. guess    .... on
   Maximum white noise                  ....   0.010
   Quad. conv. algorithm                .... NR
 SOSCF                  CNVSOSCF        .... on
   Start iteration      SOSCFMaxIt      ....   150
   Startup grad/error   SOSCFStart      ....  0.003300
 Level Shifting         CNVShift        .... on
   Level shift para.    LevelShift      ....    0.2500
   Turn off err/grad.   ShiftErr        ....    0.0010
 Zerner damping         CNVZerner       .... off
 Static damping         CNVDamp         .... on
   Fraction old density DampFac         ....    0.7000
   Max. Damping (<1)    DampMax         ....    0.9800
   Min. Damping (>=0)   DampMin         ....    0.0000
   Turn off err/grad.   DampErr         ....    0.1000
 Fernandez-Rico         CNVRico         .... off

SCF Procedure:
 Maximum # iterations   MaxIter         ....   125
 SCF integral mode      SCFMode         .... Direct
   Integral package                     .... SHARK and LIBINT hybrid scheme
 Reset frequency        DirectResetFreq ....    20
 Integral Threshold     Thresh          ....  1.000e-10 Eh
 Primitive CutOff       TCut            ....  1.000e-11 Eh

Convergence Tolerance:
 Convergence Check Mode ConvCheckMode   .... Total+1el-Energy
 Convergence forced     ConvForced      .... 0
 Energy Change          TolE            ....  1.000e-06 Eh
 1-El. energy change                    ....  1.000e-03 Eh
 Orbital Gradient       TolG            ....  5.000e-05
 Orbital Rotation angle TolX            ....  5.000e-05
 DIIS Error             TolErr          ....  1.000e-06


Diagonalization of the overlap matrix:
Smallest eigenvalue                        ... 2.829e-05
Time for diagonalization                   ...    0.205 sec
Threshold for overlap eigenvalues          ... 1.000e-08
Number of eigenvalues below threshold      ... 0
Time for construction of square roots      ...    0.133 sec
Total time needed                          ...    0.343 sec

Time for model grid setup =    1.281 sec

------------------------------
INITIAL GUESS: MODEL POTENTIAL
------------------------------
Loading Hartree-Fock densities                     ... done
Calculating cut-offs                               ... done
Initializing the effective Hamiltonian             ... done
Setting up the integral package (SHARK)            ... done
Starting the Coulomb interaction                   ... done (   1.1 sec)
Reading the grid                                   ... done
Mapping shells                                     ... done
Starting the XC term evaluation                    ... done (   0.3 sec)
  promolecular density results
     # of electrons  =    325.998836787
     EX              =   -251.211901423
     EC              =    -10.748879238
     EX+EC           =   -261.960780661
Transforming the Hamiltonian                       ... done (   0.1 sec)
Diagonalizing the Hamiltonian                      ... done (   0.2 sec)
Back transforming the eigenvectors                 ... done (   0.0 sec)
Now organizing SCF variables                       ... done
                      ------------------
                      INITIAL GUESS DONE (   3.5 sec)
                      ------------------
-------------------
DFT GRID GENERATION
-------------------

General Integration Accuracy     IntAcc      ... 4.388
Radial Grid Type                 RadialGrid  ... OptM3 with GC (2021)
Angular Grid (max. ang.)         AngularGrid ... 4 (Lebedev-302)
Angular grid pruning method      GridPruning ... 4 (adaptive)
Weight generation scheme         WeightScheme... Becke
Basis function cutoff            BFCut       ... 1.0000e-10
Integration weight cutoff        WCut        ... 1.0000e-14
Angular grids for H and He will be reduced by one unit
Partially contracted basis set               ... off
Rotationally invariant grid construction     ... off

Total number of grid points                  ...   432812
Total number of batches                      ...     6813
Average number of points per batch           ...       63
Average number of grid points per atom       ...     4508
Time for grid setup =    4.394 sec

--------------------
COSX GRID GENERATION
--------------------

GRIDX 1
-------
General Integration Accuracy     IntAcc      ... 3.816
Radial Grid Type                 RadialGrid  ... OptM3 with GC (2021)
Angular Grid (max. ang.)         AngularGrid ... 1 (Lebedev-50)
Angular grid pruning method      GridPruning ... 4 (adaptive)
Weight generation scheme         WeightScheme... Becke
Basis function cutoff            BFCut       ... 1.0000e-10
Integration weight cutoff        WCut        ... 1.0000e-14
Angular grids for H and He will be reduced by one unit
Partially contracted basis set               ... on
Rotationally invariant grid construction     ... off

Total number of grid points                  ...    55095
Total number of batches                      ...      920
Average number of points per batch           ...       59
Average number of grid points per atom       ...      574
UseSFitting                                  ... on

GRIDX 2
-------
General Integration Accuracy     IntAcc      ... 4.020
Radial Grid Type                 RadialGrid  ... OptM3 with GC (2021)
Angular Grid (max. ang.)         AngularGrid ... 2 (Lebedev-110)
Angular grid pruning method      GridPruning ... 4 (adaptive)
Weight generation scheme         WeightScheme... Becke
Basis function cutoff            BFCut       ... 1.0000e-10
Integration weight cutoff        WCut        ... 1.0000e-14
Angular grids for H and He will be reduced by one unit
Partially contracted basis set               ... on
Rotationally invariant grid construction     ... off

Total number of grid points                  ...   116348
Total number of batches                      ...     1866
Average number of points per batch           ...       62
Average number of grid points per atom       ...     1212
UseSFitting                                  ... on

GRIDX 3
-------
General Integration Accuracy     IntAcc      ... 4.338
Radial Grid Type                 RadialGrid  ... OptM3 with GC (2021)
Angular Grid (max. ang.)         AngularGrid ... 3 (Lebedev-194)
Angular grid pruning method      GridPruning ... 4 (adaptive)
Weight generation scheme         WeightScheme... Becke
Basis function cutoff            BFCut       ... 1.0000e-10
Integration weight cutoff        WCut        ... 1.0000e-14
Angular grids for H and He will be reduced by one unit
Partially contracted basis set               ... on
Rotationally invariant grid construction     ... off

Total number of grid points                  ...   253673
Total number of batches                      ...     4012
Average number of points per batch           ...       63
Average number of grid points per atom       ...     2642
UseSFitting                                  ... on

Time for X-Grid setup             =    6.899 sec

--------------
SCF ITERATIONS
--------------
ITER       Energy         Delta-E        Max-DP      RMS-DP      [F,P]     Damp
               ***  Starting incremental Fock matrix formation  ***
  0  -1780.9191805063   0.000000000000 0.56278550  0.00189658  0.1592637 0.7000
  1  -1781.3728849237  -0.453704417402 0.30516075  0.00120073  0.0852878 0.7000
                               ***Turning on DIIS***
  2  -1781.5765269173  -0.203641993570 0.61035406  0.00243636  0.0331352 0.0000
  3  -1781.8629489922  -0.286422074918 0.06145796  0.00052842  0.0466594 0.0000
  4  -1781.9393189761  -0.076369983887 0.04934334  0.00029446  0.0088700 0.0000
                      *** Initiating the SOSCF procedure ***
                           *** Shutting down DIIS ***
                      *** Re-Reading the Fockian *** 
                      *** Removing any level shift *** 
ITER      Energy       Delta-E        Grad      Rot      Max-DP    RMS-DP
  5  -1781.94249900  -0.0031800280  0.000703  0.000703  0.028958  0.000132
               *** Restarting incremental Fock matrix formation ***
  6  -1781.94328262  -0.0007836112  0.000317  0.001362  0.041263  0.000141
  7  -1781.94328788  -0.0000052626  0.000284  0.000702  0.003702  0.000019
  8  -1781.94329910  -0.0000112252  0.000149  0.000410  0.008842  0.000032
  9  -1781.94329755   0.0000015546  0.000182  0.000221  0.001307  0.000005
 10  -1781.94329982  -0.0000022671  0.000049  0.000145  0.005465  0.000012
 11  -1781.94329971   0.0000001017  0.000089  0.000094  0.001572  0.000004
 12  -1781.94329978  -0.0000000625  0.000013  0.000044  0.007126  0.000020
 13  -1781.94329953   0.0000002479  0.000021  0.000030  0.001202  0.000005
                  ***Gradient check signals convergence***
              ***Rediagonalizing the Fockian in SOSCF/NRSCF***

               *****************************************************
               *                     SUCCESS                       *
               *           SCF CONVERGED AFTER  14 CYCLES          *
               *****************************************************

Old exchange energy                            =    -51.168366509 Eh
New exchange energy                            =    -51.168340301 Eh
Exchange energy change after final integration =      0.000026208 Eh
Total energy after final integration           =  -1781.943273226 Eh
Final COS-X integration done in                =    37.472 sec

----------------
TOTAL SCF ENERGY
----------------

Total Energy       :        -1781.94327323 Eh          -48489.14160 eV

Components:
Nuclear Repulsion  :         4666.90692328 Eh          126992.99358 eV
Electronic Energy  :        -6448.85019651 Eh         -175482.13519 eV
One Electron Energy:       -11690.93873186 Eh         -318126.61614 eV
Two Electron Energy:         5242.08853535 Eh          142644.48095 eV
Max COSX asymmetry :            0.00001938 Eh               0.00053 eV

Virial components:
Potential Energy   :        -3549.67401888 Eh          -96591.54067 eV
Kinetic Energy     :         1767.73074565 Eh           48102.39907 eV
Virial Ratio       :            2.00803998


DFT components:
N(Alpha)           :      163.000490022405 electrons
N(Beta)            :      163.000490022405 electrons
N(Total)           :      326.000980044809 electrons
E(X)               :     -202.965593651053 Eh       
E(C)               :      -12.700337578969 Eh       
E(XC)              :     -215.665931230022 Eh       
DFET-embed. en.    :        0.000000000000 Eh       

---------------
SCF CONVERGENCE
---------------

  Last Energy change         ...    9.4032e-08  Tolerance :   1.0000e-06
  Last MAX-Density change    ...    1.7764e-15  Tolerance :   1.0000e-05
  Last RMS-Density change    ...    2.1329e-17  Tolerance :   1.0000e-06
  Last Orbital Gradient      ...    2.3673e-06  Tolerance :   5.0000e-05
  Last Orbital Rotation      ...    1.4484e-05  Tolerance :   5.0000e-05

             **** THE GBW FILE WAS UPDATED (EPRII_i.gbw) ****
             **** DENSITY EPRII_i.scfp WAS UPDATED ****
             **** ENERGY FILE WAS UPDATED (EPRII_i.en.tmp) ****
             **** THE GBW FILE WAS UPDATED (EPRII_i.gbw) ****
             **** DENSITY EPRII_i.scfp WAS UPDATED ****
----------------
ORBITAL ENERGIES
----------------

  NO   OCC          E(Eh)            E(eV) 
   0   2.0000     -10.226144      -278.2675 
   1   2.0000     -10.226144      -278.2675 
   2   2.0000     -10.218223      -278.0520 
   3   2.0000     -10.218223      -278.0520 
   4   2.0000     -10.217993      -278.0457 
   5   2.0000     -10.217993      -278.0457 
   6   2.0000     -10.206456      -277.7318 
   7   2.0000     -10.206456      -277.7318 
   8   2.0000     -10.206186      -277.7245 
   9   2.0000     -10.206186      -277.7244 
  10   2.0000     -10.204110      -277.6679 
  11   2.0000     -10.204110      -277.6679 
  12   2.0000     -10.203972      -277.6642 
  13   2.0000     -10.203972      -277.6642 
  14   2.0000     -10.203796      -277.6594 
  15   2.0000     -10.203795      -277.6594 
  16   2.0000     -10.203094      -277.6403 
  17   2.0000     -10.203094      -277.6403 
  18   2.0000     -10.202896      -277.6349 
  19   2.0000     -10.202896      -277.6349 
  20   2.0000     -10.200132      -277.5597 
  21   2.0000     -10.200132      -277.5597 
  22   2.0000     -10.198349      -277.5112 
  23   2.0000     -10.197965      -277.5007 
  24   2.0000     -10.197965      -277.5007 
  25   2.0000     -10.196246      -277.4540 
  26   2.0000     -10.194634      -277.4101 
  27   2.0000     -10.194633      -277.4101 
  28   2.0000     -10.194570      -277.4084 
  29   2.0000     -10.194570      -277.4084 
  30   2.0000     -10.186237      -277.1816 
  31   2.0000     -10.186236      -277.1816 
  32   2.0000     -10.185786      -277.1693 
  33   2.0000     -10.185786      -277.1693 
  34   2.0000     -10.182253      -277.0732 
  35   2.0000     -10.182253      -277.0732 
  36   2.0000     -10.181711      -277.0584 
  37   2.0000     -10.181711      -277.0584 
  38   2.0000     -10.181668      -277.0573 
  39   2.0000     -10.181668      -277.0573 
  40   2.0000     -10.181110      -277.0421 
  41   2.0000     -10.181109      -277.0421 
  42   2.0000     -10.173289      -276.8293 
  43   2.0000     -10.173288      -276.8293 
  44   2.0000     -10.172683      -276.8128 
  45   2.0000     -10.172683      -276.8128 
  46   2.0000      -0.870923       -23.6990 
  47   2.0000      -0.869017       -23.6471 
  48   2.0000      -0.862103       -23.4590 
  49   2.0000      -0.862019       -23.4567 
  50   2.0000      -0.816443       -22.2165 
  51   2.0000      -0.812765       -22.1165 
  52   2.0000      -0.796482       -21.6734 
  53   2.0000      -0.793166       -21.5831 
  54   2.0000      -0.792445       -21.5635 
  55   2.0000      -0.789816       -21.4920 
  56   2.0000      -0.778405       -21.1815 
  57   2.0000      -0.773005       -21.0345 
  58   2.0000      -0.762536       -20.7497 
  59   2.0000      -0.761076       -20.7099 
  60   2.0000      -0.750206       -20.4141 
  61   2.0000      -0.750206       -20.4141 
  62   2.0000      -0.742195       -20.1962 
  63   2.0000      -0.730593       -19.8804 
  64   2.0000      -0.726259       -19.7625 
  65   2.0000      -0.719269       -19.5723 
  66   2.0000      -0.706258       -19.2183 
  67   2.0000      -0.696163       -18.9436 
  68   2.0000      -0.693720       -18.8771 
  69   2.0000      -0.650770       -17.7084 
  70   2.0000      -0.650112       -17.6904 
  71   2.0000      -0.649983       -17.6869 
  72   2.0000      -0.632947       -17.2234 
  73   2.0000      -0.620905       -16.8957 
  74   2.0000      -0.616598       -16.7785 
  75   2.0000      -0.612708       -16.6726 
  76   2.0000      -0.608994       -16.5716 
  77   2.0000      -0.608540       -16.5592 
  78   2.0000      -0.608448       -16.5567 
  79   2.0000      -0.590487       -16.0680 
  80   2.0000      -0.585511       -15.9326 
  81   2.0000      -0.577388       -15.7115 
  82   2.0000      -0.577114       -15.7041 
  83   2.0000      -0.560863       -15.2618 
  84   2.0000      -0.560377       -15.2486 
  85   2.0000      -0.539681       -14.6855 
  86   2.0000      -0.537718       -14.6321 
  87   2.0000      -0.514685       -14.0053 
  88   2.0000      -0.504573       -13.7301 
  89   2.0000      -0.504441       -13.7265 
  90   2.0000      -0.489866       -13.3299 
  91   2.0000      -0.478792       -13.0286 
  92   2.0000      -0.476890       -12.9768 
  93   2.0000      -0.474513       -12.9122 
  94   2.0000      -0.470677       -12.8078 
  95   2.0000      -0.469673       -12.7805 
  96   2.0000      -0.469537       -12.7768 
  97   2.0000      -0.468443       -12.7470 
  98   2.0000      -0.468390       -12.7455 
  99   2.0000      -0.455957       -12.4072 
 100   2.0000      -0.455901       -12.4057 
 101   2.0000      -0.436018       -11.8646 
 102   2.0000      -0.435955       -11.8629 
 103   2.0000      -0.428078       -11.6486 
 104   2.0000      -0.426523       -11.6063 
 105   2.0000      -0.424368       -11.5476 
 106   2.0000      -0.424364       -11.5475 
 107   2.0000      -0.422505       -11.4970 
 108   2.0000      -0.421317       -11.4646 
 109   2.0000      -0.420719       -11.4483 
 110   2.0000      -0.420416       -11.4401 
 111   2.0000      -0.420149       -11.4328 
 112   2.0000      -0.419321       -11.4103 
 113   2.0000      -0.415796       -11.3144 
 114   2.0000      -0.415439       -11.3047 
 115   2.0000      -0.409082       -11.1317 
 116   2.0000      -0.408715       -11.1217 
 117   2.0000      -0.395888       -10.7727 
 118   2.0000      -0.392718       -10.6864 
 119   2.0000      -0.382774       -10.4158 
 120   2.0000      -0.381972       -10.3940 
 121   2.0000      -0.376831       -10.2541 
 122   2.0000      -0.372783       -10.1439 
 123   2.0000      -0.369067       -10.0428 
 124   2.0000      -0.366850        -9.9825 
 125   2.0000      -0.363350        -9.8873 
 126   2.0000      -0.363251        -9.8846 
 127   2.0000      -0.361358        -9.8330 
 128   2.0000      -0.361070        -9.8252 
 129   2.0000      -0.357990        -9.7414 
 130   2.0000      -0.355788        -9.6815 
 131   2.0000      -0.355368        -9.6700 
 132   2.0000      -0.351971        -9.5776 
 133   2.0000      -0.350582        -9.5398 
 134   2.0000      -0.350284        -9.5317 
 135   2.0000      -0.342283        -9.3140 
 136   2.0000      -0.340262        -9.2590 
 137   2.0000      -0.332721        -9.0538 
 138   2.0000      -0.331128        -9.0105 
 139   2.0000      -0.330957        -9.0058 
 140   2.0000      -0.327128        -8.9016 
 141   2.0000      -0.326113        -8.8740 
 142   2.0000      -0.323896        -8.8137 
 143   2.0000      -0.323711        -8.8086 
 144   2.0000      -0.323639        -8.8067 
 145   2.0000      -0.321141        -8.7387 
 146   2.0000      -0.321009        -8.7351 
 147   2.0000      -0.320059        -8.7092 
 148   2.0000      -0.319440        -8.6924 
 149   2.0000      -0.317971        -8.6524 
 150   2.0000      -0.314789        -8.5658 
 151   2.0000      -0.296327        -8.0635 
 152   2.0000      -0.274537        -7.4705 
 153   2.0000      -0.267137        -7.2692 
 154   2.0000      -0.267037        -7.2664 
 155   2.0000      -0.264646        -7.2014 
 156   2.0000      -0.258183        -7.0255 
 157   2.0000      -0.258183        -7.0255 
 158   2.0000      -0.246937        -6.7195 
 159   2.0000      -0.241346        -6.5674 
 160   2.0000      -0.241157        -6.5622 
 161   2.0000      -0.216829        -5.9002 
 162   2.0000      -0.191451        -5.2096 
 163   0.0000      -0.073016        -1.9869 
 164   0.0000      -0.046929        -1.2770 
 165   0.0000      -0.016546        -0.4502 
 166   0.0000      -0.013356        -0.3634 
 167   0.0000      -0.013356        -0.3634 
 168   0.0000      -0.001506        -0.0410 
 169   0.0000      -0.000443        -0.0121 
 170   0.0000       0.008917         0.2426 
 171   0.0000       0.011026         0.3000 
 172   0.0000       0.013429         0.3654 
 173   0.0000       0.015369         0.4182 
 174   0.0000       0.015493         0.4216 
 175   0.0000       0.024072         0.6550 
 176   0.0000       0.025522         0.6945 
 177   0.0000       0.028547         0.7768 
 178   0.0000       0.030409         0.8275 
 179   0.0000       0.034392         0.9358 
 180   0.0000       0.040391         1.0991 
 181   0.0000       0.040744         1.1087 
 182   0.0000       0.043857         1.1934 
 183   0.0000       0.044780         1.2185 
 184   0.0000       0.046804         1.2736 
 185   0.0000       0.049479         1.3464 
 186   0.0000       0.052534         1.4295 
 187   0.0000       0.056111         1.5269 
 188   0.0000       0.056804         1.5457 
 189   0.0000       0.057893         1.5754 
 190   0.0000       0.062563         1.7024 
 191   0.0000       0.067179         1.8280 
 192   0.0000       0.067514         1.8371 
 193   0.0000       0.069173         1.8823 
 194   0.0000       0.071534         1.9465 
 195   0.0000       0.072561         1.9745 
 196   0.0000       0.078083         2.1248 
 197   0.0000       0.079515         2.1637 
 198   0.0000       0.086420         2.3516 
 199   0.0000       0.091176         2.4810 
 200   0.0000       0.092321         2.5122 
 201   0.0000       0.093683         2.5492 
 202   0.0000       0.096552         2.6273 
 203   0.0000       0.096643         2.6298 
 204   0.0000       0.098143         2.6706 
 205   0.0000       0.113048         3.0762 
 206   0.0000       0.117254         3.1906 
 207   0.0000       0.120896         3.2898 
 208   0.0000       0.124639         3.3916 
 209   0.0000       0.124844         3.3972 
 210   0.0000       0.126505         3.4424 
 211   0.0000       0.135924         3.6987 
 212   0.0000       0.136684         3.7194 
 213   0.0000       0.141300         3.8450 
 214   0.0000       0.143612         3.9079 
 215   0.0000       0.153799         4.1851 
 216   0.0000       0.158106         4.3023 
 217   0.0000       0.160649         4.3715 
 218   0.0000       0.162503         4.4219 
 219   0.0000       0.164209         4.4684 
 220   0.0000       0.165572         4.5054 
 221   0.0000       0.172597         4.6966 
 222   0.0000       0.173274         4.7150 
 223   0.0000       0.174842         4.7577 
 224   0.0000       0.176940         4.8148 
 225   0.0000       0.178445         4.8557 
 226   0.0000       0.179186         4.8759 
 227   0.0000       0.180502         4.9117 
 228   0.0000       0.186190         5.0665 
 229   0.0000       0.190612         5.1868 
 230   0.0000       0.192352         5.2342 
 231   0.0000       0.193295         5.2598 
 232   0.0000       0.194342         5.2883 
 233   0.0000       0.197412         5.3719 
 234   0.0000       0.197773         5.3817 
 235   0.0000       0.201094         5.4720 
 236   0.0000       0.201368         5.4795 
 237   0.0000       0.205549         5.5933 
 238   0.0000       0.206021         5.6061 
 239   0.0000       0.206615         5.6223 
 240   0.0000       0.206950         5.6314 
 241   0.0000       0.210307         5.7227 
 242   0.0000       0.212043         5.7700 
 243   0.0000       0.212312         5.7773 
 244   0.0000       0.212982         5.7955 
 245   0.0000       0.216032         5.8785 
 246   0.0000       0.216905         5.9023 
 247   0.0000       0.218511         5.9460 
 248   0.0000       0.220838         6.0093 
 249   0.0000       0.221480         6.0268 
 250   0.0000       0.223784         6.0895 
[...]
            -0.258         30.782        -0.574
            -4.109         -1.381        27.646


 Diagonalized sT*s matrix:
 
 sDSO            47.130           41.744           44.987  iso=      44.620
 sPSO           -22.400          -10.805          -10.614  iso=     -14.606
        ---------------  ---------------  ---------------
 Total           24.730           30.939           34.373  iso=      30.014

 --------------
 Nucleus  68H :
 --------------

Diamagnetic contribution to the shielding tensor (ppm) : 
            21.232        -13.864        -6.632
           -10.663         25.618         2.271
           -10.867         11.052        31.674

Paramagnetic contribution to the shielding tensor (ppm): 
             9.433         12.079         2.530
             7.975          5.164         0.032
             7.461         -9.080        -1.199

Total shielding tensor (ppm): 
            30.665         -1.786        -4.102
            -2.687         30.781         2.303
            -3.405          1.972        30.474


 Diagonalized sT*s matrix:
 
 sDSO            17.603           16.605           44.316  iso=      26.175
 sPSO             9.212           12.384           -8.199  iso=       4.466
        ---------------  ---------------  ---------------
 Total           26.815           28.989           36.117  iso=      30.640

 --------------
 Nucleus  69H :
 --------------

Diamagnetic contribution to the shielding tensor (ppm) : 
            21.276        -13.834         6.751
           -10.578         25.514        -2.166
            10.965        -10.977        31.740

Paramagnetic contribution to the shielding tensor (ppm): 
             9.408         12.080        -2.631
             7.915          5.233        -0.131
            -7.536          9.010        -1.251

Total shielding tensor (ppm): 
            30.684         -1.754         4.120
            -2.663         30.747        -2.297
             3.428         -1.967        30.490


 Diagonalized sT*s matrix:
 
 sDSO            17.625           16.610           44.296  iso=      26.177
 sPSO             9.187           12.383           -8.179  iso=       4.463
        ---------------  ---------------  ---------------
 Total           26.812           28.993           36.117  iso=      30.640

 --------------
 Nucleus  71H :
 --------------

Diamagnetic contribution to the shielding tensor (ppm) : 
            45.309          6.689        -8.772
           -11.419         19.457        -1.759
           -31.102         -3.915        26.192

Paramagnetic contribution to the shielding tensor (ppm): 
           -15.748         -8.718         5.359
            10.062         11.718         1.924
            26.372          2.639        -0.961

Total shielding tensor (ppm): 
            29.561         -2.029        -3.413
            -1.357         31.175         0.165
            -4.730         -1.276        25.230


 Diagonalized sT*s matrix:
 
 sDSO            12.736           33.802           44.420  iso=      30.319
 sPSO             9.837           -3.299          -11.529  iso=      -1.664
        ---------------  ---------------  ---------------
 Total           22.572           30.503           32.891  iso=      28.655

 --------------
 Nucleus  72H :
 --------------

Diamagnetic contribution to the shielding tensor (ppm) : 
            45.375          6.758         8.643
           -11.184         19.558         1.649
            31.070          3.902        26.085

Paramagnetic contribution to the shielding tensor (ppm): 
           -15.804         -8.768        -5.211
             9.862         11.631        -1.863
           -26.324         -2.681        -0.884

Total shielding tensor (ppm): 
            29.572         -2.010         3.432
            -1.322         31.189        -0.214
             4.746          1.221        25.201


 Diagonalized sT*s matrix:
 
 sDSO            12.827           33.749           44.442  iso=      30.339
 sPSO             9.730           -3.250          -11.538  iso=      -1.686
        ---------------  ---------------  ---------------
 Total           22.557           30.499           32.905  iso=      28.654

 --------------
 Nucleus  74H :
 --------------

Diamagnetic contribution to the shielding tensor (ppm) : 
            42.006         -5.721        -6.868
            -2.845         45.075         0.627
             7.181          8.957        65.382

Paramagnetic contribution to the shielding tensor (ppm): 
           -10.766          6.561         3.218
             3.551        -13.793        -0.521
           -10.756         -7.397       -38.128

Total shielding tensor (ppm): 
            31.239          0.840        -3.650
             0.706         31.282         0.106
            -3.575          1.560        27.255


 Diagonalized sT*s matrix:
 
 sDSO            58.393           47.905           46.165  iso=      50.821
 sPSO           -33.465          -16.459          -12.763  iso=     -20.896
        ---------------  ---------------  ---------------
 Total           24.928           31.446           33.402  iso=      29.925

 --------------
 Nucleus  75H :
 --------------

Diamagnetic contribution to the shielding tensor (ppm) : 
            41.993         -5.670         6.923
            -2.891         44.980        -0.547
            -7.145         -8.783        65.437

Paramagnetic contribution to the shielding tensor (ppm): 
           -10.741          6.541        -3.278
             3.627        -13.712         0.408
            10.718          7.193       -38.185

Total shielding tensor (ppm): 
            31.252          0.871         3.645
             0.737         31.268        -0.139
             3.574         -1.590        27.251


 Diagonalized sT*s matrix:
 
 sDSO            58.380           47.916           46.114  iso=      50.803
 sPSO           -33.464          -16.472          -12.703  iso=     -20.880
        ---------------  ---------------  ---------------
 Total           24.916           31.444           33.411  iso=      29.924

 --------------
 Nucleus  77H :
 --------------

Diamagnetic contribution to the shielding tensor (ppm) : 
            30.514         13.811        -9.392
             6.417         16.466         0.688
           -16.324         -9.328        29.200

Paramagnetic contribution to the shielding tensor (ppm): 
             0.741        -14.109         4.687
            -6.459         14.413        -1.250
            11.990          7.971        -1.255

Total shielding tensor (ppm): 
            31.256         -0.298        -4.705
            -0.042         30.879        -0.562
            -4.334         -1.357        27.945


 Diagonalized sT*s matrix:
 
 sDSO            18.150           13.623           44.408  iso=      25.394
 sPSO             6.512           17.334           -9.947  iso=       4.633
        ---------------  ---------------  ---------------
 Total           24.662           30.957           34.462  iso=      30.027

 --------------
 Nucleus  78H :
 --------------

Diamagnetic contribution to the shielding tensor (ppm) : 
            30.570         13.901         9.256
             6.533         16.543        -0.690
            16.211          9.377        29.087

Paramagnetic contribution to the shielding tensor (ppm): 
             0.704        -14.164        -4.551
            -6.541         14.353         1.227
           -11.877         -8.047        -1.176

Total shielding tensor (ppm): 
            31.274         -0.263         4.704
            -0.009         30.896         0.537
             4.334          1.330        27.911


 Diagonalized sT*s matrix:
 
 sDSO            18.203           13.649           44.348  iso=      25.400
 sPSO             6.453           17.310           -9.883  iso=       4.627
        ---------------  ---------------  ---------------
 Total           24.656           30.959           34.465  iso=      30.027

 --------------
 Nucleus  80H :
 --------------

Diamagnetic contribution to the shielding tensor (ppm) : 
            20.572         -7.841         6.491
             9.501         39.020        -1.913
            -0.840         -8.884        42.548

Paramagnetic contribution to the shielding tensor (ppm): 
            10.393          6.492        -2.557
           -11.738         -8.361        -0.415
             4.077          6.878       -12.222

Total shielding tensor (ppm): 
            30.964         -1.349         3.934
            -2.238         30.659        -2.327
             3.238         -2.005        30.327


 Diagonalized sT*s matrix:
 
 sDSO            29.685           34.676           37.778  iso=      34.047
 sPSO            -2.697           -5.483           -2.010  iso=      -3.397
        ---------------  ---------------  ---------------
 Total           26.988           29.193           35.769  iso=      30.650

 --------------
 Nucleus  81H :
 --------------

Diamagnetic contribution to the shielding tensor (ppm) : 
            20.550         -7.875        -6.407
             9.506         39.102         1.876
             0.794          8.945        42.483

Paramagnetic contribution to the shielding tensor (ppm): 
            10.392          6.498         2.489
           -11.765         -8.410         0.456
            -4.007         -6.936       -12.168

Total shielding tensor (ppm): 
            30.942         -1.377        -3.918
            -2.258         30.691         2.332
            -3.213          2.009        30.315


 Diagonalized sT*s matrix:
 
 sDSO            29.653           34.669           37.813  iso=      34.045
 sPSO            -2.657           -5.481           -2.048  iso=      -3.395
        ---------------  ---------------  ---------------
 Total           26.996           29.188           35.765  iso=      30.649

 --------------
 Nucleus  83H :
 --------------

Diamagnetic contribution to the shielding tensor (ppm) : 
            13.116          3.793        -0.017
            -4.497         42.859        -0.076
             0.019         -0.101        21.363

Paramagnetic contribution to the shielding tensor (ppm): 
            16.221         -2.233         0.006
             7.283         -6.234         0.024
            -0.036          0.051         3.964

Total shielding tensor (ppm): 
            29.337          1.560        -0.011
             2.785         36.625        -0.052
            -0.017         -0.049        25.327


 Diagonalized sT*s matrix:
 
 sDSO            21.363           15.544           40.432  iso=      25.779
 sPSO             3.964           13.196           -3.209  iso=       4.650
        ---------------  ---------------  ---------------
 Total           25.327           28.739           37.223  iso=      30.430

 --------------
 Nucleus  84H :
 --------------

Diamagnetic contribution to the shielding tensor (ppm) : 
            12.703          9.722        -0.047
            23.114         37.786        -0.126
            -0.105         -0.092        17.860

Paramagnetic contribution to the shielding tensor (ppm): 
            16.541         -7.757         0.036
           -19.858         -1.156         0.076
             0.089          0.044         7.528

Total shielding tensor (ppm): 
            29.244          1.964        -0.012
             3.256         36.630        -0.050
            -0.016         -0.048        25.388


 Diagonalized sT*s matrix:
 
 sDSO            17.859            5.410           45.080  iso=      22.783
 sPSO             7.529           23.006           -7.621  iso=       7.638
        ---------------  ---------------  ---------------
 Total           25.388           28.416           37.459  iso=      30.421

 --------------
 Nucleus  91H :
 --------------

Diamagnetic contribution to the shielding tensor (ppm) : 
            47.937          0.099        -0.005
            -0.992         23.609        -0.325
             0.059         -0.324       -90.451

Paramagnetic contribution to the shielding tensor (ppm): 
           -23.694         -0.111         0.006
             0.982          3.700         0.307
            -0.058          0.307       111.811

Total shielding tensor (ppm): 
            24.243         -0.013         0.001
            -0.010         27.309        -0.018
             0.001         -0.017        21.360


 Diagonalized sT*s matrix:
 
 sDSO           -90.451           47.934           23.613  iso=      -6.301
 sPSO           111.812          -23.690            3.695  iso=      30.606
        ---------------  ---------------  ---------------
 Total           21.360           24.243           27.309  iso=      24.304

 --------------
 Nucleus  92H :
 --------------

Diamagnetic contribution to the shielding tensor (ppm) : 
            33.568         10.504        -0.037
             7.659         36.079        -0.256
             0.009         -0.214       -37.691

Paramagnetic contribution to the shielding tensor (ppm): 
            -6.217        -12.107         0.044
            -9.218        -11.589         0.244
            -0.002          0.203        58.715

Total shielding tensor (ppm): 
            27.351         -1.603         0.007
            -1.559         24.490        -0.011
             0.007         -0.011        21.024


 Diagonalized sT*s matrix:
 
 sDSO           -37.691           42.405           27.244  iso=      10.652
 sPSO            58.715          -18.616            0.809  iso=      13.636
        ---------------  ---------------  ---------------
 Total           21.024           23.788           28.053  iso=      24.288

 --------------
 Nucleus  93H :
 --------------

Diamagnetic contribution to the shielding tensor (ppm) : 
            38.685          6.670        -0.011
             5.381         37.146         0.252
            -0.028          0.169        94.935

Paramagnetic contribution to the shielding tensor (ppm): 
           -10.937        -10.138         0.023
            -7.885        -12.795        -0.268
             0.038         -0.185       -75.004

Total shielding tensor (ppm): 
            27.748         -3.468         0.012
            -2.505         24.351        -0.016
             0.009         -0.016        19.931


 Diagonalized sT*s matrix:
 
 sDSO            94.936           42.839           32.991  iso=      56.922
 sPSO           -75.005          -20.224           -3.507  iso=     -32.912
        ---------------  ---------------  ---------------
 Total           19.931           22.615           29.484  iso=      24.010

 --------------
 Nucleus  94H :
 --------------

Diamagnetic contribution to the shielding tensor (ppm) : 
            39.206         -4.116         0.013
            -9.336         32.787         0.081
             0.027          0.167        90.674

Paramagnetic contribution to the shielding tensor (ppm): 
           -10.708          7.003        -0.016
            11.375         -8.953        -0.094
            -0.025         -0.178       -71.049

Total shielding tensor (ppm): 
            28.498          2.886        -0.003
             2.039         23.834        -0.013
             0.002         -0.011        19.624


 Diagonalized sT*s matrix:
 
 sDSO            90.674           38.786           33.207  iso=      54.222
 sPSO           -71.049          -16.011           -3.650  iso=     -30.237
        ---------------  ---------------  ---------------
 Total           19.624           22.775           29.557  iso=      23.985

 --------------
 Nucleus  95H :
 --------------

Diamagnetic contribution to the shielding tensor (ppm) : 
            33.005         -9.103         0.022
            -9.115         37.875        -0.160
             0.056         -0.207       -34.955

Paramagnetic contribution to the shielding tensor (ppm): 
            -5.728         10.484        -0.024
            10.491        -13.407         0.149
            -0.057          0.197        56.027

Total shielding tensor (ppm): 
            27.277          1.381        -0.002
             1.376         24.468        -0.010
            -0.002         -0.010        21.072


 Diagonalized sT*s matrix:
 
 sDSO           -34.956           43.559           27.322  iso=      11.975
 sPSO            56.027          -19.654            0.519  iso=      12.297
        ---------------  ---------------  ---------------
 Total           21.072           23.905           27.840  iso=      24.272



--------------------------------
CHEMICAL SHIELDING SUMMARY (ppm)
--------------------------------


  Nucleus  Element    Isotropic     Anisotropy
  -------  -------  ------------   ------------
      7       H           24.236         13.529 
      8       H           24.193         13.624 
     10       H           28.642          6.270 
     11       H           28.643          6.265 
     13       H           29.898          5.172 
     14       H           29.897          5.179 
     16       H           30.014          6.533 
     17       H           30.013          6.541 
     19       H           30.641          8.216 
     20       H           30.641          8.215 
     22       H           28.654          6.371 
     23       H           28.656          6.359 
     25       H           29.923          5.227 
     26       H           29.925          5.219 
     28       H           30.028          6.655 
     29       H           30.028          6.654 
     31       H           30.649          7.675 
     32       H           30.649          7.676 
     34       H           30.429         10.191 
     35       H           30.422         10.556 
     42       H           24.304          4.508 
     43       H           24.288          5.647 
     44       H           24.010          8.212 
     45       H           23.986          8.357 
     46       H           24.272          5.353 
     56       H           24.236         13.529 
     57       H           24.193         13.624 
     59       H           28.644          6.265 
     60       H           28.642          6.271 
     62       H           29.897          5.179 
     63       H           29.898          5.173 
     65       H           30.014          6.537 
     66       H           30.014          6.538 
     68       H           30.640          8.215 
     69       H           30.640          8.214 
     71       H           28.655          6.354 
     72       H           28.654          6.376 
     74       H           29.925          5.215 
     75       H           29.924          5.231 
     77       H           30.027          6.652 
     78       H           30.027          6.657 
     80       H           30.650          7.678 
     81       H           30.649          7.673 
     83       H           30.430         10.189 
     84       H           30.421         10.557 
     91       H           24.304          4.507 
     92       H           24.288          5.647 
     93       H           24.010          8.211 
     94       H           23.985          8.357 
     95       H           24.272          5.352 



-----------------------------------------
ELECTRIC AND MAGNETIC HYPERFINE STRUCTURE
-----------------------------------------


--------------------------------------------------------------------------------

Maximum memory used throughout the entire EPRNMR-calculation: 834.6 MB

Timings for individual modules:

Sum of individual times         ...      545.492 sec (=   9.092 min)
GTO integral calculation        ...       15.457 sec (=   0.258 min)   2.8 %
Spin-Orbit-Coupling Matrices    ...       60.918 sec (=   1.015 min)  11.2 %
SCF iterations                  ...      346.254 sec (=   5.771 min)  63.5 %
EPR/NMR calculation             ...      122.864 sec (=   2.048 min)  22.5 %
                             ****ORCA TERMINATED NORMALLY****
TOTAL RUN TIME: 0 days 0 hours 9 minutes 10 seconds 110 msec
