
                                 *****************
                                 * O   R   C   A *
                                 *****************

                                            #,                                       
                                            ###                                      
                                            ####                                     
                                            #####                                    
                                            ######                                   
                                           ########,                                 
                                     ,,################,,,,,                         
                               ,,#################################,,                 
                          ,,##########################################,,             
                       ,#########################################, ''#####,          
                    ,#############################################,,   '####,        
                  ,##################################################,,,,####,       
                ,###########''''           ''''###############################       
              ,#####''   ,,,,##########,,,,          '''####'''          '####       
            ,##' ,,,,###########################,,,                        '##       
           ' ,,###''''                  '''############,,,                           
         ,,##''                                '''############,,,,        ,,,,,,###''
      ,#''                                            '''#######################'''  
     '                                                          ''''####''''         
             ,#######,   #######,   ,#######,      ##                                
            ,#'     '#,  ##    ##  ,#'     '#,    #''#        ######   ,####,        
            ##       ##  ##   ,#'  ##            #'  '#       #        #'  '#        
            ##       ##  #######   ##           ,######,      #####,   #    #        
            '#,     ,#'  ##    ##  '#,     ,#' ,#      #,         ##   #,  ,#        
             '#######'   ##     ##  '#######'  #'      '#     #####' # '####'        



                  #######################################################
                  #                        -***-                        #
                  #          Department of theory and spectroscopy      #
                  #    Directorship and core code : Frank Neese         #
                  #        Max Planck Institute fuer Kohlenforschung    #
                  #                Kaiser Wilhelm Platz 1               #
                  #                 D-45470 Muelheim/Ruhr               #
                  #                      Germany                        #
                  #                                                     #
                  #                  All rights reserved                #
                  #                        -***-                        #
                  #######################################################


                         Program Version 5.0.4 -  RELEASE  -


 With contributions from (in alphabetic order):
   Daniel Aravena         : Magnetic Suceptibility
   Michael Atanasov       : Ab Initio Ligand Field Theory (pilot matlab implementation)
   Alexander A. Auer      : GIAO ZORA, VPT2 properties, NMR spectrum
   Ute Becker             : Parallelization
   Giovanni Bistoni       : ED, misc. LED, open-shell LED, HFLD
   Martin Brehm           : Molecular dynamics
   Dmytro Bykov           : SCF Hessian
   Vijay G. Chilkuri      : MRCI spin determinant printing, contributions to CSF-ICE
   Dipayan Datta          : RHF DLPNO-CCSD density
   Achintya Kumar Dutta   : EOM-CC, STEOM-CC
   Dmitry Ganyushin       : Spin-Orbit,Spin-Spin,Magnetic field MRCI
   Miquel Garcia          : C-PCM and meta-GGA Hessian, CC/C-PCM, Gaussian charge scheme
   Yang Guo               : DLPNO-NEVPT2, F12-NEVPT2, CIM, IAO-localization
   Andreas Hansen         : Spin unrestricted coupled pair/coupled cluster methods
   Benjamin Helmich-Paris : MC-RPA, TRAH-SCF, COSX integrals
   Lee Huntington         : MR-EOM, pCC
   Robert Izsak           : Overlap fitted RIJCOSX, COSX-SCS-MP3, EOM
   Marcus Kettner         : VPT2
   Christian Kollmar      : KDIIS, OOCD, Brueckner-CCSD(T), CCSD density, CASPT2, CASPT2-K
   Simone Kossmann        : Meta GGA functionals, TD-DFT gradient, OOMP2, MP2 Hessian
   Martin Krupicka        : Initial AUTO-CI
   Lucas Lang             : DCDCAS
   Marvin Lechner         : AUTO-CI (C++ implementation), FIC-MRCC
   Dagmar Lenk            : GEPOL surface, SMD
   Dimitrios Liakos       : Extrapolation schemes; Compound Job, initial MDCI parallelization
   Dimitrios Manganas     : Further ROCIS development; embedding schemes
   Dimitrios Pantazis     : SARC Basis sets
   Anastasios Papadopoulos: AUTO-CI, single reference methods and gradients
   Taras Petrenko         : DFT Hessian,TD-DFT gradient, ASA, ECA, R-Raman, ABS, FL, XAS/XES, NRVS
   Peter Pinski           : DLPNO-MP2, DLPNO-MP2 Gradient
   Christoph Reimann      : Effective Core Potentials
   Marius Retegan         : Local ZFS, SOC
   Christoph Riplinger    : Optimizer, TS searches, QM/MM, DLPNO-CCSD(T), (RO)-DLPNO pert. Triples
   Tobias Risthaus        : Range-separated hybrids, TD-DFT gradient, RPA, STAB
   Michael Roemelt        : Original ROCIS implementation
   Masaaki Saitow         : Open-shell DLPNO-CCSD energy and density
   Barbara Sandhoefer     : DKH picture change effects
   Avijit Sen             : IP-ROCIS
   Kantharuban Sivalingam : CASSCF convergence, NEVPT2, FIC-MRCI
   Bernardo de Souza      : ESD, SOC TD-DFT
   Georgi Stoychev        : AutoAux, RI-MP2 NMR, DLPNO-MP2 response
   Willem Van den Heuvel  : Paramagnetic NMR
   Boris Wezisla          : Elementary symmetry handling
   Frank Wennmohs         : Technical directorship


 We gratefully acknowledge several colleagues who have allowed us to
 interface, adapt or use parts of their codes:
   Stefan Grimme, W. Hujo, H. Kruse, P. Pracht,  : VdW corrections, initial TS optimization,
                  C. Bannwarth, S. Ehlert          DFT functionals, gCP, sTDA/sTD-DF
   Ed Valeev, F. Pavosevic, A. Kumar             : LibInt (2-el integral package), F12 methods
   Garnet Chan, S. Sharma, J. Yang, R. Olivares  : DMRG
   Ulf Ekstrom                                   : XCFun DFT Library
   Mihaly Kallay                                 : mrcc  (arbitrary order and MRCC methods)
   Jiri Pittner, Ondrej Demel                    : Mk-CCSD
   Frank Weinhold                                : gennbo (NPA and NBO analysis)
   Christopher J. Cramer and Donald G. Truhlar   : smd solvation model
   Lars Goerigk                                  : TD-DFT with DH, B97 family of functionals
   V. Asgeirsson, H. Jonsson                     : NEB implementation
   FAccTs GmbH                                   : IRC, NEB, NEB-TS, DLPNO-Multilevel, CI-OPT
                                                   MM, QMMM, 2- and 3-layer-ONIOM, Crystal-QMMM,
                                                   LR-CPCM, SF, NACMEs, symmetry and pop. for TD-DFT,
                                                   nearIR, NL-DFT gradient (VV10), updates on ESD,
                                                   ML-optimized integration grids
   S Lehtola, MJT Oliveira, MAL Marques          : LibXC Library
   Liviu Ungur et al                             : ANISO software


 Your calculation uses the libint2 library for the computation of 2-el integrals
 For citations please refer to: http://libint.valeyev.net

 Your ORCA version has been built with support for libXC version: 5.1.0
 For citations please refer to: https://tddft.org/programs/libxc/

 This ORCA versions uses:
   CBLAS   interface :  Fast vector & matrix operations
   LAPACKE interface :  Fast linear algebra routines
   SCALAPACK package :  Parallel linear algebra routines
   Shared memory     :  Shared parallel matrices
   BLAS/LAPACK       :  OpenBLAS 0.3.15  USE64BITINT DYNAMIC_ARCH NO_AFFINITY SkylakeX SINGLE_THREADED
        Core in use  :  SkylakeX
   Copyright (c) 2011-2014, The OpenBLAS Project




***************************************
The coordinates will be read from file: model.xyz
***************************************


================================================================================

----- Orbital basis set information -----
Your calculation utilizes the basis: cc-pVDZ 
       H, B-Ne : Obtained from the ccRepo (grant-hill.group.shef.ac.uk/ccrepo) Feb. 2017
                 T. H. Dunning, Jr., J. Chem. Phys. 90, 1007 (1989)
            He : Obtained from the ccRepo (grant-hill.group.shef.ac.uk/ccrepo) Feb. 2017
                 D. E. Woon, T. H. Dunning, Jr., J. Chem. Phys. 100, 2975 (1994)
  Li-Be, Na-Mg : Obtained from the ccRepo (grant-hill.group.shef.ac.uk/ccrepo) Feb. 2017
                 B. P. Prascher, D. E. Woon, K. A. Peterson, T. H. Dunning, Jr., A. K. Wilson, Theor. Chem. Acc. 128, 69 (2011)
         Al-Ar : Obtained from the ccRepo (grant-hill.group.shef.ac.uk/ccrepo) Feb. 2017
                 D. E. Woon, T. H. Dunning, Jr., J. Chem. Phys. 98, 1358 (1993)
            Ca : Obtained from the Peterson Research Group Website (tyr0.chem.wsu.edu/~kipeters) Feb. 2017
                 J. Koput, K. A. Peterson, J. Phys. Chem. 106, 9595 (2002)
         Sc-Zn : Obtained from the ccRepo (grant-hill.group.shef.ac.uk/ccrepo) Feb. 2017
                 N. B. Balabanov, K. A. Peterson, J. Chem. Phys. 123, 064107 (2005)
                 N. B. Balabanov, K. A. Peterson, J. Chem. Phys. 125, 074110 (2006)
         Ga-Kr : Obtained from the ccRepo (grant-hill.group.shef.ac.uk/ccrepo) Feb. 2017
                 A. K. Wilson, D. E. Woon, K. A. Peterson, T. H. Dunning, Jr., J. Chem. Phys. 110, 7667 (1999)

----- AuxJ basis set information -----
Your calculation utilizes the auxiliary basis: def2/J
   F. Weigend, Phys. Chem. Chem. Phys. 8, 1057 (2006).

================================================================================
                                        WARNINGS
                       Please study these warnings very carefully!
================================================================================


WARNING: Geometry Optimization
  ===> : Switching off AutoStart
         For restart on a previous wavefunction, please use MOREAD

INFO   : the flag for use of the SHARK integral package has been found!

================================================================================
                                       INPUT FILE
================================================================================
NAME = opt.inp
|  1> ! B3LYP cc-pVDZ OPT
|  2> %pal nprocs 16 end
|  3> *XYZFile 0 1 model.xyz
|  4> 
|  5>                          ****END OF INPUT****
================================================================================

                       *****************************
                       * Geometry Optimization Run *
                       *****************************

Geometry optimization settings:
Update method            Update   .... BFGS
Choice of coordinates    CoordSys .... Z-matrix Internals
Initial Hessian          InHess   .... Almoef's Model

Convergence Tolerances:
Energy Change            TolE     ....  5.0000e-06 Eh
Max. Gradient            TolMAXG  ....  3.0000e-04 Eh/bohr
RMS Gradient             TolRMSG  ....  1.0000e-04 Eh/bohr
Max. Displacement        TolMAXD  ....  4.0000e-03 bohr
RMS Displacement         TolRMSD  ....  2.0000e-03 bohr
Strict Convergence                ....  False
------------------------------------------------------------------------------
                        ORCA OPTIMIZATION COORDINATE SETUP
------------------------------------------------------------------------------

The optimization will be done in new redundant internal coordinates
Making redundant internal coordinates   ...  (new redundants) done
Evaluating the initial hessian          ...  (Almloef) done
Evaluating the coordinates              ...  done
Calculating the B-matrix                .... done
Calculating the G-matrix                .... done
Diagonalizing the G-matrix              .... done
Small eigenvalue found = 4.443e-04
Small eigenvalue found = 7.148e-04
Small eigenvalue found = 1.378e-03
Small eigenvalue found = 1.739e-03
Small eigenvalue found = 1.754e-03
Small eigenvalue found = 2.032e-03
Small eigenvalue found = 3.816e-03
Small eigenvalue found = 6.605e-03
Small eigenvalue found = 7.251e-03
Small eigenvalue found = 1.028e-02
Small eigenvalue found = 1.172e-02
Small eigenvalue found = 1.197e-02
Small eigenvalue found = 1.354e-02
Small eigenvalue found = 1.752e-02
Small eigenvalue found = 1.972e-02
Small eigenvalue found = 2.111e-02
Small eigenvalue found = 2.485e-02
Small eigenvalue found = 2.772e-02
Small eigenvalue found = 2.968e-02
Small eigenvalue found = 2.992e-02
The first mode is                       ....  239
The number of degrees of freedom        ....  282

    -----------------------------------------------------------------
                    Redundant Internal Coordinates


    -----------------------------------------------------------------
         Definition                    Initial Value    Approx d2E/dq
    -----------------------------------------------------------------
      1. B(C   2,C   1)                  1.4219         0.555759   
      2. B(C   3,C   2)                  1.3936         0.616556   
      3. B(C   4,C   0)                  1.4265         0.546442   
      4. B(C   4,C   3)                  1.4120         0.576386   
      5. B(C   5,C   4)                  1.4216         0.556234   
      6. B(C   6,C   5)                  1.3935         0.616821   
      7. B(C   6,C   1)                  1.4124         0.575344   
      8. B(H   7,C   3)                  1.0898         0.360363   
      9. B(H   8,C   6)                  1.0899         0.360259   
     10. B(C   9,C   2)                  1.5167         0.392247   
     11. B(H  10,C   9)                  1.1061         0.339455   
     12. B(H  11,C   9)                  1.1061         0.339441   
     13. B(C  12,C   9)                  1.5307         0.372616   
     14. B(H  13,C  12)                  1.1061         0.339419   
     15. B(H  14,C  12)                  1.1061         0.339419   
     16. B(C  15,C  12)                  1.5331         0.369305   
     17. B(H  16,C  15)                  1.1063         0.339213   
     18. B(H  17,C  15)                  1.1063         0.339214   
     19. B(C  18,C  15)                  1.5302         0.373242   
     20. B(H  19,C  18)                  1.1040         0.342046   
     21. B(H  20,C  18)                  1.1040         0.342051   
     22. B(C  21,C   5)                  1.5168         0.392123   
     23. B(H  22,C  21)                  1.1061         0.339434   
     24. B(H  23,C  21)                  1.1061         0.339416   
     25. B(C  24,C  21)                  1.5307         0.372677   
     26. B(H  25,C  24)                  1.1061         0.339418   
     27. B(H  26,C  24)                  1.1061         0.339416   
     28. B(C  27,C  24)                  1.5332         0.369228   
     29. B(H  28,C  27)                  1.1063         0.339164   
     30. B(H  29,C  27)                  1.1063         0.339158   
     31. B(C  30,C  27)                  1.5302         0.373237   
     32. B(H  31,C  30)                  1.1040         0.342092   
     33. B(H  32,C  30)                  1.1040         0.342087   
     34. B(C  33,C   0)                  1.2227         1.155171   
     35. B(H  34,C  18)                  1.1020         0.344580   
     36. B(H  35,C  30)                  1.1020         0.344584   
     37. B(C  36,C  33)                  1.4277         0.543974   
     38. B(C  37,C  36)                  1.4122         0.575814   
     39. B(C  38,C  37)                  1.3944         0.614769   
     40. B(C  39,C  38)                  1.3995         0.603310   
     41. B(C  40,C  39)                  1.3996         0.603170   
     42. B(C  41,C  40)                  1.3943         0.614963   
     43. B(C  41,C  36)                  1.4123         0.575631   
     44. B(H  42,C  39)                  1.0928         0.356382   
     45. B(H  43,C  40)                  1.0927         0.356504   
     46. B(H  44,C  37)                  1.0916         0.357938   
     47. B(H  45,C  41)                  1.0917         0.357799   
     48. B(H  46,C  38)                  1.0928         0.356479   
     49. B(C  47,C   1)                  1.4258         0.547810   
     50. B(C  48,C  47)                  1.2239         1.149921   
     51. B(C  50,C  48)                  1.4258         0.547794   
     52. B(C  51,C  50)                  1.4219         0.555763   
     53. B(C  52,C  51)                  1.3936         0.616549   
     54. B(C  53,C  52)                  1.4120         0.576387   
     55. B(C  53,C  49)                  1.4265         0.546436   
     56. B(C  54,C  53)                  1.4216         0.556241   
     57. B(C  55,C  54)                  1.3935         0.616820   
     58. B(C  55,C  50)                  1.4124         0.575342   
     59. B(H  56,C  52)                  1.0898         0.360364   
     60. B(H  57,C  55)                  1.0899         0.360260   
     61. B(C  58,C  51)                  1.5167         0.392248   
     62. B(H  59,C  58)                  1.1061         0.339440   
     63. B(H  60,C  58)                  1.1061         0.339456   
     64. B(C  61,C  58)                  1.5307         0.372619   
     65. B(H  62,C  61)                  1.1061         0.339422   
     66. B(H  63,C  61)                  1.1061         0.339416   
     67. B(C  64,C  61)                  1.5331         0.369305   
     68. B(H  65,C  64)                  1.1063         0.339216   
     69. B(H  66,H  25)                  4.8488         0.000000   
     70. B(H  66,C  64)                  1.1063         0.339212   
     71. B(C  67,C  64)                  1.5302         0.373242   
     72. B(H  68,C  67)                  1.1040         0.342053   
     73. B(H  69,C  67)                  1.1040         0.342044   
     74. B(C  70,C  54)                  1.5168         0.392121   
     75. B(H  71,C  70)                  1.1061         0.339409   
     76. B(H  72,C  70)                  1.1061         0.339441   
     77. B(C  73,C  70)                  1.5307         0.372678   
     78. B(H  74,H  17)                  4.8482         0.000000   
     79. B(H  74,C  73)                  1.1061         0.339413   
     80. B(H  75,C  73)                  1.1061         0.339420   
     81. B(C  76,C  73)                  1.5332         0.369229   
     82. B(H  77,C  76)                  1.1063         0.339156   
     83. B(H  78,C  76)                  1.1063         0.339168   
     84. B(C  79,C  76)                  1.5302         0.373237   
     85. B(H  80,C  79)                  1.1040         0.342084   
     86. B(H  81,C  79)                  1.1040         0.342094   
     87. B(C  82,C  49)                  1.2227         1.155174   
     88. B(H  83,C  67)                  1.1020         0.344580   
     89. B(H  84,C  79)                  1.1020         0.344584   
     90. B(C  85,C  82)                  1.4277         0.543969   
     91. B(C  86,C  85)                  1.4122         0.575812   
     92. B(C  87,C  86)                  1.3944         0.614758   
     93. B(C  88,C  87)                  1.3995         0.603306   
     94. B(C  89,C  88)                  1.3996         0.603161   
     95. B(C  90,C  89)                  1.3943         0.614954   
     96. B(C  90,C  85)                  1.4123         0.575625   
     97. B(H  91,C  88)                  1.0928         0.356383   
     98. B(H  92,C  89)                  1.0927         0.356504   
     99. B(H  93,C  86)                  1.0916         0.357940   
    100. B(H  94,C  90)                  1.0917         0.357803   
    101. B(H  95,C  87)                  1.0927         0.356481   
    102. L(C   4,C   0,C  33,C   3, 1) 179.6719         0.475062   
    103. L(C   4,C   0,C  33,C   3, 2) 179.8574         0.475062   
    104. A(C   2,C   1,C  47)          120.8362         0.416327   
    105. A(C   6,C   1,C  47)          119.1943         0.418903   
    106. A(C   2,C   1,C   6)          119.9695         0.419980   
    107. A(C   1,C   2,C   9)          119.7097         0.392492   
    108. A(C   1,C   2,C   3)          117.5268         0.425204   
    109. A(C   3,C   2,C   9)          122.7635         0.399707   
    110. A(C   2,C   3,H   7)          119.9402         0.352620   
    111. A(C   4,C   3,H   7)          117.5752         0.348631   
    112. A(C   2,C   3,C   4)          122.4846         0.427988   
    113. A(C   3,C   4,C   5)          120.0083         0.420180   
    114. A(C   0,C   4,C   5)          120.8338         0.416205   
    115. A(C   0,C   4,C   3)          119.1579         0.418851   
    116. A(C   4,C   5,C  21)          119.6825         0.392529   
    117. A(C   4,C   5,C   6)          117.5129         0.425301   
    118. A(C   6,C   5,C  21)          122.8046         0.399715   
    119. A(C   1,C   6,H   8)          117.5892         0.348507   
    120. A(C   5,C   6,H   8)          119.9131         0.352628   
    121. A(C   1,C   6,C   5)          122.4978         0.427882   
    122. A(C   2,C   9,H  11)          108.1650         0.323770   
    123. A(C   2,C   9,H  10)          108.1596         0.323773   
    124. A(H  10,C   9,H  11)          104.5359         0.285515   
    125. A(C   2,C   9,C  12)          116.8911         0.366236   
    126. A(H  10,C   9,C  12)          109.1868         0.321060   
    127. A(H  11,C   9,C  12)          109.1934         0.321058   
    128. A(H  13,C  12,C  15)          109.0322         0.320586   
    129. A(H  14,C  12,C  15)          109.0363         0.320586   
    130. A(C   9,C  12,C  15)          112.6338         0.362479   
    131. A(H  13,C  12,H  14)          106.2134         0.285507   
    132. A(C   9,C  12,H  14)          109.8604         0.321055   
    133. A(C   9,C  12,H  13)          109.8553         0.321055   
    134. A(C  12,C  15,C  18)          113.1750         0.362583   
    135. A(H  16,C  15,H  17)          105.8721         0.285453   
    136. A(C  12,C  15,H  17)          109.2144         0.320555   
    137. A(H  16,C  15,C  18)          109.5517         0.321111   
    138. A(C  12,C  15,H  16)          109.2163         0.320554   
    139. A(H  17,C  15,C  18)          109.5504         0.321111   
    140. A(H  20,C  18,H  34)          107.5784         0.286524   
    141. A(H  19,C  18,H  34)          107.5776         0.286524   
    142. A(C  15,C  18,H  34)          111.5185         0.321937   
    143. A(H  19,C  18,H  20)          107.3509         0.286195   
    144. A(C  15,C  18,H  20)          111.3023         0.321549   
    145. A(C  15,C  18,H  19)          111.3031         0.321548   
    146. A(H  23,C  21,C  24)          109.1769         0.321063   
    147. A(H  22,C  21,C  24)          109.1718         0.321066   
    148. A(H  22,C  21,H  23)          104.5433         0.285509   
    149. A(C   5,C  21,H  23)          108.1578         0.323750   
    150. A(C   5,C  21,C  24)          116.9260         0.366226   
    151. A(C   5,C  21,H  22)          108.1534         0.323753   
    152. A(H  26,C  24,C  27)          109.0340         0.320575   
    153. A(H  25,C  24,C  27)          109.0398         0.320575   
    154. A(C  21,C  24,C  27)          112.6123         0.362477   
    155. A(H  25,C  24,H  26)          106.2198         0.285507   
    156. A(C  21,C  24,H  25)          109.8662         0.321063   
    157. A(C  21,C  24,H  26)          109.8608         0.321063   
    158. A(H  29,C  27,C  30)          109.5451         0.321102   
    159. A(H  28,C  27,C  30)          109.5446         0.321103   
    160. A(C  24,C  27,C  30)          113.1931         0.362570   
    161. A(H  28,C  27,H  29)          105.8815         0.285440   
    162. A(C  24,C  27,H  29)          109.2081         0.320535   
    163. A(C  24,C  27,H  28)          109.2068         0.320536   
    164. A(H  31,C  30,H  32)          107.3499         0.286205   
    165. A(C  27,C  30,H  32)          111.3069         0.321554   
    166. A(C  27,C  30,H  31)          111.3058         0.321555   
    167. A(H  32,C  30,H  35)          107.5796         0.286530   
    168. A(H  31,C  30,H  35)          107.5801         0.286530   
    169. A(C  27,C  30,H  35)          111.5088         0.321937   
    170. L(C   0,C  33,C  36,C  37, 2) 180.1295         0.474666   
    171. L(C   0,C  33,C  36,C  37, 1) 179.9083         0.474666   
    172. A(C  37,C  36,C  41)          118.7320         0.422684   
    173. A(C  33,C  36,C  41)          120.6361         0.418416   
    174. A(C  33,C  36,C  37)          120.6319         0.418439   
    175. A(C  38,C  37,H  44)          120.4799         0.352045   
    176. A(C  36,C  37,H  44)          119.1013         0.348176   
    177. A(C  36,C  37,C  38)          120.4188         0.427689   
    178. A(C  39,C  38,H  46)          120.0284         0.350685   
    179. A(C  37,C  38,H  46)          119.6018         0.351802   
    180. A(C  37,C  38,C  39)          120.3698         0.431284   
    181. A(C  38,C  39,H  42)          120.1502         0.350669   
    182. A(C  38,C  39,C  40)          119.6906         0.429812   
    183. A(C  40,C  39,H  42)          120.1592         0.350655   
    184. A(C  41,C  40,H  43)          119.6049         0.351824   
    185. A(C  39,C  40,H  43)          120.0436         0.350675   
    186. A(C  39,C  40,C  41)          120.3516         0.431291   
    187. A(C  40,C  41,H  45)          120.4504         0.352040   
    188. A(C  36,C  41,H  45)          119.1122         0.348134   
    189. A(C  36,C  41,C  40)          120.4374         0.427689   
    190. L(C   1,C  47,C  48,C   6, 2) 180.2985         0.474882   
    191. L(C   1,C  47,C  48,C   6, 1) 179.7923         0.474882   
    192. L(C  47,C  48,C  50,C  55, 2) 180.3320         0.474880   
    193. L(C  47,C  48,C  50,C  55, 1) 179.7921         0.474880   
    194. L(C  53,C  49,C  82,C  52, 2) 179.8639         0.475061   
    195. L(C  53,C  49,C  82,C  52, 1) 179.6541         0.475061   
    196. A(C  51,C  50,C  55)          119.9702         0.419981   
    197. A(C  48,C  50,C  55)          119.1939         0.418900   
    198. A(C  48,C  50,C  51)          120.8358         0.416325   
    199. A(C  52,C  51,C  58)          122.7633         0.399707   
    200. A(C  50,C  51,C  58)          119.7104         0.392492   
    201. A(C  50,C  51,C  52)          117.5263         0.425203   
    202. A(C  53,C  52,H  56)          117.5754         0.348631   
    203. A(C  51,C  52,H  56)          119.9399         0.352619   
    204. A(C  51,C  52,C  53)          122.4847         0.427988   
    205. A(C  52,C  53,C  54)          120.0083         0.420181   
    206. A(C  49,C  53,C  54)          120.8347         0.416205   
    207. A(C  49,C  53,C  52)          119.1570         0.418851   
    208. A(C  53,C  54,C  55)          117.5133         0.425302   
    209. A(C  55,C  54,C  70)          122.8047         0.399715   
    210. A(C  53,C  54,C  70)          119.6820         0.392529   
    211. A(C  54,C  55,H  57)          119.9140         0.352628   
    212. A(C  50,C  55,H  57)          117.5889         0.348507   
    213. A(C  50,C  55,C  54)          122.4971         0.427882   
    214. A(H  60,C  58,C  61)          109.1833         0.321061   
    215. A(H  59,C  58,C  61)          109.1975         0.321058   
    216. A(C  51,C  58,C  61)          116.8913         0.366236   
    217. A(H  59,C  58,H  60)          104.5362         0.285515   
    218. A(C  51,C  58,H  60)          108.1572         0.323773   
    219. A(C  51,C  58,H  59)          108.1664         0.323771   
    220. A(H  63,C  61,C  64)          109.0299         0.320586   
    221. A(H  62,C  61,C  64)          109.0386         0.320587   
    222. A(C  58,C  61,C  64)          112.6338         0.362480   
    223. A(H  62,C  61,H  63)          106.2131         0.285507   
    224. A(C  58,C  61,H  63)          109.8544         0.321055   
    225. A(C  58,C  61,H  62)          109.8615         0.321055   
    226. A(H  66,C  64,C  67)          109.5525         0.321111   
    227. A(H  65,C  64,C  67)          109.5495         0.321111   
    228. A(C  61,C  64,C  67)          113.1748         0.362583   
    229. A(H  65,C  64,H  66)          105.8722         0.285453   
    230. A(C  61,C  64,H  66)          109.2168         0.320554   
    231. A(C  61,C  64,H  65)          109.2141         0.320555   
    232. A(C  64,C  67,H  68)          111.3023         0.321549   
    233. A(H  69,C  67,H  83)          107.5769         0.286523   
    234. A(H  68,C  67,H  83)          107.5792         0.286525   
    235. A(C  64,C  67,H  83)          111.5185         0.321937   
    236. A(H  68,C  67,H  69)          107.3508         0.286195   
    237. A(C  64,C  67,H  69)          111.3031         0.321548   
    238. A(H  72,C  70,C  73)          109.1696         0.321067   
    239. A(H  71,C  70,C  73)          109.1791         0.321062   
    240. A(C  54,C  70,C  73)          116.9261         0.366226   
    241. A(H  71,C  70,H  72)          104.5436         0.285509   
    242. A(C  54,C  70,H  72)          108.1518         0.323753   
    243. A(C  54,C  70,H  71)          108.1592         0.323748   
    244. A(H  75,C  73,C  76)          109.0427         0.320576   
    245. A(H  74,C  73,C  76)          109.0316         0.320575   
    246. A(C  70,C  73,C  76)          112.6123         0.362477   
    247. A(H  74,C  73,H  75)          106.2196         0.285507   
    248. A(C  70,C  73,H  75)          109.8681         0.321064   
    249. A(C  70,C  73,H  74)          109.8587         0.321062   
    250. A(H  78,C  76,C  79)          109.5443         0.321103   
    251. A(H  77,C  76,C  79)          109.5454         0.321101   
    252. A(C  73,C  76,C  79)          113.1932         0.362570   
    253. A(H  77,C  76,H  78)          105.8815         0.285440   
    254. A(C  73,C  76,H  78)          109.2066         0.320537   
    255. A(C  73,C  76,H  77)          109.2083         0.320535   
    256. A(H  81,C  79,H  84)          107.5807         0.286531   
    257. A(H  80,C  79,H  84)          107.5790         0.286529   
    258. A(C  76,C  79,H  84)          111.5088         0.321937   
    259. A(H  80,C  79,H  81)          107.3498         0.286205   
    260. A(C  76,C  79,H  81)          111.3056         0.321555   
    261. A(C  76,C  79,H  80)          111.3071         0.321553   
    262. L(C  49,C  82,C  85,C  86, 2) 180.1153         0.474666   
    263. L(C  49,C  82,C  85,C  86, 1) 179.9240         0.474666   
    264. A(C  86,C  85,C  90)          118.7322         0.422683   
    265. A(C  82,C  85,C  90)          120.6360         0.418414   
    266. A(C  82,C  85,C  86)          120.6318         0.418439   
    267. A(C  87,C  86,H  93)          120.4793         0.352044   
    268. A(C  85,C  86,H  93)          119.1018         0.348176   
    269. A(C  85,C  86,C  87)          120.4188         0.427688   
    270. A(C  88,C  87,H  95)          120.0290         0.350685   
    271. A(C  86,C  87,H  95)          119.6015         0.351801   
    272. A(C  86,C  87,C  88)          120.3695         0.431282   
    273. A(C  89,C  88,H  91)          120.1590         0.350654   
    274. A(C  87,C  88,H  91)          120.1501         0.350668   
    275. A(C  87,C  88,C  89)          119.6909         0.429810   
    276. A(C  90,C  89,H  92)          119.6044         0.351823   
    277. A(C  88,C  89,H  92)          120.0441         0.350674   
    278. A(C  88,C  89,C  90)          120.3515         0.431288   
    279. A(C  89,C  90,H  94)          120.4507         0.352040   
    280. A(C  85,C  90,H  94)          119.1121         0.348135   
    281. A(C  85,C  90,C  89)          120.4371         0.427687   
    282. D(C   3,C   2,C   1,C   6)      0.0152         0.021145   
    283. D(C   9,C   2,C   1,C  47)      0.0198         0.021145   
    284. D(C   9,C   2,C   1,C   6)   -179.9807         0.021145   
    285. D(C   3,C   2,C   1,C  47)   -179.9843         0.021145   
    286. D(C   4,C   3,C   2,C   9)    179.9794         0.026287   
    287. D(C   4,C   3,C   2,C   1)     -0.0164         0.026287   
    288. D(H   7,C   3,C   2,C   1)    179.9966         0.026287   
    289. D(H   7,C   3,C   2,C   9)     -0.0076         0.026287   
    290. D(C   5,C   4,C   3,H   7)    179.9980         0.022812   
    291. D(C   5,C   4,C   3,C   2)      0.0107         0.022812   
    292. D(C   0,C   4,C   3,C   2)   -179.9862         0.022812   
    293. D(C   0,C   4,C   3,H   7)      0.0011         0.022812   
    294. D(C  21,C   5,C   4,C   0)     -0.0181         0.021183   
    295. D(C   6,C   5,C   4,C   0)    179.9935         0.021183   
    296. D(C   6,C   5,C   4,C   3)     -0.0033         0.021183   
    297. D(C  21,C   5,C   4,C   3)    179.9851         0.021183   
    298. D(H   8,C   6,C   1,C   2)    179.9968         0.022726   
    299. D(H   8,C   6,C   5,C   4)    179.9969         0.026311   
    300. D(C   5,C   6,C   1,C  47)    179.9907         0.022726   
    301. D(H   8,C   6,C   1,C  47)     -0.0038         0.022726   
    302. D(C   1,C   6,C   5,C  21)   -179.9854         0.026311   
    303. D(H   8,C   6,C   5,C  21)      0.0089         0.026311   
    304. D(C   5,C   6,C   1,C   2)     -0.0088         0.022726   
    305. D(C   1,C   6,C   5,C   4)      0.0026         0.026311   
    306. D(H  11,C   9,C   2,C   1)    -56.4027         0.011440   
    307. D(C  12,C   9,C   2,C   3)     -0.0640         0.011440   
    308. D(C  12,C   9,C   2,C   1)    179.9316         0.011440   
    309. D(H  11,C   9,C   2,C   3)    123.6016         0.011440   
    310. D(H  10,C   9,C   2,C   3)   -123.7164         0.011440   
    311. D(H  10,C   9,C   2,C   1)     56.2793         0.011440   
    312. D(H  13,C  12,C   9,C   2)    -58.2188         0.011090   
    313. D(C  15,C  12,C   9,H  10)    -56.8427         0.011090   
    314. D(C  15,C  12,C   9,C   2)   -179.9683         0.011090   
    315. D(H  14,C  12,C   9,H  10)   -178.6011         0.011090   
    316. D(H  14,C  12,C   9,H  11)    -64.8650         0.011090   
    317. D(H  14,C  12,C   9,C   2)     58.2733         0.011090   
    318. D(C  15,C  12,C   9,H  11)     56.8933         0.011090   
    319. D(H  13,C  12,C   9,H  10)     64.9068         0.011090   
    320. D(H  13,C  12,C   9,H  11)    178.6428         0.011090   
    321. D(C  18,C  15,C  12,C   9)    179.9828         0.010905   
    322. D(C  18,C  15,C  12,H  13)     57.7679         0.010905   
    323. D(H  17,C  15,C  12,H  14)    179.8850         0.010905   
    324. D(H  17,C  15,C  12,H  13)    -64.5541         0.010905   
    325. D(H  17,C  15,C  12,C   9)     57.6607         0.010905   
    326. D(H  16,C  15,C  12,H  14)     64.5321         0.010905   
    327. D(C  18,C  15,C  12,H  14)    -57.7930         0.010905   
    328. D(H  16,C  15,C  12,H  13)   -179.9070         0.010905   
    329. D(H  16,C  15,C  12,C   9)    -57.6922         0.010905   
    330. D(H  34,C  18,C  15,H  17)    -57.8679         0.011125   
    331. D(H  34,C  18,C  15,H  16)     57.8597         0.011125   
    332. D(H  20,C  18,C  15,H  17)     62.2770         0.011125   
    333. D(H  20,C  18,C  15,C  12)    -59.8575         0.011125   
    334. D(H  34,C  18,C  15,C  12)    179.9976         0.011125   
    335. D(H  19,C  18,C  15,H  16)    -62.2848         0.011125   
    336. D(H  19,C  18,C  15,H  17)   -178.0124         0.011125   
    337. D(H  20,C  18,C  15,H  16)    178.0045         0.011125   
    338. D(H  19,C  18,C  15,C  12)     59.8531         0.011125   
    339. D(C  24,C  21,C   5,C   4)   -179.9369         0.011433   
    340. D(H  23,C  21,C   5,C   6)   -123.6124         0.011433   
    341. D(H  23,C  21,C   5,C   4)     56.3999         0.011433   
    342. D(H  22,C  21,C   5,C   4)    -56.2842         0.011433   
    343. D(C  24,C  21,C   5,C   6)      0.0508         0.011433   
    344. D(H  22,C  21,C   5,C   6)    123.7035         0.011433   
    345. D(C  27,C  24,C  21,H  23)    -56.8832         0.011093   
    346. D(C  27,C  24,C  21,C   5)    179.9757         0.011093   
    347. D(H  26,C  24,C  21,H  23)   -178.6243         0.011093   
    348. D(H  26,C  24,C  21,H  22)    -64.8963         0.011093   
    349. D(H  26,C  24,C  21,C   5)     58.2346         0.011093   
    350. D(H  25,C  24,C  21,H  23)     64.8692         0.011093   
    351. D(C  27,C  24,C  21,H  22)     56.8449         0.011093   
    352. D(H  25,C  24,C  21,H  22)    178.5972         0.011093   
    353. D(H  25,C  24,C  21,C   5)    -58.2719         0.011093   
    354. D(C  30,C  27,C  24,H  26)    -57.7679         0.010901   
    355. D(C  30,C  27,C  24,H  25)     57.8036         0.010901   
    356. D(C  30,C  27,C  24,C  21)   -179.9767         0.010901   
    357. D(H  29,C  27,C  24,H  26)    179.9090         0.010901   
    358. D(H  29,C  27,C  24,H  25)    -64.5195         0.010901   
    359. D(H  29,C  27,C  24,C  21)     57.7002         0.010901   
    360. D(H  28,C  27,C  24,H  26)     64.5536         0.010901   
    361. D(H  28,C  27,C  24,H  25)   -179.8749         0.010901   
    362. D(H  28,C  27,C  24,C  21)    -57.6552         0.010901   
    363. D(H  35,C  30,C  27,H  29)    -57.8592         0.011125   
    364. D(H  35,C  30,C  27,C  24)   -179.9943         0.011125   
    365. D(H  32,C  30,C  27,H  29)     62.2837         0.011125   
    366. D(H  32,C  30,C  27,H  28)    178.0156         0.011125   
    367. D(H  31,C  30,C  27,H  29)   -178.0020         0.011125   
    368. D(H  31,C  30,C  27,H  28)    -62.2702         0.011125   
    369. D(H  32,C  30,C  27,C  24)    -59.8514         0.011125   
    370. D(H  31,C  30,C  27,C  24)     59.8629         0.011125   
    371. D(H  35,C  30,C  27,H  28)     57.8726         0.011125   
    372. D(C  41,C  36,C   4,C   5)     -1.0331         0.001500   
    373. D(C  41,C  36,C   4,C   3)    178.9358         0.001500   
    374. D(C  37,C  36,C   4,C   5)    178.9477         0.001500   
    375. D(C  37,C  36,C   4,C   3)     -1.0833         0.001500   
    376. D(H  44,C  37,C  36,C  41)    179.9745         0.022764   
    377. D(H  44,C  37,C  36,C  33)     -0.0230         0.022764   
    378. D(C  38,C  37,C  36,C  41)      0.0052         0.022764   
    379. D(C  38,C  37,C  36,C  33)   -179.9923         0.022764   
    380. D(H  46,C  38,C  37,H  44)      0.0082         0.026126   
    381. D(C  39,C  38,C  37,H  44)   -179.9725         0.026126   
    382. D(C  39,C  38,C  37,C  36)     -0.0036         0.026126   
    383. D(H  46,C  38,C  37,C  36)    179.9771         0.026126   
    384. D(H  42,C  39,C  38,H  46)      0.0227         0.025107   
    385. D(H  42,C  39,C  38,C  37)   -179.9967         0.025107   
    386. D(C  40,C  39,C  38,H  46)   -179.9805         0.025107   
    387. D(C  40,C  39,C  38,C  37)      0.0001         0.025107   
    388. D(H  43,C  40,C  39,H  42)      0.0181         0.025095   
    389. D(H  43,C  40,C  39,C  38)   -179.9787         0.025095   
    390. D(C  41,C  40,C  39,H  42)    179.9984         0.025095   
    391. D(C  41,C  40,C  39,C  38)      0.0017         0.025095   
    392. D(H  45,C  41,C  40,H  43)      0.0098         0.026143   
    393. D(H  45,C  41,C  40,C  39)   -179.9706         0.026143   
    394. D(C  36,C  41,C  40,H  43)    179.9805         0.026143   
    395. D(C  36,C  41,C  40,C  39)      0.0001         0.026143   
    396. D(H  45,C  41,C  36,C  37)    179.9676         0.022749   
    397. D(H  45,C  41,C  36,C  33)     -0.0349         0.022749   
    398. D(C  40,C  41,C  36,C  37)     -0.0034         0.022749   
    399. D(C  40,C  41,C  36,C  33)    179.9941         0.022749   
    400. D(C  55,C  50,C   1,C   6)   -179.8333         0.001500   
    401. D(C  55,C  50,C   1,C   2)      0.1203         0.001500   
    402. D(C  51,C  50,C   1,C   6)      0.2323         0.001500   
    403. D(C  51,C  50,C   1,C   2)   -179.8142         0.001500   
    404. D(C  58,C  51,C  50,C  55)    179.9734         0.021145   
    405. D(C  58,C  51,C  50,C  48)     -0.0271         0.021145   
    406. D(C  52,C  51,C  50,C  55)     -0.0233         0.021145   
    407. D(C  52,C  51,C  50,C  48)    179.9762         0.021145   
    408. D(C  53,C  52,C  51,C  50)      0.0225         0.026286   
    409. D(H  56,C  52,C  51,C  58)      0.0117         0.026286   
    410. D(H  56,C  52,C  51,C  50)   -179.9918         0.026286   
    411. D(C  53,C  52,C  51,C  58)   -179.9740         0.026286   
    412. D(C  54,C  53,C  52,H  56)   -179.9917         0.022812   
    413. D(C  54,C  53,C  52,C  51)     -0.0057         0.022812   
    414. D(C  49,C  53,C  52,H  56)      0.0055         0.022812   
    415. D(C  49,C  53,C  52,C  51)    179.9915         0.022812   
    416. D(C  70,C  54,C  53,C  52)   -179.9875         0.021183   
    417. D(C  70,C  54,C  53,C  49)      0.0154         0.021183   
    418. D(C  55,C  54,C  53,C  52)     -0.0105         0.021183   
    419. D(C  55,C  54,C  53,C  49)    179.9923         0.021183   
    420. D(H  57,C  55,C  54,C  70)     -0.0135         0.026311   
    421. D(H  57,C  55,C  54,C  53)   -179.9896         0.026311   
    422. D(C  50,C  55,C  54,C  70)    179.9856         0.026311   
    423. D(C  50,C  55,C  54,C  53)      0.0095         0.026311   
    424. D(H  57,C  55,C  50,C  51)   -179.9932         0.022725   
    425. D(H  57,C  55,C  50,C  48)      0.0073         0.022725   
    426. D(C  54,C  55,C  50,C  51)      0.0077         0.022725   
    427. D(C  54,C  55,C  50,C  48)   -179.9918         0.022725   
    428. D(C  61,C  58,C  51,C  52)      0.0810         0.011440   
    429. D(C  61,C  58,C  51,C  50)   -179.9154         0.011440   
    430. D(H  60,C  58,C  51,C  52)    123.7267         0.011440   
    431. D(H  60,C  58,C  51,C  50)    -56.2697         0.011440   
    432. D(H  59,C  58,C  51,C  52)   -123.5914         0.011440   
    433. D(H  59,C  58,C  51,C  50)     56.4122         0.011440   
    434. D(C  64,C  61,C  58,H  60)     56.8430         0.011090   
    435. D(C  64,C  61,C  58,H  59)    -56.8937         0.011090   
    436. D(C  64,C  61,C  58,C  51)    179.9625         0.011090   
    437. D(H  63,C  61,C  58,H  60)    -64.9029         0.011090   
    438. D(H  63,C  61,C  58,H  59)   -178.6396         0.011090   
    439. D(H  63,C  61,C  58,C  51)     58.2166         0.011090   
    440. D(H  62,C  61,C  58,H  60)    178.6052         0.011090   
    441. D(H  62,C  61,C  58,H  59)     64.8685         0.011090   
    442. D(H  62,C  61,C  58,C  51)    -58.2753         0.011090   
    443. D(C  67,C  64,C  61,H  63)    -57.7464         0.010905   
    444. D(C  67,C  64,C  61,H  62)     57.8142         0.010905   
    445. D(C  67,C  64,C  61,C  58)   -179.9585         0.010905   
    446. D(H  66,C  64,C  61,H  63)    179.9272         0.010905   
    447. D(H  66,C  64,C  61,H  62)    -64.5121         0.010905   
    448. D(H  66,C  64,C  61,C  58)     57.7152         0.010905   
    449. D(H  65,C  64,C  61,H  63)     64.5741         0.010905   
    450. D(H  65,C  64,C  61,H  62)   -179.8652         0.010905   
    451. D(H  65,C  64,C  61,C  58)    -57.6379         0.010905   
    452. D(H  83,C  67,C  64,H  66)    -57.8502         0.011125   
    453. D(H  83,C  67,C  64,H  65)     57.8774         0.011125   
    454. D(H  83,C  67,C  64,C  61)   -179.9892         0.011125   
    455. D(H  69,C  67,C  64,H  66)     62.2933         0.011125   
    456. D(H  69,C  67,C  64,H  65)    178.0209         0.011125   
    457. D(H  69,C  67,C  64,C  61)    -59.8457         0.011125   
    458. D(H  68,C  67,C  64,H  66)   -177.9961         0.011125   
    459. D(H  68,C  67,C  64,H  65)    -62.2685         0.011125   
    460. D(H  68,C  67,C  64,C  61)     59.8649         0.011125   
    461. D(C  73,C  70,C  54,C  55)     -0.0695         0.011433   
    462. D(C  73,C  70,C  54,C  53)    179.9062         0.011433   
    463. D(H  72,C  70,C  54,C  55)   -123.7180         0.011433   
    464. D(H  72,C  70,C  54,C  53)     56.2577         0.011433   
    465. D(H  71,C  70,C  54,C  55)    123.5978         0.011433   
    466. D(H  71,C  70,C  54,C  53)    -56.4265         0.011433   
    467. D(C  76,C  73,C  70,H  72)    -56.8450         0.011093   
    468. D(C  76,C  73,C  70,H  71)     56.8833         0.011093   
    469. D(C  76,C  73,C  70,C  54)   -179.9719         0.011093   
    470. D(H  75,C  73,C  70,H  72)   -178.6024         0.011093   
    471. D(H  75,C  73,C  70,H  71)    -64.8741         0.011093   
    472. D(H  75,C  73,C  70,C  54)     58.2706         0.011093   
    473. D(H  74,C  73,C  70,H  72)     64.8915         0.011093   
    474. D(H  74,C  73,C  70,H  71)    178.6198         0.011093   
    475. D(H  74,C  73,C  70,C  54)    -58.2355         0.011093   
    476. D(C  79,C  76,C  73,H  74)     57.7461         0.010901   
    477. D(C  79,C  76,C  73,C  70)    179.9504         0.010901   
    478. D(H  78,C  76,C  73,H  75)    179.8536         0.010901   
    479. D(H  78,C  76,C  73,H  74)    -64.5750         0.010901   
    480. D(H  78,C  76,C  73,C  70)     57.6293         0.010901   
    481. D(H  77,C  76,C  73,H  75)     64.4982         0.010901   
    482. D(H  77,C  76,C  73,H  74)   -179.9304         0.010901   
    483. D(C  79,C  76,C  73,H  75)    -57.8254         0.010901   
    484. D(H  77,C  76,C  73,C  70)    -57.7260         0.010901   
    485. D(H  84,C  79,C  76,H  78)    -57.8826         0.011125   
    486. D(H  84,C  79,C  76,H  77)     57.8492         0.011125   
    487. D(H  84,C  79,C  76,C  73)    179.9848         0.011125   
    488. D(H  81,C  79,C  76,H  78)     62.2609         0.011125   
    489. D(H  81,C  79,C  76,H  77)    177.9927         0.011125   
    490. D(H  81,C  79,C  76,C  73)    -59.8717         0.011125   
    491. D(H  80,C  79,C  76,H  78)   -178.0249         0.011125   
    492. D(H  80,C  79,C  76,H  77)    -62.2931         0.011125   
    493. D(H  80,C  79,C  76,C  73)     59.8425         0.011125   
    494. D(C  90,C  85,C  53,C  54)      1.8320         0.001500   
    495. D(C  90,C  85,C  53,C  52)   -178.1951         0.001500   
    496. D(C  86,C  85,C  53,C  54)   -178.1811         0.001500   
    497. D(C  86,C  85,C  53,C  52)      1.7918         0.001500   
    498. D(H  93,C  86,C  85,C  90)   -179.9506         0.022764   
    499. D(H  93,C  86,C  85,C  82)      0.0429         0.022764   
    500. D(C  87,C  86,C  85,C  90)     -0.0004         0.022764   
    501. D(C  87,C  86,C  85,C  82)    179.9931         0.022764   
    502. D(H  95,C  87,C  86,H  93)     -0.0140         0.026125   
    503. D(H  95,C  87,C  86,C  85)   -179.9636         0.026125   
    504. D(C  88,C  87,C  86,H  93)    179.9515         0.026125   
    505. D(C  88,C  87,C  86,C  85)      0.0020         0.026125   
    506. D(H  91,C  88,C  87,H  95)     -0.0377         0.025107   
    507. D(H  91,C  88,C  87,C  86)    179.9969         0.025107   
    508. D(C  89,C  88,C  87,H  95)    179.9649         0.025107   
    509. D(C  89,C  88,C  87,C  86)     -0.0005         0.025107   
    510. D(H  92,C  89,C  88,H  91)     -0.0324         0.025094   
    511. D(H  92,C  89,C  88,C  87)    179.9650         0.025094   
    512. D(C  90,C  89,C  88,H  91)   -180.0000         0.025094   
    513. D(C  90,C  89,C  88,C  87)     -0.0026         0.025094   
    514. D(H  94,C  90,C  89,H  92)     -0.0166         0.026143   
    515. D(H  94,C  90,C  89,C  88)    179.9512         0.026143   
    516. D(C  85,C  90,C  89,H  92)   -179.9635         0.026143   
    517. D(C  85,C  90,C  89,C  88)      0.0042         0.026143   
    518. D(H  94,C  90,C  85,C  86)   -179.9503         0.022749   
    519. D(H  94,C  90,C  85,C  82)      0.0561         0.022749   
    520. D(C  89,C  90,C  85,C  86)     -0.0027         0.022749   
    521. D(C  89,C  90,C  85,C  82)   -179.9962         0.022749   
    -----------------------------------------------------------------

Number of atoms                         .... 96
Number of degrees of freedom            .... 521

         *************************************************************
         *                GEOMETRY OPTIMIZATION CYCLE   1            *
         *************************************************************
---------------------------------
CARTESIAN COORDINATES (ANGSTROEM)
---------------------------------
  C      5.589722    0.067771    0.000201
  C      1.354441   -0.004599    0.001014
  C      2.077616   -1.228826    0.004403
  C      3.469264   -1.154815    0.004200
  C      4.163264    0.074804    0.000456
  C      3.440629    1.299079   -0.003065
  C      2.049091    1.225218   -0.002714
  H      4.062564   -2.068956    0.006786
  H      1.456274    2.139767   -0.005289
  C      1.325701   -2.546043    0.007953
  H      0.648156   -2.558567   -0.866215
  H      0.649642   -2.554818    0.883332
  C      2.168092   -3.824094    0.009868
  H      2.831470   -3.838121   -0.875112
  H      2.832525   -3.834886    0.894103
  C      1.311298   -5.095464    0.012640
  H      0.645268   -5.083769    0.895868
  H      0.643979   -5.086706   -0.869647
  C      2.141331   -6.381032    0.014151
  H      2.793535   -6.436310    0.903192
  H      2.792115   -6.439299   -0.875733
  C      4.193668    2.615754   -0.006732
  H      4.871114    2.627738    0.867541
  H      4.869754    2.623741   -0.882122
  C      3.353129    3.894970   -0.008914
  H      2.688740    3.906671   -0.893171
  H      2.689848    3.910302    0.876120
  C      4.212249    5.164838   -0.011968
  H      4.879598    5.154888    0.870334
  H      4.878110    5.151679   -0.895357
  C      3.384944    6.452167   -0.013601
  H      2.734435    6.512058    0.876338
  H      2.732743    6.508739   -0.902523
  C      6.812356    0.054737   -0.001544
  H      1.499320   -7.276691    0.016176
  H      4.029003    7.346350   -0.015887
  C      8.239957    0.037269   -0.001941
  C      8.944603   -1.186324    0.023945
  C     10.338957   -1.198195    0.023607
  C     11.056773    0.002942   -0.002477
  C     10.368598    1.221382   -0.028333
  C      8.974451    1.243275   -0.028173
  H     12.149515   -0.010549   -0.002707
  H     10.923270    2.162643   -0.049122
  H      8.382902   -2.122132    0.044721
  H      8.436003    2.192777   -0.048805
  H     10.870641   -2.152655    0.044186
  C     -0.071338    0.001998    0.001330
  C     -1.295237    0.012101    0.004820
  C     -6.956300   -0.053720    0.004102
  C     -2.721025    0.018682    0.004729
  C     -3.444204    1.242886   -0.002617
  C     -4.835854    1.168854   -0.002738
  C     -5.529839   -0.060757    0.004551
  C     -4.807192   -1.285002    0.012270
  C     -3.415654   -1.211132    0.012047
  H     -5.429161    2.082976   -0.008380
  H     -2.822819   -2.125655    0.017652
  C     -2.692311    2.560099   -0.009843
  H     -2.016035    2.566350   -0.885075
  H     -2.014988    2.575149    0.864457
  C     -3.534718    3.838126   -0.015536
  H     -4.199013    3.846408   -0.899898
  H     -4.198238    3.854647    0.869298
  C     -2.677941    5.109495   -0.021694
  H     -2.010527    5.103025    0.860539
  H     -2.012008    5.095533   -0.904963
  C     -3.507995    6.395043   -0.026407
  H     -4.158566    6.455653    0.863476
  H     -4.160414    6.447959   -0.915435
  C     -5.560227   -2.601664    0.019784
  H     -6.236354   -2.607103    0.895168
  H     -6.237628   -2.616193   -0.854479
  C     -4.719687   -3.880867    0.025659
  H     -4.056456   -3.898740   -0.859367
  H     -4.055243   -3.890020    0.909903
  C     -5.578804   -5.150721    0.032333
  H     -6.244363   -5.135254    0.915915
  H     -6.246455   -5.143077   -0.849760
  C     -4.751498   -6.438043    0.037037
  H     -4.098866   -6.492222    0.925794
  H     -4.101422   -6.500330   -0.853050
  C     -8.178929   -0.040318    0.002195
  H     -2.865999    7.290703   -0.030972
  H     -5.395557   -7.332215    0.042056
  C     -9.606531   -0.022725    0.001313
  C    -10.311040    1.200344   -0.045025
  C    -11.705397    1.212341   -0.045835
  C    -12.423344    0.011846   -0.000670
  C    -11.735305   -1.206075    0.045502
  C    -10.341156   -1.228088    0.046625
  H    -13.516084    0.025431   -0.001411
  H    -12.290074   -2.146820    0.081475
  H     -9.749242    2.135631   -0.081009
  H     -9.802810   -2.177156    0.083408
  H    -12.236968    2.166377   -0.082581

----------------------------
CARTESIAN COORDINATES (A.U.)
----------------------------
  NO LB      ZA    FRAG     MASS         X           Y           Z
   0 C     6.0000    0    12.011   10.563043    0.128068    0.000381
   1 C     6.0000    0    12.011    2.559523   -0.008692    0.001916
   2 C     6.0000    0    12.011    3.926126   -2.322144    0.008320
   3 C     6.0000    0    12.011    6.555959   -2.182284    0.007936
   4 C     6.0000    0    12.011    7.867428    0.141359    0.000862
   5 C     6.0000    0    12.011    6.501847    2.454904   -0.005792
   6 C     6.0000    0    12.011    3.872221    2.315326   -0.005129
   7 H     1.0000    0     1.008    7.677134   -3.909761    0.012825
   8 H     1.0000    0     1.008    2.751960    4.043574   -0.009995
   9 C     6.0000    0    12.011    2.505212   -4.811324    0.015030
  10 H     1.0000    0     1.008    1.224838   -4.834991   -1.636908
  11 H     1.0000    0     1.008    1.227646   -4.827907    1.669255
  12 C     6.0000    0    12.011    4.097100   -7.226491    0.018648
  13 H     1.0000    0     1.008    5.350702   -7.252997   -1.653723
  14 H     1.0000    0     1.008    5.352696   -7.246884    1.689609
  15 C     6.0000    0    12.011    2.477994   -9.629031    0.023886
  16 H     1.0000    0     1.008    1.219381   -9.606931    1.692944
  17 H     1.0000    0     1.008    1.216944   -9.612481   -1.643395
  18 C     6.0000    0    12.011    4.046528  -12.058402    0.026742
  19 H     1.0000    0     1.008    5.279015  -12.162864    1.706786
  20 H     1.0000    0     1.008    5.276333  -12.168511   -1.654896
  21 C     6.0000    0    12.011    7.924883    4.943058   -0.012721
  22 H     1.0000    0     1.008    9.205071    4.965705    1.639416
  23 H     1.0000    0     1.008    9.202501    4.958153   -1.666968
  24 C     6.0000    0    12.011    6.336496    7.360427   -0.016846
  25 H     1.0000    0     1.008    5.080982    7.382539   -1.687849
  26 H     1.0000    0     1.008    5.083077    7.389400    1.655627
  27 C     6.0000    0    12.011    7.959996    9.760129   -0.022616
  28 H     1.0000    0     1.008    9.221103    9.741327    1.644692
  29 H     1.0000    0     1.008    9.218292    9.735263   -1.691979
  30 C     6.0000    0    12.011    6.396617   12.192829   -0.025703
  31 H     1.0000    0     1.008    5.167334   12.306006    1.656038
  32 H     1.0000    0     1.008    5.164136   12.299734   -1.705522
  33 C     6.0000    0    12.011   12.873488    0.103438   -0.002918
  34 H     1.0000    0     1.008    2.833304  -13.750953    0.030568
  35 H     1.0000    0     1.008    7.613713   13.882590   -0.030022
  36 C     6.0000    0    12.011   15.571263    0.070428   -0.003667
  37 C     6.0000    0    12.011   16.902851   -2.241828    0.045250
  38 C     6.0000    0    12.011   19.537798   -2.264261    0.044611
  39 C     6.0000    0    12.011   20.894274    0.005560   -0.004681
  40 C     6.0000    0    12.011   19.593810    2.308078   -0.053541
  41 C     6.0000    0    12.011   16.959255    2.349449   -0.053240
  42 H     1.0000    0     1.008   22.959256   -0.019935   -0.005115
  43 H     1.0000    0     1.008   20.641988    4.086802   -0.092828
  44 H     1.0000    0     1.008   15.841389   -4.010248    0.084510
  45 H     1.0000    0     1.008   15.941736    4.143749   -0.092228
  46 H     1.0000    0     1.008   20.542534   -4.067929    0.083500
  47 C     6.0000    0    12.011   -0.134810    0.003775    0.002513
  48 C     6.0000    0    12.011   -2.447643    0.022867    0.009109
  49 C     6.0000    0    12.011  -13.145501   -0.101517    0.007752
  50 C     6.0000    0    12.011   -5.141992    0.035303    0.008937
  51 C     6.0000    0    12.011   -6.508603    2.348714   -0.004946
  52 C     6.0000    0    12.011   -9.138439    2.208813   -0.005174
  53 C     6.0000    0    12.011  -10.449881   -0.114814    0.008600
  54 C     6.0000    0    12.011   -9.084277   -2.428302    0.023188
  55 C     6.0000    0    12.011   -6.454651   -2.288708    0.022766
  56 H     1.0000    0     1.008  -10.259628    3.936254   -0.015835
  57 H     1.0000    0     1.008   -5.334354   -4.016905    0.033357
  58 C     6.0000    0    12.011   -5.087731    4.837886   -0.018600
  59 H     1.0000    0     1.008   -3.809755    4.849698   -1.672550
  60 H     1.0000    0     1.008   -3.807776    4.866327    1.633586
  61 C     6.0000    0    12.011   -6.679649    7.253007   -0.029359
  62 H     1.0000    0     1.008   -7.934984    7.268658   -1.700561
  63 H     1.0000    0     1.008   -7.933520    7.284228    1.642734
  64 C     6.0000    0    12.011   -5.060574    9.655547   -0.040997
  65 H     1.0000    0     1.008   -3.799346    9.643321    1.626183
  66 H     1.0000    0     1.008   -3.802143    9.629161   -1.710133
  67 C     6.0000    0    12.011   -6.629149   12.084879   -0.049901
  68 H     1.0000    0     1.008   -7.858551   12.199417    1.631732
  69 H     1.0000    0     1.008   -7.862044   12.184878   -1.729921
  70 C     6.0000    0    12.011  -10.507306   -4.916432    0.037386
  71 H     1.0000    0     1.008  -11.785001   -4.926710    1.691622
  72 H     1.0000    0     1.008  -11.787409   -4.943889   -1.614731
  73 C     6.0000    0    12.011   -8.918916   -7.333775    0.048489
  74 H     1.0000    0     1.008   -7.665590   -7.367552   -1.623969
  75 H     1.0000    0     1.008   -7.663299   -7.351073    1.719467
  76 C     6.0000    0    12.011  -10.542411   -9.733452    0.061100
  77 H     1.0000    0     1.008  -11.800135   -9.704224    1.730829
  78 H     1.0000    0     1.008  -11.804090   -9.719008   -1.605813
  79 C     6.0000    0    12.011   -8.979030  -12.166138    0.069990
  80 H     1.0000    0     1.008   -7.745735  -12.268521    1.749497
  81 H     1.0000    0     1.008   -7.750564  -12.283844   -1.612031
  82 C     6.0000    0    12.011  -15.455937   -0.076190    0.004148
  83 H     1.0000    0     1.008   -5.415953   13.777432   -0.058529
  84 H     1.0000    0     1.008  -10.196125  -13.855879    0.079475
  85 C     6.0000    0    12.011  -18.153712   -0.042944    0.002482
  86 C     6.0000    0    12.011  -19.485042    2.268322   -0.085086
  87 C     6.0000    0    12.011  -22.119995    2.290993   -0.086615
  88 C     6.0000    0    12.011  -23.476718    0.022385   -0.001266
  89 C     6.0000    0    12.011  -22.176512   -2.279151    0.085987
  90 C     6.0000    0    12.011  -19.541953   -2.320750    0.088108
  91 H     1.0000    0     1.008  -25.541697    0.048057   -0.002666
  92 H     1.0000    0     1.008  -23.224873   -4.056901    0.153966
  93 H     1.0000    0     1.008  -18.423398    4.035758   -0.153085
  94 H     1.0000    0     1.008  -18.524627   -4.114229    0.157618
  95 H     1.0000    0     1.008  -23.124518    4.093860   -0.156055

--------------------------------
INTERNAL COORDINATES (ANGSTROEM)
--------------------------------
 C      0   0   0     0.000000000000     0.00000000     0.00000000
 C      1   0   0     4.235898970959     0.00000000     0.00000000
 C      2   1   0     1.421873549928    60.40786928     0.00000000
 C      3   2   1     1.393614217554   117.52683610     0.00000000
 C      4   3   2     1.411953370927   122.48463771     0.00000000
 C      5   4   3     1.421640999110   120.00830496     0.00000000
 C      6   5   4     1.393497261695   117.51293808     0.00000000
 H      4   3   2     1.089801105282   119.94020398   179.99659082
 H      7   6   5     1.089879829610   119.91307729   179.99693534
 C      3   2   1     1.516723315808   119.70968724   180.01369258
 H     10   3   2     1.106071132072   108.15957176    56.27929001
 H     10   3   2     1.106082945401   108.16499867   303.59728505
 C     10   3   2     1.530699774163   116.89105433   179.93164282
 H     13  10   3     1.106100305809   109.85525787   301.78122712
 H     13  10   3     1.106100266437   109.86036632    58.27333273
 C     13  10   3     1.533129095091   112.63375623   180.03171016
 H     16  13  10     1.106265410482   109.21631360   302.30784247
 H     16  13  10     1.106264654302   109.21436605    57.66073185
 C     16  13  10     1.530242212131   113.17496626   179.98275449
 H     19  16  13     1.104001675771   111.30312940    59.85311521
 H     19  16  13     1.103997698746   111.30230826   300.14245743
 C      6   5   4     1.516809505082   119.68247862   179.98508553
 H     22   6   5     1.106088099020   108.15341689   303.71580800
 H     22   6   5     1.106102821571   108.15783314    56.39989829
 C     22   6   5     1.530654895337   116.92599229   180.06310937
 H     25  22   6     1.106101178126   109.86617796   301.72807022
 H     25  22   6     1.106102583930   109.86078405    58.23458663
 C     25  22   6     1.533185611681   112.61225886   179.97572375
 H     28  25  22     1.106304675875   109.20679493   302.34484756
 H     28  25  22     1.106309299637   109.20808444    57.70024363
 C     28  25  22     1.530246168909   113.19313778   180.02333408
 H     31  28  25     1.103965241693   111.30581397    59.86288852
 H     31  28  25     1.103969234540   111.30693261   300.14863486
 C      1   2   3     1.222705388426   178.40870859     2.71412345
 H     19  16  13     1.101992559221   111.51853282   179.99760860
 H     31  28  25     1.101989483554   111.50882566   180.00567987
 C     34   1   5     1.427707854593   179.88823703   311.57703747
 C     37  34   1     1.412223600489   120.63190571    34.89494410
 C     38  37  34     1.394404328838   120.41875151   180.00765279
 C     39  38  37     1.399525907458   120.36977666     0.00000000
 C     40  39  38     1.399589261575   119.69057041     0.00000000
 C     41  40  39     1.394318386003   120.35155878     0.00000000
 H     40  39  38     1.092825007261   120.15021556   180.00330969
 H     41  40  39     1.092732335707   120.04356908   180.02133019
 H     38  37  34     1.091639149888   119.10132743   359.97696747
 H     42  41  40     1.091745107550   120.45038446   180.02943969
 H     39  38  37     1.092750791837   119.60178721   179.97713115
 C      2   1   3     1.425794803736   178.75593948   179.75742201
 C     48   2   7     1.223945372955   179.74329181   323.89162557
 C     49  48   2     5.661445158547   178.84819340   207.42271761
 C     49  48   2     1.425802918709   179.73283993   177.24268896
 C     51  49  48     1.421871547795   120.83581644   219.04212467
 C     52  51  49     1.393617046853   117.52631326   179.97622851
 C     53  52  51     1.411952717998   122.48473486     0.00000000
 C     54  53  52     1.421637486669   120.00833447     0.00000000
 C     55  54  53     1.393497373809   117.51327129     0.00000000
 H     53  52  51     1.089800824555   119.93990699   180.00819636
 H     56  55  54     1.089879089792   119.91398973   180.01036716
 C     52  51  49     1.516722286089   119.71037859   359.97285091
 H     59  52  51     1.106083208355   108.16637339    56.41216051
 H     59  52  51     1.106070718813   108.15715034   303.73030394
 C     59  52  51     1.530697139952   116.89125014   180.08457890
 H     62  59  52     1.106098017440   109.86145930   301.72472573
 H     62  59  52     1.106102372180   109.85436255    58.21663249
 C     62  59  52     1.533129282488   112.63377438   179.96254381
 H     65  62  59     1.106263044017   109.21406653   302.36206826
 H     65  62  59     1.106266415738   109.21681379    57.71517922
 C     65  62  59     1.530242845861   113.17480208   180.04153026
 H     68  65  62     1.103995976244   111.30234609    59.86488133
 H     68  65  62     1.104003310905   111.30312469   300.15426666
 C     55  54  53     1.516810695555   119.68202444   180.01252740
 H     71  55  54     1.106108082855   108.15915209   303.57345977
 H     71  55  54     1.106082651239   108.15178462    56.25770116
 C     71  55  54     1.530654135771   116.92609411   179.90618904
 H     74  71  55     1.106104740678   109.85868807   301.76452969
 H     74  71  55     1.106099111067   109.86814073    58.27063344
 C     74  71  55     1.533185207412   112.61226522   180.02806254
 H     77  74  71     1.106311601283   109.20827263   302.27396737
 H     77  74  71     1.106301796936   109.20663351    57.62932772
 C     77  74  71     1.530246504411   113.19318383   179.95039132
 H     80  77  74     1.103971335929   111.30709330    59.84247524
 H     80  77  74     1.103963141730   111.30564313   300.12826018
 C     50  49  48     1.222704816349   178.70320396   192.15163252
 H     68  65  62     1.101992586423   111.51852273   180.01076811
 H     80  77  74     1.101989428443   111.50881703   179.98475834
 C     83  50  54     1.427710067151   179.90512531   313.63096291
 C     86  83  50     1.412224621253   120.63180704    36.86115268
 C     87  86  83     1.394409181689   120.41879990   179.99312823
 C     88  87  86     1.399527750653   120.36947845     0.00000000
 C     89  88  87     1.399592963340   119.69085534     0.00000000
 C     90  89  88     1.394322415085   120.35149308     0.00000000
 H     89  88  87     1.092824454198   120.15011885   179.99689310
 H     90  89  88     1.092732257299   120.04413829   179.96498906
 H     87  86  83     1.091637739900   119.10184210     0.04293016
 H     91  90  89     1.091741892039   120.45073920   179.95117499
 H     88  87  86     1.092749888470   119.60154587   180.03644640

---------------------------
INTERNAL COORDINATES (A.U.)
---------------------------
 C      0   0   0     0.000000000000     0.00000000     0.00000000
 C      1   0   0     8.004688986071     0.00000000     0.00000000
 C      2   1   0     2.686951606431    60.40786928     0.00000000
 C      3   2   1     2.633549207515   117.52683610     0.00000000
 C      4   3   2     2.668205184919   122.48463771     0.00000000
 C      5   4   3     2.686512149073   120.00830496     0.00000000
 C      6   5   4     2.633328192973   117.51293808     0.00000000
 H      4   3   2     2.059425629427   119.94020398   179.99659082
 H      7   6   5     2.059574396847   119.91307729   179.99693534
 C      3   2   1     2.866191687810   119.70968724   180.01369258
 H     10   3   2     2.090171524253   108.15957176    56.27929001
 H     10   3   2     2.090193848209   108.16499867   303.59728505
 C     10   3   2     2.892603366424   116.89105433   179.93164282
 H     13  10   3     2.090226654625   109.85525787   301.78122712
 H     13  10   3     2.090226580223   109.86036632    58.27333273
 C     13  10   3     2.897194117669   112.63375623   180.03171016
 H     16  13  10     2.090538657241   109.21631360   302.30784247
 H     16  13  10     2.090537228267   109.21436605    57.66073185
 C     16  13  10     2.891738699494   113.17496626   179.98275449
 H     19  16  13     2.086260818597   111.30312940    59.85311521
 H     19  16  13     2.086253303110   111.30230826   300.14245743
 C      6   5   4     2.866354561934   119.68247862   179.98508553
 H     22   6   5     2.090203587137   108.15341689   303.71580800
 H     22   6   5     2.090231408727   108.15783314    56.39989829
 C     22   6   5     2.892518557733   116.92599229   180.06310937
 H     25  22   6     2.090228303066   109.86617796   301.72807022
 H     25  22   6     2.090230959650   109.86078405    58.23458663
 C     25  22   6     2.897300918545   112.61225886   179.97572375
 H     28  25  22     2.090612858081   109.20679493   302.34484756
 H     28  25  22     2.090621595724   109.20808444    57.70024363
 C     28  25  22     2.891746176720   113.19313778   180.02333408
 H     31  28  25     2.086191968168   111.30581397    59.86288852
 H     31  28  25     2.086199513555   111.30693261   300.14863486
 C      1   2   3     2.310578326596   178.40870859     2.71412345
 H     19  16  13     2.082464138547   111.51853282   179.99760860
 H     31  28  25     2.082458326379   111.50882566   180.00567987
 C     34   1   5     2.697976844429   179.88823703   311.57703747
 C     37  34   1     2.668715844784   120.63190571    34.89494410
 C     38  37  34     2.635042301458   120.41875151   180.00765279
 C     39  38  37     2.644720682424   120.36977666     0.00000000
 C     40  39  38     2.644840404354   119.69057041     0.00000000
 C     41  40  39     2.634879893036   120.35155878     0.00000000
 H     40  39  38     2.065139976024   120.15021556   180.00330969
 H     41  40  39     2.064964852166   120.04356908   180.02133019
 H     38  37  34     2.062899030355   119.10132743   359.97696747
 H     42  41  40     2.063099261318   120.45038446   180.02943969
 H     39  38  37     2.064999729198   119.60178721   179.97713115
 C      2   1   3     2.694361702229   178.75593948   179.75742201
 C     48   2   7     2.312921557765   179.74329181   323.89162557
 C     49  48   2    10.698580871869   178.84819340   207.42271761
 C     49  48   2     2.694377037306   179.73283993   177.24268896
 C     51  49  48     2.686947822947   120.83581644   219.04212467
 C     52  51  49     2.633554554116   117.52631326   179.97622851
 C     53  52  51     2.668203951061   122.48473486     0.00000000
 C     54  53  52     2.686505511520   120.00833447     0.00000000
 C     55  54  53     2.633328404838   117.51327129     0.00000000
 H     53  52  51     2.059425098931   119.93990699   180.00819636
 H     56  55  54     2.059572998795   119.91398973   180.01036716
 C     52  51  49     2.866189741923   119.71037859   359.97285091
 H     59  52  51     2.090194345119   108.16637339    56.41216051
 H     59  52  51     2.090170743306   108.15715034   303.73030394
 C     59  52  51     2.892598388487   116.89125014   180.08457890
 H     62  59  52     2.090222330234   109.86145930   301.72472573
 H     62  59  52     2.090230559501   109.85436255    58.21663249
 C     62  59  52     2.897194471797   112.63377438   179.96254381
 H     65  62  59     2.090534185271   109.21406653   302.36206826
 H     65  62  59     2.090540556900   109.21681379    57.71517922
 C     65  62  59     2.891739897070   113.17480208   180.04153026
 H     68  65  62     2.086250048052   111.30234609    59.86488133
 H     68  65  62     2.086263908552   111.30312469   300.15426666
 C     55  54  53     2.866356811602   119.68202444   180.01252740
 H     71  55  54     2.090241351114   108.15915209   303.57345977
 H     71  55  54     2.090193292322   108.15178462    56.25770116
 C     71  55  54     2.892517122361   116.92609411   179.90618904
 H     74  71  55     2.090235035313   109.85868807   301.76452969
 H     74  71  55     2.090224396891   109.86814073    58.27063344
 C     74  71  55     2.897300154587   112.61226522   180.02806254
 H     77  74  71     2.090625945204   109.20827263   302.27396737
 H     77  74  71     2.090607417675   109.20663351    57.62932772
 C     77  74  71     2.891746810727   113.19318383   179.95039132
 H     80  77  74     2.086203484605   111.30709330    59.84247524
 H     80  77  74     2.086187999814   111.30564313   300.12826018
 C     50  49  48     2.310577245527   178.70320396   192.15163252
 H     68  65  62     2.082464189952   111.51852273   180.01076811
 H     80  77  74     2.082458222233   111.50881703   179.98475834
 C     83  50  54     2.697981025557   179.90512531   313.63096291
 C     86  83  50     2.668717773750   120.63180704    36.86115268
 C     87  86  83     2.635051472017   120.41879990   179.99312823
 C     88  87  86     2.644724165557   120.36947845     0.00000000
 C     89  88  87     2.644847399676   119.69085534     0.00000000
 C     90  89  88     2.634887506899   120.35149308     0.00000000
 H     89  88  87     2.065138930886   120.15011885   179.99689310
 H     90  89  88     2.064964703996   120.04413829   179.96498906
 H     87  86  83     2.062896365864   119.10184210     0.04293016
 H     91  90  89     2.063093184883   120.45073920   179.95117499
 H     88  87  86     2.064998022080   119.60154587   180.03644640

---------------------
BASIS SET INFORMATION
---------------------
There are 2 groups of distinct atoms

 Group   1 Type C   : 17s4p1d contracted to 3s2p1d pattern {881/31/1}
 Group   2 Type H   : 4s1p contracted to 2s1p pattern {31/1}

Atom   0C    basis set group =>   1
Atom   1C    basis set group =>   1
Atom   2C    basis set group =>   1
Atom   3C    basis set group =>   1
Atom   4C    basis set group =>   1
Atom   5C    basis set group =>   1
Atom   6C    basis set group =>   1
Atom   7H    basis set group =>   2
Atom   8H    basis set group =>   2
Atom   9C    basis set group =>   1
Atom  10H    basis set group =>   2
Atom  11H    basis set group =>   2
Atom  12C    basis set group =>   1
Atom  13H    basis set group =>   2
Atom  14H    basis set group =>   2
Atom  15C    basis set group =>   1
Atom  16H    basis set group =>   2
Atom  17H    basis set group =>   2
Atom  18C    basis set group =>   1
Atom  19H    basis set group =>   2
Atom  20H    basis set group =>   2
Atom  21C    basis set group =>   1
Atom  22H    basis set group =>   2
Atom  23H    basis set group =>   2
Atom  24C    basis set group =>   1
Atom  25H    basis set group =>   2
Atom  26H    basis set group =>   2
Atom  27C    basis set group =>   1
Atom  28H    basis set group =>   2
Atom  29H    basis set group =>   2
Atom  30C    basis set group =>   1
Atom  31H    basis set group =>   2
Atom  32H    basis set group =>   2
Atom  33C    basis set group =>   1
Atom  34H    basis set group =>   2
Atom  35H    basis set group =>   2
Atom  36C    basis set group =>   1
Atom  37C    basis set group =>   1
Atom  38C    basis set group =>   1
Atom  39C    basis set group =>   1
Atom  40C    basis set group =>   1
Atom  41C    basis set group =>   1
Atom  42H    basis set group =>   2
Atom  43H    basis set group =>   2
Atom  44H    basis set group =>   2
Atom  45H    basis set group =>   2
Atom  46H    basis set group =>   2
Atom  47C    basis set group =>   1
Atom  48C    basis set group =>   1
Atom  49C    basis set group =>   1
Atom  50C    basis set group =>   1
Atom  51C    basis set group =>   1
Atom  52C    basis set group =>   1
Atom  53C    basis set group =>   1
Atom  54C    basis set group =>   1
Atom  55C    basis set group =>   1
Atom  56H    basis set group =>   2
Atom  57H    basis set group =>   2
Atom  58C    basis set group =>   1
Atom  59H    basis set group =>   2
Atom  60H    basis set group =>   2
Atom  61C    basis set group =>   1
Atom  62H    basis set group =>   2
Atom  63H    basis set group =>   2
Atom  64C    basis set group =>   1
Atom  65H    basis set group =>   2
Atom  66H    basis set group =>   2
Atom  67C    basis set group =>   1
Atom  68H    basis set group =>   2
Atom  69H    basis set group =>   2
Atom  70C    basis set group =>   1
Atom  71H    basis set group =>   2
Atom  72H    basis set group =>   2
Atom  73C    basis set group =>   1
Atom  74H    basis set group =>   2
Atom  75H    basis set group =>   2
Atom  76C    basis set group =>   1
Atom  77H    basis set group =>   2
Atom  78H    basis set group =>   2
Atom  79C    basis set group =>   1
Atom  80H    basis set group =>   2
Atom  81H    basis set group =>   2
Atom  82C    basis set group =>   1
Atom  83H    basis set group =>   2
Atom  84H    basis set group =>   2
Atom  85C    basis set group =>   1
Atom  86C    basis set group =>   1
Atom  87C    basis set group =>   1
Atom  88C    basis set group =>   1
Atom  89C    basis set group =>   1
Atom  90C    basis set group =>   1
Atom  91H    basis set group =>   2
Atom  92H    basis set group =>   2
Atom  93H    basis set group =>   2
Atom  94H    basis set group =>   2
Atom  95H    basis set group =>   2
---------------------------------
AUXILIARY/J BASIS SET INFORMATION
---------------------------------
There are 2 groups of distinct atoms

 Group   1 Type C   : 12s5p4d2f1g contracted to 6s4p3d1f1g pattern {711111/2111/211/2/1}
 Group   2 Type H   : 5s2p1d contracted to 3s1p1d pattern {311/2/1}

Atom   0C    basis set group =>   1
Atom   1C    basis set group =>   1
Atom   2C    basis set group =>   1
Atom   3C    basis set group =>   1
Atom   4C    basis set group =>   1
Atom   5C    basis set group =>   1
Atom   6C    basis set group =>   1
Atom   7H    basis set group =>   2
Atom   8H    basis set group =>   2
Atom   9C    basis set group =>   1
Atom  10H    basis set group =>   2
Atom  11H    basis set group =>   2
Atom  12C    basis set group =>   1
Atom  13H    basis set group =>   2
Atom  14H    basis set group =>   2
Atom  15C    basis set group =>   1
Atom  16H    basis set group =>   2
Atom  17H    basis set group =>   2
Atom  18C    basis set group =>   1
Atom  19H    basis set group =>   2
Atom  20H    basis set group =>   2
Atom  21C    basis set group =>   1
Atom  22H    basis set group =>   2
Atom  23H    basis set group =>   2
Atom  24C    basis set group =>   1
Atom  25H    basis set group =>   2
Atom  26H    basis set group =>   2
Atom  27C    basis set group =>   1
Atom  28H    basis set group =>   2
Atom  29H    basis set group =>   2
Atom  30C    basis set group =>   1
Atom  31H    basis set group =>   2
Atom  32H    basis set group =>   2
Atom  33C    basis set group =>   1
Atom  34H    basis set group =>   2
Atom  35H    basis set group =>   2
Atom  36C    basis set group =>   1
Atom  37C    basis set group =>   1
Atom  38C    basis set group =>   1
Atom  39C    basis set group =>   1
Atom  40C    basis set group =>   1
Atom  41C    basis set group =>   1
Atom  42H    basis set group =>   2
Atom  43H    basis set group =>   2
Atom  44H    basis set group =>   2
Atom  45H    basis set group =>   2
Atom  46H    basis set group =>   2
Atom  47C    basis set group =>   1
Atom  48C    basis set group =>   1
Atom  49C    basis set group =>   1
Atom  50C    basis set group =>   1
Atom  51C    basis set group =>   1
Atom  52C    basis set group =>   1
Atom  53C    basis set group =>   1
Atom  54C    basis set group =>   1
Atom  55C    basis set group =>   1
Atom  56H    basis set group =>   2
Atom  57H    basis set group =>   2
Atom  58C    basis set group =>   1
Atom  59H    basis set group =>   2
Atom  60H    basis set group =>   2
Atom  61C    basis set group =>   1
Atom  62H    basis set group =>   2
Atom  63H    basis set group =>   2
Atom  64C    basis set group =>   1
Atom  65H    basis set group =>   2
Atom  66H    basis set group =>   2
Atom  67C    basis set group =>   1
Atom  68H    basis set group =>   2
Atom  69H    basis set group =>   2
Atom  70C    basis set group =>   1
Atom  71H    basis set group =>   2
Atom  72H    basis set group =>   2
Atom  73C    basis set group =>   1
[...]
      py      :     0.984192
      dz2     :     0.026928  d :     0.191145
      dxz     :     0.053621
      dyz     :     0.020491
      dx2y2   :     0.042485
      dxy     :     0.047621
 71 H s       :     0.884027  s :     0.884027
      pz      :     0.034660  p :     0.077720
      px      :     0.027696
      py      :     0.015364
 72 H s       :     0.884033  s :     0.884033
      pz      :     0.034619  p :     0.077723
      px      :     0.027741
      py      :     0.015363
 73 C s       :     2.799086  s :     2.799086
      pz      :     1.041038  p :     3.053906
      px      :     1.022686
      py      :     0.990181
      dz2     :     0.027567  d :     0.190697
      dxz     :     0.058127
      dyz     :     0.018454
      dx2y2   :     0.038372
      dxy     :     0.048177
 74 H s       :     0.898893  s :     0.898893
      pz      :     0.034562  p :     0.076968
      px      :     0.026555
      py      :     0.015851
 75 H s       :     0.898899  s :     0.898899
      pz      :     0.034519  p :     0.076972
      px      :     0.026602
      py      :     0.015851
 76 C s       :     2.799356  s :     2.799356
      pz      :     1.041707  p :     3.055896
      px      :     1.021402
      py      :     0.992787
      dz2     :     0.027779  d :     0.191926
      dxz     :     0.057329
      dyz     :     0.018595
      dx2y2   :     0.039551
      dxy     :     0.048673
 77 H s       :     0.900353  s :     0.900353
      pz      :     0.033951  p :     0.075814
      px      :     0.026279
      py      :     0.015583
 78 H s       :     0.900355  s :     0.900355
      pz      :     0.033895  p :     0.075814
      px      :     0.026339
      py      :     0.015580
 79 C s       :     2.806580  s :     2.806580
      pz      :     1.053988  p :     3.114972
      px      :     1.041551
      py      :     1.019434
      dz2     :     0.026071  d :     0.146042
      dxz     :     0.045785
      dyz     :     0.009313
      dx2y2   :     0.024401
      dxy     :     0.040473
 80 H s       :     0.898850  s :     0.898850
      pz      :     0.034534  p :     0.076099
      px      :     0.025957
      py      :     0.015608
 81 H s       :     0.898846  s :     0.898846
      pz      :     0.034597  p :     0.076098
      px      :     0.025875
      py      :     0.015626
 82 C s       :     2.860756  s :     2.860756
      pz      :     0.956126  p :     2.990686
      px      :     1.087750
      py      :     0.946809
      dz2     :     0.015794  d :     0.172471
      dxz     :     0.054911
      dyz     :     0.000131
      dx2y2   :     0.047408
      dxy     :     0.054228
 83 H s       :     0.896305  s :     0.896305
      pz      :     0.015513  p :     0.076394
      px      :     0.025611
      py      :     0.035269
 84 H s       :     0.896265  s :     0.896265
      pz      :     0.015510  p :     0.076395
      px      :     0.025563
      py      :     0.035322
 85 C s       :     2.794499  s :     2.794499
      pz      :     0.940848  p :     2.998628
      px      :     1.004535
      py      :     1.053246
      dz2     :     0.015945  d :     0.260197
      dxz     :     0.032089
      dyz     :     0.031657
      dx2y2   :     0.093855
      dxy     :     0.086650
 86 C s       :     2.818756  s :     2.818756
      pz      :     0.939124  p :     2.987975
      px      :     1.036126
      py      :     1.012725
      dz2     :     0.012973  d :     0.194744
      dxz     :     0.026092
      dyz     :     0.013325
      dx2y2   :     0.063926
      dxy     :     0.078429
 87 C s       :     2.816968  s :     2.816968
      pz      :     0.939357  p :     3.007196
      px      :     1.044653
      py      :     1.023186
      dz2     :     0.012995  d :     0.199720
      dxz     :     0.027470
      dyz     :     0.013537
      dx2y2   :     0.068180
      dxy     :     0.077538
 88 C s       :     2.818651  s :     2.818651
      pz      :     0.938040  p :     3.005045
      px      :     1.014856
      py      :     1.052149
      dz2     :     0.012890  d :     0.198057
      dxz     :     0.007699
      dyz     :     0.032160
      dx2y2   :     0.083539
      dxy     :     0.061769
 89 C s       :     2.816952  s :     2.816952
      pz      :     0.939576  p :     3.007369
      px      :     1.043696
      py      :     1.024098
      dz2     :     0.012995  d :     0.199749
      dxz     :     0.026860
      dyz     :     0.014182
      dx2y2   :     0.067067
      dxy     :     0.078644
 90 C s       :     2.818630  s :     2.818630
      pz      :     0.939881  p :     2.988980
      px      :     1.036452
      py      :     1.012647
      dz2     :     0.012978  d :     0.194829
      dxz     :     0.026720
      dyz     :     0.012724
      dx2y2   :     0.064784
      dxy     :     0.077625
 91 H s       :     0.892229  s :     0.892229
      pz      :     0.017577  p :     0.079780
      px      :     0.047506
      py      :     0.014697
 92 H s       :     0.891446  s :     0.891446
      pz      :     0.017336  p :     0.079384
      px      :     0.023094
      py      :     0.038954
 93 H s       :     0.889458  s :     0.889458
      pz      :     0.017619  p :     0.080553
      px      :     0.023473
      py      :     0.039462
 94 H s       :     0.889645  s :     0.889645
      pz      :     0.017648  p :     0.080514
      px      :     0.022583
      py      :     0.040283
 95 H s       :     0.891349  s :     0.891349
      pz      :     0.017327  p :     0.079386
      px      :     0.022279
      py      :     0.039779


                      *****************************
                      * MAYER POPULATION ANALYSIS *
                      *****************************

  NA   - Mulliken gross atomic population
  ZA   - Total nuclear charge
  QA   - Mulliken gross atomic charge
  VA   - Mayer's total valence
  BVA  - Mayer's bonded valence
  FA   - Mayer's free valence

  ATOM       NA         ZA         QA         VA         BVA        FA
  0 C      5.7240     6.0000     0.2760     2.5154     2.5154    -0.0000
  1 C      6.1767     6.0000    -0.1767     3.8202     3.8202    -0.0000
  2 C      6.0792     6.0000    -0.0792     4.1574     4.1574     0.0000
  3 C      5.9937     6.0000     0.0063     3.8938     3.8938     0.0000
  4 C      6.1598     6.0000    -0.1598     3.8281     3.8281     0.0000
  5 C      6.0773     6.0000    -0.0773     4.1509     4.1509    -0.0000
  6 C      5.9996     6.0000     0.0004     3.8951     3.8951     0.0000
  7 H      1.0569     1.0000    -0.0569     1.0037     1.0037    -0.0000
  8 H      1.0563     1.0000    -0.0563     1.0042     1.0042    -0.0000
  9 C      5.9620     6.0000     0.0380     4.0324     4.0324    -0.0000
 10 H      0.9679     1.0000     0.0321     0.9686     0.9686    -0.0000
 11 H      0.9679     1.0000     0.0321     0.9686     0.9686     0.0000
 12 C      6.0330     6.0000    -0.0330     4.1135     4.1135    -0.0000
 13 H      0.9841     1.0000     0.0159     0.9630     0.9630    -0.0000
 14 H      0.9841     1.0000     0.0159     0.9630     0.9630     0.0000
 15 C      6.0244     6.0000    -0.0244     4.1171     4.1171    -0.0000
 16 H      0.9947     1.0000     0.0053     0.9675     0.9675    -0.0000
 17 H      0.9947     1.0000     0.0053     0.9675     0.9675    -0.0000
 18 C      5.9959     6.0000     0.0041     4.0167     4.0167     0.0000
 19 H      0.9832     1.0000     0.0168     0.9773     0.9773    -0.0000
 20 H      0.9831     1.0000     0.0169     0.9773     0.9773    -0.0000
 21 C      5.9597     6.0000     0.0403     4.0311     4.0311     0.0000
 22 H      0.9689     1.0000     0.0311     0.9690     0.9690    -0.0000
 23 H      0.9689     1.0000     0.0311     0.9690     0.9690     0.0000
 24 C      6.0345     6.0000    -0.0345     4.1147     4.1147    -0.0000
 25 H      0.9841     1.0000     0.0159     0.9629     0.9629    -0.0000
 26 H      0.9842     1.0000     0.0158     0.9629     0.9629    -0.0000
 27 C      6.0238     6.0000    -0.0238     4.1169     4.1169    -0.0000
 28 H      0.9947     1.0000     0.0053     0.9675     0.9675     0.0000
 29 H      0.9947     1.0000     0.0053     0.9674     0.9674     0.0000
 30 C      5.9961     6.0000     0.0039     4.0169     4.0169     0.0000
 31 H      0.9832     1.0000     0.0168     0.9773     0.9773     0.0000
 32 H      0.9833     1.0000     0.0167     0.9773     0.9773     0.0000
 33 C      5.8782     6.0000     0.1218     2.6459     2.6459    -0.0000
 34 H      0.9877     1.0000     0.0123     0.9734     0.9734    -0.0000
 35 H      0.9877     1.0000     0.0123     0.9734     0.9734    -0.0000
 36 C      6.2561     6.0000    -0.2561     3.9282     3.9282     0.0000
 37 C      5.9695     6.0000     0.0305     3.9946     3.9946     0.0000
 38 C      5.9592     6.0000     0.0408     3.9986     3.9986    -0.0000
 39 C      5.9669     6.0000     0.0331     3.9986     3.9986    -0.0000
 40 C      5.9596     6.0000     0.0404     3.9984     3.9984     0.0000
 41 C      5.9716     6.0000     0.0284     3.9936     3.9936     0.0000
 42 H      1.0279     1.0000    -0.0279     0.9687     0.9687     0.0000
 43 H      1.0280     1.0000    -0.0280     0.9684     0.9684     0.0000
 44 H      1.0408     1.0000    -0.0408     0.9836     0.9836     0.0000
 45 H      1.0402     1.0000    -0.0402     0.9832     0.9832     0.0000
 46 H      1.0278     1.0000    -0.0278     0.9683     0.9683     0.0000
 47 C      5.8243     6.0000     0.1757     2.5432     2.5432    -0.0000
 48 C      5.8245     6.0000     0.1755     2.5432     2.5432     0.0000
 49 C      5.7240     6.0000     0.2760     2.5154     2.5154     0.0000
 50 C      6.1768     6.0000    -0.1768     3.8201     3.8201    -0.0000
 51 C      6.0792     6.0000    -0.0792     4.1574     4.1574     0.0000
 52 C      5.9938     6.0000     0.0062     3.8938     3.8938     0.0000
 53 C      6.1598     6.0000    -0.1598     3.8281     3.8281    -0.0000
 54 C      6.0773     6.0000    -0.0773     4.1510     4.1510    -0.0000
 55 C      5.9996     6.0000     0.0004     3.8952     3.8952    -0.0000
 56 H      1.0569     1.0000    -0.0569     1.0037     1.0037     0.0000
 57 H      1.0563     1.0000    -0.0563     1.0042     1.0042    -0.0000
 58 C      5.9620     6.0000     0.0380     4.0324     4.0324    -0.0000
 59 H      0.9679     1.0000     0.0321     0.9686     0.9686    -0.0000
 60 H      0.9679     1.0000     0.0321     0.9686     0.9686    -0.0000
 61 C      6.0330     6.0000    -0.0330     4.1135     4.1135    -0.0000
 62 H      0.9841     1.0000     0.0159     0.9630     0.9630    -0.0000
 63 H      0.9841     1.0000     0.0159     0.9630     0.9630    -0.0000
 64 C      6.0244     6.0000    -0.0244     4.1171     4.1171     0.0000
 65 H      0.9947     1.0000     0.0053     0.9675     0.9675    -0.0000
 66 H      0.9947     1.0000     0.0053     0.9675     0.9675     0.0000
 67 C      5.9959     6.0000     0.0041     4.0167     4.0167     0.0000
 68 H      0.9831     1.0000     0.0169     0.9773     0.9773    -0.0000
 69 H      0.9832     1.0000     0.0168     0.9773     0.9773    -0.0000
 70 C      5.9597     6.0000     0.0403     4.0311     4.0311     0.0000
 71 H      0.9689     1.0000     0.0311     0.9690     0.9690     0.0000
 72 H      0.9689     1.0000     0.0311     0.9690     0.9690    -0.0000
 73 C      6.0345     6.0000    -0.0345     4.1147     4.1147     0.0000
 74 H      0.9842     1.0000     0.0158     0.9629     0.9629    -0.0000
 75 H      0.9841     1.0000     0.0159     0.9629     0.9629    -0.0000
 76 C      6.0238     6.0000    -0.0238     4.1169     4.1169    -0.0000
 77 H      0.9947     1.0000     0.0053     0.9674     0.9674     0.0000
 78 H      0.9947     1.0000     0.0053     0.9675     0.9675     0.0000
 79 C      5.9961     6.0000     0.0039     4.0169     4.0169     0.0000
 80 H      0.9833     1.0000     0.0167     0.9773     0.9773    -0.0000
 81 H      0.9832     1.0000     0.0168     0.9773     0.9773    -0.0000
 82 C      5.8782     6.0000     0.1218     2.6460     2.6460     0.0000
 83 H      0.9877     1.0000     0.0123     0.9734     0.9734     0.0000
 84 H      0.9877     1.0000     0.0123     0.9734     0.9734     0.0000
 85 C      6.2560     6.0000    -0.2560     3.9282     3.9282     0.0000
 86 C      5.9694     6.0000     0.0306     3.9946     3.9946     0.0000
 87 C      5.9592     6.0000     0.0408     3.9986     3.9986     0.0000
 88 C      5.9669     6.0000     0.0331     3.9986     3.9986    -0.0000
 89 C      5.9595     6.0000     0.0405     3.9984     3.9984    -0.0000
 90 C      5.9717     6.0000     0.0283     3.9936     3.9936    -0.0000
 91 H      1.0279     1.0000    -0.0279     0.9687     0.9687    -0.0000
 92 H      1.0280     1.0000    -0.0280     0.9684     0.9684    -0.0000
 93 H      1.0408     1.0000    -0.0408     0.9836     0.9836    -0.0000
 94 H      1.0402     1.0000    -0.0402     0.9832     0.9832    -0.0000
 95 H      1.0278     1.0000    -0.0278     0.9683     0.9683    -0.0000

  Mayer bond orders larger than 0.100000
B(  0-C ,  4-C ) :   0.8823 B(  0-C , 33-C ) :   1.7440 B(  0-C , 36-C ) :  -0.1788 
B(  1-C ,  2-C ) :   1.4042 B(  1-C ,  6-C ) :   1.3763 B(  1-C , 47-C ) :   0.8897 
B(  1-C , 48-C ) :  -0.1348 B(  1-C , 50-C ) :   0.1090 B(  2-C ,  3-C ) :   1.4402 
B(  2-C ,  9-C ) :   1.0958 B(  3-C ,  4-C ) :   1.3760 B(  3-C ,  7-H ) :   0.9199 
B(  4-C ,  5-C ) :   1.3991 B(  5-C ,  6-C ) :   1.4399 B(  5-C , 21-C ) :   1.0941 
B(  6-C ,  8-H ) :   0.9210 B(  9-C , 10-H ) :   0.8961 B(  9-C , 11-H ) :   0.8963 
B(  9-C , 12-C ) :   1.1050 B( 12-C , 13-H ) :   0.9291 B( 12-C , 14-H ) :   0.9291 
B( 12-C , 15-C ) :   1.0747 B( 15-C , 16-H ) :   0.9410 B( 15-C , 17-H ) :   0.9410 
B( 15-C , 18-C ) :   1.1061 B( 18-C , 19-H ) :   0.9662 B( 18-C , 20-H ) :   0.9662 
B( 18-C , 34-H ) :   0.9617 B( 21-C , 22-H ) :   0.8969 B( 21-C , 23-H ) :   0.8970 
B( 21-C , 24-C ) :   1.1050 B( 24-C , 25-H ) :   0.9291 B( 24-C , 26-H ) :   0.9291 
B( 24-C , 27-C ) :   1.0749 B( 27-C , 28-H ) :   0.9409 B( 27-C , 29-H ) :   0.9409 
B( 27-C , 30-C ) :   1.1061 B( 30-C , 31-H ) :   0.9662 B( 30-C , 32-H ) :   0.9662 
B( 30-C , 35-H ) :   0.9617 B( 33-C , 36-C ) :   0.9326 B( 36-C , 37-C ) :   1.4418 
B( 36-C , 41-C ) :   1.4385 B( 37-C , 38-C ) :   1.4704 B( 37-C , 44-H ) :   0.9401 
B( 38-C , 39-C ) :   1.4440 B( 38-C , 46-H ) :   0.9380 B( 39-C , 40-C ) :   1.4434 
B( 39-C , 42-H ) :   0.9433 B( 40-C , 41-C ) :   1.4706 B( 40-C , 43-H ) :   0.9380 
B( 41-C , 45-H ) :   0.9405 B( 47-C , 48-C ) :   1.6904 B( 47-C , 50-C ) :  -0.1349 
B( 48-C , 50-C ) :   0.8897 B( 49-C , 53-C ) :   0.8823 B( 49-C , 82-C ) :   1.7440 
B( 49-C , 85-C ) :  -0.1788 B( 50-C , 51-C ) :   1.4043 B( 50-C , 55-C ) :   1.3764 
B( 51-C , 52-C ) :   1.4402 B( 51-C , 58-C ) :   1.0958 B( 52-C , 53-C ) :   1.3760 
B( 52-C , 56-H ) :   0.9200 B( 53-C , 54-C ) :   1.3990 B( 54-C , 55-C ) :   1.4400 
B( 54-C , 70-C ) :   1.0941 B( 55-C , 57-H ) :   0.9210 B( 58-C , 59-H ) :   0.8963 
B( 58-C , 60-H ) :   0.8961 B( 58-C , 61-C ) :   1.1050 B( 61-C , 62-H ) :   0.9291 
B( 61-C , 63-H ) :   0.9291 B( 61-C , 64-C ) :   1.0747 B( 64-C , 65-H ) :   0.9410 
B( 64-C , 66-H ) :   0.9410 B( 64-C , 67-C ) :   1.1061 B( 67-C , 68-H ) :   0.9662 
B( 67-C , 69-H ) :   0.9662 B( 67-C , 83-H ) :   0.9617 B( 70-C , 71-H ) :   0.8969 
B( 70-C , 72-H ) :   0.8969 B( 70-C , 73-C ) :   1.1050 B( 73-C , 74-H ) :   0.9291 
B( 73-C , 75-H ) :   0.9291 B( 73-C , 76-C ) :   1.0749 B( 76-C , 77-H ) :   0.9409 
B( 76-C , 78-H ) :   0.9409 B( 76-C , 79-C ) :   1.1061 B( 79-C , 80-H ) :   0.9662 
B( 79-C , 81-H ) :   0.9662 B( 79-C , 84-H ) :   0.9617 B( 82-C , 85-C ) :   0.9326 
B( 85-C , 86-C ) :   1.4418 B( 85-C , 90-C ) :   1.4385 B( 86-C , 87-C ) :   1.4704 
B( 86-C , 93-H ) :   0.9401 B( 87-C , 88-C ) :   1.4440 B( 87-C , 95-H ) :   0.9380 
B( 88-C , 89-C ) :   1.4434 B( 88-C , 91-H ) :   0.9433 B( 89-C , 90-C ) :   1.4706 
B( 89-C , 92-H ) :   0.9380 B( 90-C , 94-H ) :   0.9405 

-------
TIMINGS
-------

Total SCF time: 0 days 0 hours 2 min 34 sec 

Total time                  ....     154.187 sec
Sum of individual times     ....     147.462 sec  ( 95.6%)

Fock matrix formation       ....     133.308 sec  ( 86.5%)
  Split-RI-J                ....      10.974 sec  (  8.2% of F)
  Chain of spheres X        ....     103.198 sec  ( 77.4% of F)
  XC integration            ....      16.516 sec  ( 12.4% of F)
    Basis function eval.    ....       1.930 sec  ( 11.7% of XC)
    Density eval.           ....       1.259 sec  (  7.6% of XC)
    XC-Functional eval.     ....       0.287 sec  (  1.7% of XC)
    XC-Potential eval.      ....       0.702 sec  (  4.3% of XC)
Diagonalization             ....       0.287 sec  (  0.2%)
Density matrix formation    ....       0.172 sec  (  0.1%)
Population analysis         ....       0.394 sec  (  0.3%)
Initial guess               ....       0.428 sec  (  0.3%)
Orbital Transformation      ....       0.000 sec  (  0.0%)
Orbital Orthonormalization  ....       0.359 sec  (  0.2%)
DIIS solution               ....       0.092 sec  (  0.1%)
SOSCF solution              ....       1.874 sec  (  1.2%)
Grid generation             ....      10.907 sec  (  7.1%)

Maximum memory used throughout the entire SCF-calculation: 274.3 MB

-------------------------   --------------------
FINAL SINGLE POINT ENERGY     -1781.802879480746
-------------------------   --------------------

                                *** OPTIMIZATION RUN DONE ***

                            ***************************************
                            *     ORCA property calculations      *
                            ***************************************

                                    ---------------------
                                    Active property flags
                                    ---------------------
   (+) Dipole Moment


------------------------------------------------------------------------------
                       ORCA ELECTRIC PROPERTIES CALCULATION
------------------------------------------------------------------------------

Dipole Moment Calculation                       ... on
Quadrupole Moment Calculation                   ... off
Polarizability Calculation                      ... off
GBWName                                         ... opt.gbw
Electron density                                ... opt.scfp
The origin for moment calculation is the CENTER OF MASS  = (-1.291237,  0.013441  0.003322)

-------------
DIPOLE MOMENT
-------------
                                X             Y             Z
Electronic contribution:      0.00003       0.00031      -0.00832
Nuclear contribution   :     -0.00002      -0.00033       0.00809
                        -----------------------------------------
Total Dipole Moment    :      0.00000      -0.00003      -0.00023
                        -----------------------------------------
Magnitude (a.u.)       :      0.00023
Magnitude (Debye)      :      0.00058



--------------------
Rotational spectrum 
--------------------
 
Rotational constants in cm-1:     0.003050     0.000701     0.000571 
Rotational constants in MHz :    91.435861    21.005645    17.110567 

 Dipole components along the rotational axes: 
x,y,z [a.u.] :     0.000003    -0.000025    -0.000228 
x,y,z [Debye]:     0.000008    -0.000062    -0.000581 

 

Timings for individual modules:

Sum of individual times         ...     1231.363 sec (=  20.523 min)
GTO integral calculation        ...       20.095 sec (=   0.335 min)   1.6 %
SCF iterations                  ...      978.253 sec (=  16.304 min)  79.4 %
SCF Gradient evaluation         ...      230.753 sec (=   3.846 min)  18.7 %
Geometry relaxation             ...        2.262 sec (=   0.038 min)   0.2 %
                             ****ORCA TERMINATED NORMALLY****
TOTAL RUN TIME: 0 days 0 hours 20 minutes 47 seconds 528 msec
