 Entering Gaussian System, Link 0=g09
 Input=g09BDE.com
 Output=g09BDE.log
 Initial command:
 /hits/basement/its/doserbd/software/gaussian/g09d1/g09/l1.exe "/hits/basement/mbm/sucerquia/gaussian_scratch/Gau-2215915.inp" -scrdir="/hits/basement/mbm/sucerquia/gaussian_scratch/"
 Entering Link 1 = /hits/basement/its/doserbd/software/gaussian/g09d1/g09/l1.exe PID=   2215916.
  
 Copyright (c) 1988,1990,1992,1993,1995,1998,2003,2009,2013,
            Gaussian, Inc.  All Rights Reserved.
  
 This is part of the Gaussian(R) 09 program.  It is based on
 the Gaussian(R) 03 system (copyright 2003, Gaussian, Inc.),
 the Gaussian(R) 98 system (copyright 1998, Gaussian, Inc.),
 the Gaussian(R) 94 system (copyright 1995, Gaussian, Inc.),
 the Gaussian 92(TM) system (copyright 1992, Gaussian, Inc.),
 the Gaussian 90(TM) system (copyright 1990, Gaussian, Inc.),
 the Gaussian 88(TM) system (copyright 1988, Gaussian, Inc.),
 the Gaussian 86(TM) system (copyright 1986, Carnegie Mellon
 University), and the Gaussian 82(TM) system (copyright 1983,
 Carnegie Mellon University). Gaussian is a federally registered
 trademark of Gaussian, Inc.
  
 This software contains proprietary and confidential information,
 including trade secrets, belonging to Gaussian, Inc.
  
 This software is provided under written license and may be
 used, copied, transmitted, or stored only in accord with that
 written license.
  
 The following legend is applicable only to US Government
 contracts under FAR:
  
                    RESTRICTED RIGHTS LEGEND
  
 Use, reproduction and disclosure by the US Government is
 subject to restrictions as set forth in subparagraphs (a)
 and (c) of the Commercial Computer Software - Restricted
 Rights clause in FAR 52.227-19.
  
 Gaussian, Inc.
 340 Quinnipiac St., Bldg. 40, Wallingford CT 06492
  
  
 ---------------------------------------------------------------
 Warning -- This program may not be used in any manner that
 competes with the business of Gaussian, Inc. or will provide
 assistance to any competitor of Gaussian, Inc.  The licensee
 of this program is prohibited from giving any competitor of
 Gaussian, Inc. access to this program.  By using this program,
 the user acknowledges that Gaussian, Inc. is engaged in the
 business of creating and licensing software in the field of
 computational chemistry and represents and warrants to the
 licensee that it is not a competitor of Gaussian, Inc. and that
 it will not use this program in any manner prohibited above.
 ---------------------------------------------------------------
  

 Cite this work as:
 Gaussian 09, Revision D.01,
 M. J. Frisch, G. W. Trucks, H. B. Schlegel, G. E. Scuseria, 
 M. A. Robb, J. R. Cheeseman, G. Scalmani, V. Barone, B. Mennucci, 
 G. A. Petersson, H. Nakatsuji, M. Caricato, X. Li, H. P. Hratchian, 
 A. F. Izmaylov, J. Bloino, G. Zheng, J. L. Sonnenberg, M. Hada, 
 M. Ehara, K. Toyota, R. Fukuda, J. Hasegawa, M. Ishida, T. Nakajima, 
 Y. Honda, O. Kitao, H. Nakai, T. Vreven, J. A. Montgomery, Jr., 
 J. E. Peralta, F. Ogliaro, M. Bearpark, J. J. Heyd, E. Brothers, 
 K. N. Kudin, V. N. Staroverov, T. Keith, R. Kobayashi, J. Normand, 
 K. Raghavachari, A. Rendell, J. C. Burant, S. S. Iyengar, J. Tomasi, 
 M. Cossi, N. Rega, J. M. Millam, M. Klene, J. E. Knox, J. B. Cross, 
 V. Bakken, C. Adamo, J. Jaramillo, R. Gomperts, R. E. Stratmann, 
 O. Yazyev, A. J. Austin, R. Cammi, C. Pomelli, J. W. Ochterski, 
 R. L. Martin, K. Morokuma, V. G. Zakrzewski, G. A. Voth, 
 P. Salvador, J. J. Dannenberg, S. Dapprich, A. D. Daniels, 
 O. Farkas, J. B. Foresman, J. V. Ortiz, J. Cioslowski, 
 and D. J. Fox, Gaussian, Inc., Wallingford CT, 2013.
 
 ******************************************
 Gaussian 09:  ES64L-G09RevD.01 24-Apr-2013
                10-May-2024 
 ******************************************
 %chk=g09BDE
 %NProcShared=8
 Will use up to    8 processors via shared memory.
 ---------------------------------------
 #P bmk/6-31+g opt(modredun,calcfc) freq
 ---------------------------------------
 1/10=4,14=-1,18=120,19=15,26=3,38=1/1,3;
 2/9=110,12=2,17=6,18=5,40=1/2;
 3/5=1,6=6,7=10,11=2,16=1,25=1,30=1,71=2,74=-34,140=1/1,2,3;
 4//1;
 5/5=2,38=5/2;
 8/6=4,10=90,11=11/1;
 11/6=1,8=1,9=11,15=111,16=1/1,2,10;
 10/6=1,13=1/2;
 6/7=2,8=2,9=2,10=2,28=1/1;
 7/10=1,18=20,25=1/1,2,3,16;
 1/10=4,14=-1,18=20,19=15,26=3/3(2);
 2/9=110/2;
 99//99;
 2/9=110/2;
 3/5=1,6=6,7=10,11=2,16=1,25=1,30=1,71=1,74=-34/1,2,3;
 4/5=5,16=3,69=1/1;
 5/5=2,38=5/2;
 7//1,2,3,16;
 1/14=-1,18=20,19=15,26=3/3(-5);
 2/9=110/2;
 6/7=2,8=2,9=2,10=2,19=2,28=1/1;
 99/9=1/99;
 Leave Link    1 at Fri May 10 15:44:16 2024, MaxMem=           0 cpu:         0.6
 (Enter /hits/basement/its/doserbd/software/gaussian/g09d1/g09/l101.exe)
 ------------------------------
 Gaussian input prepared by ASE
 ------------------------------
 Symbolic Z-matrix:
 Charge =  0 Multiplicity = 1
 C                     2.80622  -0.00885  -0.00052 
 C                     2.11685   1.23207   0.00502 
 C                     0.71657   1.18928   0.00474 
 C                     0.01827  -0.0196   -0.00071 
 C                     0.68984  -1.25325  -0.00607 
 C                     2.08654  -1.22432  -0.00588 
 H                     0.14897   2.12097   0.00887 
 H                     2.6601   -2.15154  -0.00989 
 C                     2.90214   2.52954   0.01102 
 H                     3.57954   2.52849  -0.86309 
 H                     3.57929   2.52048   0.88528 
 C                     2.09262   3.82911   0.01683 
 H                     1.42959   3.8633   -0.86747 
 H                     1.42899   3.8551    0.90096 
 C                     2.98223   5.07824   0.02292 
 H                     3.64816   5.04594   0.90526 
 H                     3.64863   5.05414  -0.85933 
 C                     2.1867    6.38607   0.0288 
 H                     1.53668   6.45549   0.9182 
 H                     1.53769   6.46412  -0.86062 
 C                    -0.11611  -2.54226  -0.01179 
 H                    -0.78987  -2.53316   0.86567 
 H                    -0.78793  -2.52667  -0.89067 
 C                     0.67384  -3.85368  -0.01573 
 H                     1.3381   -3.88635  -0.899 
 H                     1.33611  -3.89275   0.86878 
 C                    -0.22874  -5.09316  -0.02126 
 H                    -0.89578  -5.06208   0.86043 
 H                    -0.89344  -5.05594  -0.90447 
 C                     0.55431  -6.40859  -0.02482 
 H                     1.20165  -6.49158   0.86533 
 H                     1.20452  -6.48504  -0.91346 
 H                     2.85236   7.26453   0.03345 
 H                    -0.11979  -7.28056  -0.02912 
 C                     4.23523  -0.04951  -0.00068 
 C                     5.45739  -0.09047   0.00186 
 C                     6.8864   -0.13119   0.00171 
 C                     7.5757   -1.37214  -0.00523 
 C                     8.97599  -1.32942  -0.00468 
 C                     9.67434  -0.12059   0.00245 
 C                     9.00283   1.11309   0.00942 
 C                     7.60613   1.08424   0.00885 
 H                     9.54354  -2.26113  -0.0099 
 H                     7.03261   2.01147   0.01397 
 C                     6.79035  -2.66956  -0.01299 
 H                     6.11419  -2.65993  -0.88802 
 H                     6.11196  -2.66901   0.86034 
 C                     7.59981  -3.96918  -0.01869 
 H                     8.26442  -3.99471  -0.90208 
 H                     8.26184  -4.00389   0.86634 
 C                     6.71013  -5.21825  -0.0266 
 H                     6.04222  -5.19437   0.85452 
 H                     6.04571  -5.18564  -0.91007 
 C                     7.50558  -6.52613  -0.03156 
 H                     8.15285  -6.60466   0.85909 
 H                     8.15733  -6.59515  -0.91972 
 C                     9.80885   2.40205   0.01751 
 H                     10.47839   2.38622   0.89813 
 H                     10.48488   2.39308  -0.8582 
 C                     9.01898   3.71352   0.01974 
 H                     8.35885   3.7527   -0.86636 
 H                     8.35261   3.74617   0.90141 
 C                     9.92164   4.95293   0.0277 
 H                     10.58414   4.9155    0.91255 
 H                     10.59086   4.92198  -0.85233 
 C                     9.13868   6.26842   0.02958 
 H                     8.48604   6.3446    0.91646 
 H                     8.49379   6.3518   -0.86231 
 H                     6.83987  -7.40454  -0.03794 
 H                     9.81283   7.14034   0.03605 
 H                     10.76851  -0.1362    0.00263 
 H                    -1.0759   -0.00404  -0.00072 
 
 The following ModRedundant input section has been read:
 
 NAtoms=     72 NQM=       72 NQMF=       0 NMMI=      0 NMMIF=      0
                NMic=       0 NMicF=      0.
                    Isotopes and Nuclear Properties:
 (Nuclear quadrupole moments (NQMom) in fm**2, nuclear magnetic moments (NMagM)
  in nuclear magnetons)

  Atom         1           2           3           4           5           6           7           8           9          10
 IAtWgt=          12          12          12          12          12          12           1           1          12           1
 AtmWgt=  12.0000000  12.0000000  12.0000000  12.0000000  12.0000000  12.0000000   1.0078250   1.0078250  12.0000000   1.0078250
 NucSpn=           0           0           0           0           0           0           1           1           0           1
 AtZEff=   0.0000000   0.0000000   0.0000000   0.0000000   0.0000000   0.0000000   0.0000000   0.0000000   0.0000000   0.0000000
 NQMom=    0.0000000   0.0000000   0.0000000   0.0000000   0.0000000   0.0000000   0.0000000   0.0000000   0.0000000   0.0000000
 NMagM=    0.0000000   0.0000000   0.0000000   0.0000000   0.0000000   0.0000000   2.7928460   2.7928460   0.0000000   2.7928460
 AtZNuc=   6.0000000   6.0000000   6.0000000   6.0000000   6.0000000   6.0000000   1.0000000   1.0000000   6.0000000   1.0000000

  Atom        11          12          13          14          15          16          17          18          19          20
 IAtWgt=           1          12           1           1          12           1           1          12           1           1
 AtmWgt=   1.0078250  12.0000000   1.0078250   1.0078250  12.0000000   1.0078250   1.0078250  12.0000000   1.0078250   1.0078250
 NucSpn=           1           0           1           1           0           1           1           0           1           1
 AtZEff=   0.0000000   0.0000000   0.0000000   0.0000000   0.0000000   0.0000000   0.0000000   0.0000000   0.0000000   0.0000000
 NQMom=    0.0000000   0.0000000   0.0000000   0.0000000   0.0000000   0.0000000   0.0000000   0.0000000   0.0000000   0.0000000
 NMagM=    2.7928460   0.0000000   2.7928460   2.7928460   0.0000000   2.7928460   2.7928460   0.0000000   2.7928460   2.7928460
 AtZNuc=   1.0000000   6.0000000   1.0000000   1.0000000   6.0000000   1.0000000   1.0000000   6.0000000   1.0000000   1.0000000

  Atom        21          22          23          24          25          26          27          28          29          30
 IAtWgt=          12           1           1          12           1           1          12           1           1          12
 AtmWgt=  12.0000000   1.0078250   1.0078250  12.0000000   1.0078250   1.0078250  12.0000000   1.0078250   1.0078250  12.0000000
 NucSpn=           0           1           1           0           1           1           0           1           1           0
 AtZEff=   0.0000000   0.0000000   0.0000000   0.0000000   0.0000000   0.0000000   0.0000000   0.0000000   0.0000000   0.0000000
 NQMom=    0.0000000   0.0000000   0.0000000   0.0000000   0.0000000   0.0000000   0.0000000   0.0000000   0.0000000   0.0000000
 NMagM=    0.0000000   2.7928460   2.7928460   0.0000000   2.7928460   2.7928460   0.0000000   2.7928460   2.7928460   0.0000000
 AtZNuc=   6.0000000   1.0000000   1.0000000   6.0000000   1.0000000   1.0000000   6.0000000   1.0000000   1.0000000   6.0000000

  Atom        31          32          33          34          35          36          37          38          39          40
 IAtWgt=           1           1           1           1          12          12          12          12          12          12
 AtmWgt=   1.0078250   1.0078250   1.0078250   1.0078250  12.0000000  12.0000000  12.0000000  12.0000000  12.0000000  12.0000000
 NucSpn=           1           1           1           1           0           0           0           0           0           0
 AtZEff=   0.0000000   0.0000000   0.0000000   0.0000000   0.0000000   0.0000000   0.0000000   0.0000000   0.0000000   0.0000000
 NQMom=    0.0000000   0.0000000   0.0000000   0.0000000   0.0000000   0.0000000   0.0000000   0.0000000   0.0000000   0.0000000
 NMagM=    2.7928460   2.7928460   2.7928460   2.7928460   0.0000000   0.0000000   0.0000000   0.0000000   0.0000000   0.0000000
 AtZNuc=   1.0000000   1.0000000   1.0000000   1.0000000   6.0000000   6.0000000   6.0000000   6.0000000   6.0000000   6.0000000

  Atom        41          42          43          44          45          46          47          48          49          50
 IAtWgt=          12          12           1           1          12           1           1          12           1           1
 AtmWgt=  12.0000000  12.0000000   1.0078250   1.0078250  12.0000000   1.0078250   1.0078250  12.0000000   1.0078250   1.0078250
 NucSpn=           0           0           1           1           0           1           1           0           1           1
 AtZEff=   0.0000000   0.0000000   0.0000000   0.0000000   0.0000000   0.0000000   0.0000000   0.0000000   0.0000000   0.0000000
 NQMom=    0.0000000   0.0000000   0.0000000   0.0000000   0.0000000   0.0000000   0.0000000   0.0000000   0.0000000   0.0000000
 NMagM=    0.0000000   0.0000000   2.7928460   2.7928460   0.0000000   2.7928460   2.7928460   0.0000000   2.7928460   2.7928460
 AtZNuc=   6.0000000   6.0000000   1.0000000   1.0000000   6.0000000   1.0000000   1.0000000   6.0000000   1.0000000   1.0000000

  Atom        51          52          53          54          55          56          57          58          59          60
 IAtWgt=          12           1           1          12           1           1          12           1           1          12
 AtmWgt=  12.0000000   1.0078250   1.0078250  12.0000000   1.0078250   1.0078250  12.0000000   1.0078250   1.0078250  12.0000000
 NucSpn=           0           1           1           0           1           1           0           1           1           0
 AtZEff=   0.0000000   0.0000000   0.0000000   0.0000000   0.0000000   0.0000000   0.0000000   0.0000000   0.0000000   0.0000000
 NQMom=    0.0000000   0.0000000   0.0000000   0.0000000   0.0000000   0.0000000   0.0000000   0.0000000   0.0000000   0.0000000
 NMagM=    0.0000000   2.7928460   2.7928460   0.0000000   2.7928460   2.7928460   0.0000000   2.7928460   2.7928460   0.0000000
 AtZNuc=   6.0000000   1.0000000   1.0000000   6.0000000   1.0000000   1.0000000   6.0000000   1.0000000   1.0000000   6.0000000

  Atom        61          62          63          64          65          66          67          68          69          70
 IAtWgt=           1           1          12           1           1          12           1           1           1           1
 AtmWgt=   1.0078250   1.0078250  12.0000000   1.0078250   1.0078250  12.0000000   1.0078250   1.0078250   1.0078250   1.0078250
 NucSpn=           1           1           0           1           1           0           1           1           1           1
 AtZEff=   0.0000000   0.0000000   0.0000000   0.0000000   0.0000000   0.0000000   0.0000000   0.0000000   0.0000000   0.0000000
 NQMom=    0.0000000   0.0000000   0.0000000   0.0000000   0.0000000   0.0000000   0.0000000   0.0000000   0.0000000   0.0000000
 NMagM=    2.7928460   2.7928460   0.0000000   2.7928460   2.7928460   0.0000000   2.7928460   2.7928460   2.7928460   2.7928460
 AtZNuc=   1.0000000   1.0000000   6.0000000   1.0000000   1.0000000   6.0000000   1.0000000   1.0000000   1.0000000   1.0000000

  Atom        71          72
 IAtWgt=           1           1
 AtmWgt=   1.0078250   1.0078250
 NucSpn=           1           1
 AtZEff=   0.0000000   0.0000000
 NQMom=    0.0000000   0.0000000
 NMagM=    2.7928460   2.7928460
 AtZNuc=   1.0000000   1.0000000
 Leave Link  101 at Fri May 10 15:44:16 2024, MaxMem=    33554432 cpu:         0.6
 (Enter /hits/basement/its/doserbd/software/gaussian/g09d1/g09/l103.exe)

 GradGradGradGradGradGradGradGradGradGradGradGradGradGradGradGradGradGrad
 Berny optimization.
 Initialization pass.
                           ----------------------------
                           !    Initial Parameters    !
                           ! (Angstroms and Degrees)  !
 --------------------------                            --------------------------
 ! Name  Definition              Value          Derivative Info.                !
 --------------------------------------------------------------------------------
 ! R1    R(1,2)                  1.4196         calculate D2E/DX2 analytically  !
 ! R2    R(1,6)                  1.4126         calculate D2E/DX2 analytically  !
 ! R3    R(1,35)                 1.4296         calculate D2E/DX2 analytically  !
 ! R4    R(2,3)                  1.4009         calculate D2E/DX2 analytically  !
 ! R5    R(2,9)                  1.5166         calculate D2E/DX2 analytically  !
 ! R6    R(3,4)                  1.3961         calculate D2E/DX2 analytically  !
 ! R7    R(3,7)                  1.091          calculate D2E/DX2 analytically  !
 ! R8    R(4,5)                  1.4046         calculate D2E/DX2 analytically  !
 ! R9    R(4,72)                 1.0943         calculate D2E/DX2 analytically  !
 ! R10   R(5,6)                  1.397          calculate D2E/DX2 analytically  !
 ! R11   R(5,21)                 1.5202         calculate D2E/DX2 analytically  !
 ! R12   R(6,8)                  1.0903         calculate D2E/DX2 analytically  !
 ! R13   R(9,10)                 1.1059         calculate D2E/DX2 analytically  !
 ! R14   R(9,11)                 1.1059         calculate D2E/DX2 analytically  !
 ! R15   R(9,12)                 1.5311         calculate D2E/DX2 analytically  !
 ! R16   R(12,13)                1.1058         calculate D2E/DX2 analytically  !
 ! R17   R(12,14)                1.1058         calculate D2E/DX2 analytically  !
 ! R18   R(12,15)                1.5335         calculate D2E/DX2 analytically  !
 ! R19   R(15,16)                1.1059         calculate D2E/DX2 analytically  !
 ! R20   R(15,17)                1.1059         calculate D2E/DX2 analytically  !
 ! R21   R(15,18)                1.5308         calculate D2E/DX2 analytically  !
 ! R22   R(18,19)                1.1038         calculate D2E/DX2 analytically  !
 ! R23   R(18,20)                1.1038         calculate D2E/DX2 analytically  !
 ! R24   R(18,33)                1.1022         calculate D2E/DX2 analytically  !
 ! R25   R(21,22)                1.1063         calculate D2E/DX2 analytically  !
 ! R26   R(21,23)                1.1063         calculate D2E/DX2 analytically  !
 ! R27   R(21,24)                1.531          calculate D2E/DX2 analytically  !
 ! R28   R(24,25)                1.1057         calculate D2E/DX2 analytically  !
 ! R29   R(24,26)                1.1057         calculate D2E/DX2 analytically  !
 ! R30   R(24,27)                1.5333         calculate D2E/DX2 analytically  !
 ! R31   R(27,28)                1.106          calculate D2E/DX2 analytically  !
 ! R32   R(27,29)                1.106          calculate D2E/DX2 analytically  !
 ! R33   R(27,30)                1.5309         calculate D2E/DX2 analytically  !
 ! R34   R(30,31)                1.1038         calculate D2E/DX2 analytically  !
 ! R35   R(30,32)                1.1038         calculate D2E/DX2 analytically  !
 ! R36   R(30,34)                1.1022         calculate D2E/DX2 analytically  !
 ! R37   R(35,36)                1.2228         calculate D2E/DX2 analytically  !
 ! R38   R(36,37)                1.4296         calculate D2E/DX2 analytically  !
 ! R39   R(37,38)                1.4196         calculate D2E/DX2 analytically  !
 ! R40   R(37,42)                1.4126         calculate D2E/DX2 analytically  !
 ! R41   R(38,39)                1.4009         calculate D2E/DX2 analytically  !
 ! R42   R(38,45)                1.5166         calculate D2E/DX2 analytically  !
 ! R43   R(39,40)                1.3961         calculate D2E/DX2 analytically  !
 ! R44   R(39,43)                1.091          calculate D2E/DX2 analytically  !
 ! R45   R(40,41)                1.4046         calculate D2E/DX2 analytically  !
 ! R46   R(40,71)                1.0943         calculate D2E/DX2 analytically  !
 ! R47   R(41,42)                1.397          calculate D2E/DX2 analytically  !
 ! R48   R(41,57)                1.5202         calculate D2E/DX2 analytically  !
 ! R49   R(42,44)                1.0903         calculate D2E/DX2 analytically  !
 ! R50   R(45,46)                1.1059         calculate D2E/DX2 analytically  !
 ! R51   R(45,47)                1.1059         calculate D2E/DX2 analytically  !
 ! R52   R(45,48)                1.5311         calculate D2E/DX2 analytically  !
 ! R53   R(48,49)                1.1058         calculate D2E/DX2 analytically  !
 ! R54   R(48,50)                1.1058         calculate D2E/DX2 analytically  !
 ! R55   R(48,51)                1.5335         calculate D2E/DX2 analytically  !
 ! R56   R(51,52)                1.1059         calculate D2E/DX2 analytically  !
 ! R57   R(51,53)                1.1059         calculate D2E/DX2 analytically  !
 ! R58   R(51,54)                1.5308         calculate D2E/DX2 analytically  !
 ! R59   R(54,55)                1.1038         calculate D2E/DX2 analytically  !
 ! R60   R(54,56)                1.1038         calculate D2E/DX2 analytically  !
 ! R61   R(54,69)                1.1022         calculate D2E/DX2 analytically  !
 ! R62   R(57,58)                1.1064         calculate D2E/DX2 analytically  !
 ! R63   R(57,59)                1.1063         calculate D2E/DX2 analytically  !
 ! R64   R(57,60)                1.531          calculate D2E/DX2 analytically  !
 ! R65   R(60,61)                1.1057         calculate D2E/DX2 analytically  !
 ! R66   R(60,62)                1.1056         calculate D2E/DX2 analytically  !
 ! R67   R(60,63)                1.5333         calculate D2E/DX2 analytically  !
 ! R68   R(63,64)                1.106          calculate D2E/DX2 analytically  !
 ! R69   R(63,65)                1.106          calculate D2E/DX2 analytically  !
 ! R70   R(63,66)                1.5309         calculate D2E/DX2 analytically  !
 ! R71   R(66,67)                1.1038         calculate D2E/DX2 analytically  !
 ! R72   R(66,68)                1.1038         calculate D2E/DX2 analytically  !
 ! R73   R(66,70)                1.1022         calculate D2E/DX2 analytically  !
 ! A1    A(2,1,6)              120.3177         calculate D2E/DX2 analytically  !
 ! A2    A(2,1,35)             120.6831         calculate D2E/DX2 analytically  !
 ! A3    A(6,1,35)             118.9992         calculate D2E/DX2 analytically  !
 ! A4    A(1,2,3)              117.3027         calculate D2E/DX2 analytically  !
 ! A5    A(1,2,9)              119.7626         calculate D2E/DX2 analytically  !
 ! A6    A(3,2,9)              122.9347         calculate D2E/DX2 analytically  !
 ! A7    A(2,3,4)              121.7627         calculate D2E/DX2 analytically  !
 ! A8    A(2,3,7)              119.5998         calculate D2E/DX2 analytically  !
 ! A9    A(4,3,7)              118.6374         calculate D2E/DX2 analytically  !
 ! A10   A(3,4,5)              121.4252         calculate D2E/DX2 analytically  !
 ! A11   A(3,4,72)             119.1976         calculate D2E/DX2 analytically  !
 ! A12   A(5,4,72)             119.3771         calculate D2E/DX2 analytically  !
 ! A13   A(4,5,6)              117.376          calculate D2E/DX2 analytically  !
 ! A14   A(4,5,21)             119.4224         calculate D2E/DX2 analytically  !
 ! A15   A(6,5,21)             123.2016         calculate D2E/DX2 analytically  !
 ! A16   A(1,6,5)              121.8157         calculate D2E/DX2 analytically  !
 ! A17   A(1,6,8)              117.6308         calculate D2E/DX2 analytically  !
 ! A18   A(5,6,8)              120.5536         calculate D2E/DX2 analytically  !
 ! A19   A(2,9,10)             108.2541         calculate D2E/DX2 analytically  !
 ! A20   A(2,9,11)             108.2511         calculate D2E/DX2 analytically  !
 ! A21   A(2,9,12)             116.8965         calculate D2E/DX2 analytically  !
 ! A22   A(10,9,11)            104.4658         calculate D2E/DX2 analytically  !
 ! A23   A(10,9,12)            109.1275         calculate D2E/DX2 analytically  !
 ! A24   A(11,9,12)            109.1293         calculate D2E/DX2 analytically  !
 ! A25   A(9,12,13)            109.8906         calculate D2E/DX2 analytically  !
 ! A26   A(9,12,14)            109.8944         calculate D2E/DX2 analytically  !
 ! A27   A(9,12,15)            112.623          calculate D2E/DX2 analytically  !
 ! A28   A(13,12,14)           106.1908         calculate D2E/DX2 analytically  !
 ! A29   A(13,12,15)           109.0152         calculate D2E/DX2 analytically  !
 ! A30   A(14,12,15)           109.0159         calculate D2E/DX2 analytically  !
 ! A31   A(12,15,16)           109.1895         calculate D2E/DX2 analytically  !
 ! A32   A(12,15,17)           109.1866         calculate D2E/DX2 analytically  !
 ! A33   A(12,15,18)           113.2312         calculate D2E/DX2 analytically  !
 ! A34   A(16,15,17)           105.8431         calculate D2E/DX2 analytically  !
 ! A35   A(16,15,18)           109.5611         calculate D2E/DX2 analytically  !
 ! A36   A(17,15,18)           109.5624         calculate D2E/DX2 analytically  !
 ! A37   A(15,18,19)           111.2767         calculate D2E/DX2 analytically  !
 ! A38   A(15,18,20)           111.2767         calculate D2E/DX2 analytically  !
 ! A39   A(15,18,33)           111.5361         calculate D2E/DX2 analytically  !
 ! A40   A(19,18,20)           107.3711         calculate D2E/DX2 analytically  !
 ! A41   A(19,18,33)           107.586          calculate D2E/DX2 analytically  !
 ! A42   A(20,18,33)           107.5865         calculate D2E/DX2 analytically  !
 ! A43   A(5,21,22)            108.2338         calculate D2E/DX2 analytically  !
 ! A44   A(5,21,23)            108.2376         calculate D2E/DX2 analytically  !
 ! A45   A(5,21,24)            116.9217         calculate D2E/DX2 analytically  !
 ! A46   A(22,21,23)           105.0776         calculate D2E/DX2 analytically  !
 ! A47   A(22,21,24)           108.8642         calculate D2E/DX2 analytically  !
 ! A48   A(23,21,24)           108.8661         calculate D2E/DX2 analytically  !
 ! A49   A(21,24,25)           109.7161         calculate D2E/DX2 analytically  !
 ! A50   A(21,24,26)           109.7109         calculate D2E/DX2 analytically  !
 ! A51   A(21,24,27)           112.875          calculate D2E/DX2 analytically  !
 ! A52   A(25,24,26)           106.1516         calculate D2E/DX2 analytically  !
 ! A53   A(25,24,27)           109.0798         calculate D2E/DX2 analytically  !
 ! A54   A(26,24,27)           109.0817         calculate D2E/DX2 analytically  !
 ! A55   A(24,27,28)           109.2345         calculate D2E/DX2 analytically  !
 ! A56   A(24,27,29)           109.2356         calculate D2E/DX2 analytically  !
 ! A57   A(24,27,30)           113.1736         calculate D2E/DX2 analytically  !
 ! A58   A(28,27,29)           105.8535         calculate D2E/DX2 analytically  !
 ! A59   A(28,27,30)           109.5415         calculate D2E/DX2 analytically  !
 ! A60   A(29,27,30)           109.5401         calculate D2E/DX2 analytically  !
 ! A61   A(27,30,31)           111.2676         calculate D2E/DX2 analytically  !
 ! A62   A(27,30,32)           111.267          calculate D2E/DX2 analytically  !
 ! A63   A(27,30,34)           111.5287         calculate D2E/DX2 analytically  !
 ! A64   A(31,30,32)           107.373          calculate D2E/DX2 analytically  !
 ! A65   A(31,30,34)           107.5995         calculate D2E/DX2 analytically  !
 ! A66   A(32,30,34)           107.5991         calculate D2E/DX2 analytically  !
 ! A67   A(36,37,38)           120.6826         calculate D2E/DX2 analytically  !
 ! A68   A(36,37,42)           118.9997         calculate D2E/DX2 analytically  !
 ! A69   A(38,37,42)           120.3177         calculate D2E/DX2 analytically  !
 ! A70   A(37,38,39)           117.3027         calculate D2E/DX2 analytically  !
 ! A71   A(37,38,45)           119.7626         calculate D2E/DX2 analytically  !
 ! A72   A(39,38,45)           122.9347         calculate D2E/DX2 analytically  !
 ! A73   A(38,39,40)           121.7628         calculate D2E/DX2 analytically  !
 ! A74   A(38,39,43)           119.5998         calculate D2E/DX2 analytically  !
 ! A75   A(40,39,43)           118.6374         calculate D2E/DX2 analytically  !
 ! A76   A(39,40,41)           121.4253         calculate D2E/DX2 analytically  !
 ! A77   A(39,40,71)           119.1976         calculate D2E/DX2 analytically  !
 ! A78   A(41,40,71)           119.3771         calculate D2E/DX2 analytically  !
 ! A79   A(40,41,42)           117.376          calculate D2E/DX2 analytically  !
 ! A80   A(40,41,57)           119.4222         calculate D2E/DX2 analytically  !
 ! A81   A(42,41,57)           123.2018         calculate D2E/DX2 analytically  !
 ! A82   A(37,42,41)           121.8156         calculate D2E/DX2 analytically  !
 ! A83   A(37,42,44)           117.6308         calculate D2E/DX2 analytically  !
 ! A84   A(41,42,44)           120.5536         calculate D2E/DX2 analytically  !
 ! A85   A(38,45,46)           108.253          calculate D2E/DX2 analytically  !
 ! A86   A(38,45,47)           108.2521         calculate D2E/DX2 analytically  !
 ! A87   A(38,45,48)           116.8966         calculate D2E/DX2 analytically  !
 ! A88   A(46,45,47)           104.4658         calculate D2E/DX2 analytically  !
 ! A89   A(46,45,48)           109.129          calculate D2E/DX2 analytically  !
 ! A90   A(47,45,48)           109.1278         calculate D2E/DX2 analytically  !
 ! A91   A(45,48,49)           109.8967         calculate D2E/DX2 analytically  !
 ! A92   A(45,48,50)           109.8882         calculate D2E/DX2 analytically  !
 ! A93   A(45,48,51)           112.6228         calculate D2E/DX2 analytically  !
 ! A94   A(49,48,50)           106.1908         calculate D2E/DX2 analytically  !
 ! A95   A(49,48,51)           109.0115         calculate D2E/DX2 analytically  !
 ! A96   A(50,48,51)           109.0197         calculate D2E/DX2 analytically  !
 ! A97   A(48,51,52)           109.1889         calculate D2E/DX2 analytically  !
 ! A98   A(48,51,53)           109.187          calculate D2E/DX2 analytically  !
 ! A99   A(48,51,54)           113.2314         calculate D2E/DX2 analytically  !
 ! A100  A(52,51,53)           105.8432         calculate D2E/DX2 analytically  !
 ! A101  A(52,51,54)           109.5636         calculate D2E/DX2 analytically  !
 ! A102  A(53,51,54)           109.5599         calculate D2E/DX2 analytically  !
 ! A103  A(51,54,55)           111.2779         calculate D2E/DX2 analytically  !
 ! A104  A(51,54,56)           111.2755         calculate D2E/DX2 analytically  !
 ! A105  A(51,54,69)           111.5361         calculate D2E/DX2 analytically  !
 ! A106  A(55,54,56)           107.3711         calculate D2E/DX2 analytically  !
 ! A107  A(55,54,69)           107.5867         calculate D2E/DX2 analytically  !
 ! A108  A(56,54,69)           107.5859         calculate D2E/DX2 analytically  !
 ! A109  A(41,57,58)           108.2379         calculate D2E/DX2 analytically  !
 ! A110  A(41,57,59)           108.2334         calculate D2E/DX2 analytically  !
 ! A111  A(41,57,60)           116.9219         calculate D2E/DX2 analytically  !
 ! A112  A(58,57,59)           105.0777         calculate D2E/DX2 analytically  !
 ! A113  A(58,57,60)           108.8642         calculate D2E/DX2 analytically  !
 ! A114  A(59,57,60)           108.8661         calculate D2E/DX2 analytically  !
 ! A115  A(57,60,61)           109.7077         calculate D2E/DX2 analytically  !
 ! A116  A(57,60,62)           109.7192         calculate D2E/DX2 analytically  !
 ! A117  A(57,60,63)           112.8748         calculate D2E/DX2 analytically  !
 ! A118  A(61,60,62)           106.1516         calculate D2E/DX2 analytically  !
 ! A119  A(61,60,63)           109.0868         calculate D2E/DX2 analytically  !
 ! A120  A(62,60,63)           109.0749         calculate D2E/DX2 analytically  !
 ! A121  A(60,63,64)           109.2339         calculate D2E/DX2 analytically  !
 ! A122  A(60,63,65)           109.2359         calculate D2E/DX2 analytically  !
 ! A123  A(60,63,66)           113.1738         calculate D2E/DX2 analytically  !
 ! A124  A(64,63,65)           105.8536         calculate D2E/DX2 analytically  !
 ! A125  A(64,63,66)           109.5398         calculate D2E/DX2 analytically  !
 ! A126  A(65,63,66)           109.5419         calculate D2E/DX2 analytically  !
 ! A127  A(63,66,67)           111.2661         calculate D2E/DX2 analytically  !
 ! A128  A(63,66,68)           111.2684         calculate D2E/DX2 analytically  !
 ! A129  A(63,66,70)           111.5287         calculate D2E/DX2 analytically  !
 ! A130  A(67,66,68)           107.373          calculate D2E/DX2 analytically  !
 ! A131  A(67,66,70)           107.5993         calculate D2E/DX2 analytically  !
 ! A132  A(68,66,70)           107.5993         calculate D2E/DX2 analytically  !
 ! A133  L(1,35,36,10,-1)      180.3144         calculate D2E/DX2 analytically  !
 ! A134  L(35,36,37,16,-1)     179.7392         calculate D2E/DX2 analytically  !
 ! A135  L(1,35,36,10,-2)      179.9725         calculate D2E/DX2 analytically  !
 ! A136  L(35,36,37,16,-2)     180.1855         calculate D2E/DX2 analytically  !
 ! D1    D(6,1,2,3)             -0.0071         calculate D2E/DX2 analytically  !
 ! D2    D(6,1,2,9)            179.9875         calculate D2E/DX2 analytically  !
 ! D3    D(35,1,2,3)           179.9968         calculate D2E/DX2 analytically  !
 ! D4    D(35,1,2,9)            -0.0087         calculate D2E/DX2 analytically  !
 ! D5    D(2,1,6,5)              0.0065         calculate D2E/DX2 analytically  !
 ! D6    D(2,1,6,8)           -179.9927         calculate D2E/DX2 analytically  !
 ! D7    D(35,1,6,5)          -179.9973         calculate D2E/DX2 analytically  !
 ! D8    D(35,1,6,8)             0.0036         calculate D2E/DX2 analytically  !
 ! D9    D(2,1,37,38)         -179.9341         calculate D2E/DX2 analytically  !
 ! D10   D(2,1,37,42)            0.0348         calculate D2E/DX2 analytically  !
 ! D11   D(6,1,37,38)            0.1136         calculate D2E/DX2 analytically  !
 ! D12   D(6,1,37,42)         -179.9176         calculate D2E/DX2 analytically  !
 ! D13   D(1,2,3,4)              0.0013         calculate D2E/DX2 analytically  !
 ! D14   D(1,2,3,7)           -179.999          calculate D2E/DX2 analytically  !
 ! D15   D(9,2,3,4)           -179.993          calculate D2E/DX2 analytically  !
 ! D16   D(9,2,3,7)              0.0067         calculate D2E/DX2 analytically  !
 ! D17   D(1,2,9,10)            56.3459         calculate D2E/DX2 analytically  !
 ! D18   D(1,2,9,11)           -56.3439         calculate D2E/DX2 analytically  !
 ! D19   D(1,2,9,12)          -179.999          calculate D2E/DX2 analytically  !
 ! D20   D(3,2,9,10)          -123.6599         calculate D2E/DX2 analytically  !
 ! D21   D(3,2,9,11)           123.6503         calculate D2E/DX2 analytically  !
 ! D22   D(3,2,9,12)            -0.0048         calculate D2E/DX2 analytically  !
 ! D23   D(2,3,4,5)              0.0054         calculate D2E/DX2 analytically  !
 ! D24   D(2,3,4,72)          -179.9992         calculate D2E/DX2 analytically  !
 ! D25   D(7,3,4,5)           -179.9944         calculate D2E/DX2 analytically  !
 ! D26   D(7,3,4,72)             0.001          calculate D2E/DX2 analytically  !
 ! D27   D(3,4,5,6)             -0.006          calculate D2E/DX2 analytically  !
 ! D28   D(3,4,5,21)           179.9956         calculate D2E/DX2 analytically  !
 ! D29   D(72,4,5,6)           179.9986         calculate D2E/DX2 analytically  !
 ! D30   D(72,4,5,21)            0.0002         calculate D2E/DX2 analytically  !
 ! D31   D(4,5,6,1)              0.0001         calculate D2E/DX2 analytically  !
 ! D32   D(4,5,6,8)            179.9993         calculate D2E/DX2 analytically  !
 ! D33   D(21,5,6,1)           179.9984         calculate D2E/DX2 analytically  !
 ! D34   D(21,5,6,8)            -0.0024         calculate D2E/DX2 analytically  !
 ! D35   D(4,5,21,22)          -56.6218         calculate D2E/DX2 analytically  !
 ! D36   D(4,5,21,23)           56.7638         calculate D2E/DX2 analytically  !
 ! D37   D(4,5,21,24)         -179.9262         calculate D2E/DX2 analytically  !
 ! D38   D(6,5,21,22)          123.3799         calculate D2E/DX2 analytically  !
 ! D39   D(6,5,21,23)         -123.2345         calculate D2E/DX2 analytically  !
 ! D40   D(6,5,21,24)            0.0755         calculate D2E/DX2 analytically  !
 ! D41   D(2,9,12,13)          -58.2659         calculate D2E/DX2 analytically  !
 ! D42   D(2,9,12,14)           58.2392         calculate D2E/DX2 analytically  !
 ! D43   D(2,9,12,15)          179.9884         calculate D2E/DX2 analytically  !
 ! D44   D(10,9,12,13)          64.9416         calculate D2E/DX2 analytically  !
 ! D45   D(10,9,12,14)        -178.5532         calculate D2E/DX2 analytically  !
 ! D46   D(10,9,12,15)         -56.804          calculate D2E/DX2 analytically  !
 ! D47   D(11,9,12,13)         178.529          calculate D2E/DX2 analytically  !
 ! D48   D(11,9,12,14)         -64.9658         calculate D2E/DX2 analytically  !
 ! D49   D(11,9,12,15)          56.7834         calculate D2E/DX2 analytically  !
 ! D50   D(9,12,15,16)         -57.6424         calculate D2E/DX2 analytically  !
 ! D51   D(9,12,15,17)          57.6458         calculate D2E/DX2 analytically  !
 ! D52   D(9,12,15,18)        -179.9985         calculate D2E/DX2 analytically  !
 ! D53   D(13,12,15,16)       -179.883          calculate D2E/DX2 analytically  !
 ! D54   D(13,12,15,17)        -64.5947         calculate D2E/DX2 analytically  !
 ! D55   D(13,12,15,18)         57.7609         calculate D2E/DX2 analytically  !
 ! D56   D(14,12,15,16)         64.6034         calculate D2E/DX2 analytically  !
 ! D57   D(14,12,15,17)        179.8917         calculate D2E/DX2 analytically  !
 ! D58   D(14,12,15,18)        -57.7526         calculate D2E/DX2 analytically  !
 ! D59   D(12,15,18,19)         59.8311         calculate D2E/DX2 analytically  !
 ! D60   D(12,15,18,20)        -59.8702         calculate D2E/DX2 analytically  !
 ! D61   D(12,15,18,33)        179.9801         calculate D2E/DX2 analytically  !
 ! D62   D(16,15,18,19)        -62.3179         calculate D2E/DX2 analytically  !
 ! D63   D(16,15,18,20)        177.9809         calculate D2E/DX2 analytically  !
 ! D64   D(16,15,18,33)         57.8311         calculate D2E/DX2 analytically  !
 ! D65   D(17,15,18,19)       -178.0226         calculate D2E/DX2 analytically  !
 ! D66   D(17,15,18,20)         62.2761         calculate D2E/DX2 analytically  !
 ! D67   D(17,15,18,33)        -57.8736         calculate D2E/DX2 analytically  !
 ! D68   D(5,21,24,25)         -58.1292         calculate D2E/DX2 analytically  !
 ! D69   D(5,21,24,26)          58.1207         calculate D2E/DX2 analytically  !
 ! D70   D(5,21,24,27)         179.9952         calculate D2E/DX2 analytically  !
 ! D71   D(22,21,24,25)        178.8904         calculate D2E/DX2 analytically  !
 ! D72   D(22,21,24,26)        -64.8597         calculate D2E/DX2 analytically  !
 ! D73   D(22,21,24,27)         57.0148         calculate D2E/DX2 analytically  !
 ! D74   D(23,21,24,25)         64.8579         calculate D2E/DX2 analytically  !
 ! D75   D(23,21,24,26)       -178.8922         calculate D2E/DX2 analytically  !
 ! D76   D(23,21,24,27)        -57.0178         calculate D2E/DX2 analytically  !
 ! D77   D(21,24,27,28)        -57.6595         calculate D2E/DX2 analytically  !
 ! D78   D(21,24,27,29)         57.6928         calculate D2E/DX2 analytically  !
 ! D79   D(21,24,27,30)       -179.9838         calculate D2E/DX2 analytically  !
 ! D80   D(25,24,27,28)       -179.893          calculate D2E/DX2 analytically  !
 ! D81   D(25,24,27,29)        -64.5406         calculate D2E/DX2 analytically  !
 ! D82   D(25,24,27,30)         57.7827         calculate D2E/DX2 analytically  !
 ! D83   D(26,24,27,28)         64.5687         calculate D2E/DX2 analytically  !
 ! D84   D(26,24,27,29)        179.9211         calculate D2E/DX2 analytically  !
 ! D85   D(26,24,27,30)        -57.7556         calculate D2E/DX2 analytically  !
 ! D86   D(24,27,30,31)         59.8651         calculate D2E/DX2 analytically  !
 ! D87   D(24,27,30,32)        -59.826          calculate D2E/DX2 analytically  !
 ! D88   D(24,27,30,34)       -179.98           calculate D2E/DX2 analytically  !
 ! D89   D(28,27,30,31)        -62.2878         calculate D2E/DX2 analytically  !
 ! D90   D(28,27,30,32)        178.0211         calculate D2E/DX2 analytically  !
 ! D91   D(28,27,30,34)         57.867          calculate D2E/DX2 analytically  !
 ! D92   D(29,27,30,31)       -177.9814         calculate D2E/DX2 analytically  !
 ! D93   D(29,27,30,32)         62.3275         calculate D2E/DX2 analytically  !
 ! D94   D(29,27,30,34)        -57.8266         calculate D2E/DX2 analytically  !
 ! D95   D(36,37,38,39)       -179.9895         calculate D2E/DX2 analytically  !
 ! D96   D(36,37,38,45)          0.0183         calculate D2E/DX2 analytically  !
 ! D97   D(42,37,38,39)         -0.0016         calculate D2E/DX2 analytically  !
 ! D98   D(42,37,38,45)       -179.9939         calculate D2E/DX2 analytically  !
 ! D99   D(36,37,42,41)        179.9847         calculate D2E/DX2 analytically  !
 ! D100  D(36,37,42,44)         -0.0148         calculate D2E/DX2 analytically  !
 ! D101  D(38,37,42,41)         -0.0033         calculate D2E/DX2 analytically  !
 ! D102  D(38,37,42,44)        179.9972         calculate D2E/DX2 analytically  !
 ! D103  D(37,38,39,40)          0.0034         calculate D2E/DX2 analytically  !
 ! D104  D(37,38,39,43)       -179.9984         calculate D2E/DX2 analytically  !
 ! D105  D(45,38,39,40)        179.9954         calculate D2E/DX2 analytically  !
 ! D106  D(45,38,39,43)         -0.0065         calculate D2E/DX2 analytically  !
 ! D107  D(37,38,45,46)         56.4084         calculate D2E/DX2 analytically  !
 ! D108  D(37,38,45,47)        -56.2814         calculate D2E/DX2 analytically  !
 ! D109  D(37,38,45,48)       -179.9353         calculate D2E/DX2 analytically  !
 ! D110  D(39,38,45,46)       -123.5834         calculate D2E/DX2 analytically  !
 ! D111  D(39,38,45,47)        123.7269         calculate D2E/DX2 analytically  !
 ! D112  D(39,38,45,48)          0.0729         calculate D2E/DX2 analytically  !
 ! D113  D(38,39,40,41)         -0.0004         calculate D2E/DX2 analytically  !
 ! D114  D(38,39,40,71)        179.998          calculate D2E/DX2 analytically  !
 ! D115  D(43,39,40,41)       -179.9985         calculate D2E/DX2 analytically  !
 ! D116  D(43,39,40,71)         -0.0002         calculate D2E/DX2 analytically  !
 ! D117  D(39,40,41,42)         -0.0045         calculate D2E/DX2 analytically  !
 ! D118  D(39,40,41,57)        179.9794         calculate D2E/DX2 analytically  !
 ! D119  D(71,40,41,42)        179.9972         calculate D2E/DX2 analytically  !
 ! D120  D(71,40,41,57)         -0.019          calculate D2E/DX2 analytically  !
 ! D121  D(40,41,42,37)          0.0062         calculate D2E/DX2 analytically  !
 ! D122  D(40,41,42,44)       -179.9943         calculate D2E/DX2 analytically  !
 ! D123  D(57,41,42,37)       -179.9769         calculate D2E/DX2 analytically  !
 ! D124  D(57,41,42,44)          0.0226         calculate D2E/DX2 analytically  !
 ! D125  D(40,41,57,58)        -56.9078         calculate D2E/DX2 analytically  !
 ! D126  D(40,41,57,59)         56.4779         calculate D2E/DX2 analytically  !
 ! D127  D(40,41,57,60)        179.7845         calculate D2E/DX2 analytically  !
 ! D128  D(42,41,57,58)        123.0751         calculate D2E/DX2 analytically  !
 ! D129  D(42,41,57,59)       -123.5393         calculate D2E/DX2 analytically  !
 ! D130  D(42,41,57,60)         -0.2327         calculate D2E/DX2 analytically  !
 ! D131  D(38,45,48,49)        -58.2441         calculate D2E/DX2 analytically  !
 ! D132  D(38,45,48,50)         58.2611         calculate D2E/DX2 analytically  !
 ! D133  D(38,45,48,51)       -179.9893         calculate D2E/DX2 analytically  !
 ! D134  D(46,45,48,49)         64.9633         calculate D2E/DX2 analytically  !
 ! D135  D(46,45,48,50)       -178.5315         calculate D2E/DX2 analytically  !
 ! D136  D(46,45,48,51)        -56.7819         calculate D2E/DX2 analytically  !
 ! D137  D(47,45,48,49)        178.5507         calculate D2E/DX2 analytically  !
 ! D138  D(47,45,48,50)        -64.9441         calculate D2E/DX2 analytically  !
 ! D139  D(47,45,48,51)         56.8055         calculate D2E/DX2 analytically  !
 ! D140  D(45,48,51,52)        -57.6084         calculate D2E/DX2 analytically  !
 ! D141  D(45,48,51,53)         57.6797         calculate D2E/DX2 analytically  !
 ! D142  D(45,48,51,54)       -179.9674         calculate D2E/DX2 analytically  !
 ! D143  D(49,48,51,52)       -179.8541         calculate D2E/DX2 analytically  !
 ! D144  D(49,48,51,53)        -64.5659         calculate D2E/DX2 analytically  !
 ! D145  D(49,48,51,54)         57.787          calculate D2E/DX2 analytically  !
 ! D146  D(50,48,51,52)         64.6322         calculate D2E/DX2 analytically  !
 ! D147  D(50,48,51,53)        179.9204         calculate D2E/DX2 analytically  !
 ! D148  D(50,48,51,54)        -57.7267         calculate D2E/DX2 analytically  !
 ! D149  D(48,51,54,55)         59.8908         calculate D2E/DX2 analytically  !
 ! D150  D(48,51,54,56)        -59.8104         calculate D2E/DX2 analytically  !
 ! D151  D(48,51,54,69)       -179.9585         calculate D2E/DX2 analytically  !
 ! D152  D(52,51,54,55)        -62.2593         calculate D2E/DX2 analytically  !
 ! D153  D(52,51,54,56)        178.0394         calculate D2E/DX2 analytically  !
 ! D154  D(52,51,54,69)         57.8914         calculate D2E/DX2 analytically  !
 ! D155  D(53,51,54,55)       -177.9642         calculate D2E/DX2 analytically  !
 ! D156  D(53,51,54,56)         62.3346         calculate D2E/DX2 analytically  !
 ! D157  D(53,51,54,69)        -57.8134         calculate D2E/DX2 analytically  !
 ! D158  D(41,57,60,61)        -58.1093         calculate D2E/DX2 analytically  !
 ! D159  D(41,57,60,62)         58.1407         calculate D2E/DX2 analytically  !
 ! D160  D(41,57,60,63)       -179.9878         calculate D2E/DX2 analytically  !
 ! D161  D(58,57,60,61)        178.9048         calculate D2E/DX2 analytically  !
 ! D162  D(58,57,60,62)        -64.8453         calculate D2E/DX2 analytically  !
 ! D163  D(58,57,60,63)         57.0262         calculate D2E/DX2 analytically  !
 ! D164  D(59,57,60,61)         64.8722         calculate D2E/DX2 analytically  !
 ! D165  D(59,57,60,62)       -178.8779         calculate D2E/DX2 analytically  !
 ! D166  D(59,57,60,63)        -57.0064         calculate D2E/DX2 analytically  !
 ! D167  D(57,60,63,64)        -57.6942         calculate D2E/DX2 analytically  !
 ! D168  D(57,60,63,65)         57.6581         calculate D2E/DX2 analytically  !
 ! D169  D(57,60,63,66)        179.984          calculate D2E/DX2 analytically  !
 ! D170  D(61,60,63,64)       -179.9219         calculate D2E/DX2 analytically  !
 ! D171  D(61,60,63,65)        -64.5696         calculate D2E/DX2 analytically  !
 ! D172  D(61,60,63,66)         57.7563         calculate D2E/DX2 analytically  !
 ! D173  D(62,60,63,64)         64.5397         calculate D2E/DX2 analytically  !
 ! D174  D(62,60,63,65)        179.892          calculate D2E/DX2 analytically  !
 ! D175  D(62,60,63,66)        -57.7821         calculate D2E/DX2 analytically  !
 ! D176  D(60,63,66,67)         59.806          calculate D2E/DX2 analytically  !
 ! D177  D(60,63,66,68)        -59.885          calculate D2E/DX2 analytically  !
 ! D178  D(60,63,66,70)        179.9598         calculate D2E/DX2 analytically  !
 ! D179  D(64,63,66,67)        -62.3451         calculate D2E/DX2 analytically  !
 ! D180  D(64,63,66,68)        177.9639         calculate D2E/DX2 analytically  !
 ! D181  D(64,63,66,70)         57.8087         calculate D2E/DX2 analytically  !
 ! D182  D(65,63,66,67)       -178.0388         calculate D2E/DX2 analytically  !
 ! D183  D(65,63,66,68)         62.2701         calculate D2E/DX2 analytically  !
 ! D184  D(65,63,66,70)        -57.8851         calculate D2E/DX2 analytically  !
 --------------------------------------------------------------------------------
 Trust Radius=3.00D-01 FncErr=1.00D-07 GrdErr=1.00D-06
 Number of steps in this run=    403 maximum allowed number of steps=    432.
 GradGradGradGradGradGradGradGradGradGradGradGradGradGradGradGradGradGrad

 Leave Link  103 at Fri May 10 15:44:16 2024, MaxMem=    33554432 cpu:         0.1
 (Enter /hits/basement/its/doserbd/software/gaussian/g09d1/g09/l202.exe)
 Stoichiometry    C30H42
 Framework group  C1[X(C30H42)]
 Deg. of freedom   210
 Full point group                 C1      NOp   1
 Largest Abelian subgroup         C1      NOp   1
 Largest concise Abelian subgroup C1      NOp   1
                         Standard orientation:                         
 ---------------------------------------------------------------------
 Center     Atomic      Atomic             Coordinates (Angstroms)
 Number     Number       Type             X           Y           Z
 ---------------------------------------------------------------------
      1          6           0        1.240181    1.621014    0.001029
      2          6           0        0.712766    2.938959    0.001072
      3          6           0        1.629776    3.998068    0.000831
      4          6           0        3.008188    3.776682    0.000532
      5          6           0        3.541199    2.477130    0.000345
      6          6           0        2.637202    1.412043    0.000601
      7          1           0        1.265364    5.026386    0.000873
      8          1           0        2.994382    0.381927    0.000461
      9          6           0       -0.789269    3.148781    0.001245
     10          1           0       -1.212748    2.620305    0.875501
     11          1           0       -1.212904    2.620235   -0.872889
     12          6           0       -1.286337    4.596950    0.001260
     13          1           0       -0.891071    5.130372    0.885561
     14          1           0       -0.890928    5.130511   -0.882890
     15          6           0       -2.816721    4.695348    0.001154
     16          1           0       -3.215281    4.160856   -0.881176
     17          1           0       -3.215351    4.160835    0.883436
     18          6           0       -3.329030    6.137866    0.001131
     19          1           0       -2.975916    6.688309   -0.888084
     20          1           0       -2.976612    6.688091    0.890757
     21          6           0        5.049714    2.288660   -0.000081
     22          1           0        5.464637    2.819415   -0.877651
     23          1           0        5.464929    2.817187    0.878704
     24          6           0        5.568314    0.848207   -0.002027
     25          1           0        5.177695    0.309942    0.881235
     26          1           0        5.177311    0.312289   -0.886551
     27          6           0        7.099401    0.765961   -0.002436
     28          1           0        7.493028    1.305377   -0.884119
     29          1           0        7.493372    1.302602    0.880786
     30          6           0        7.625468   -0.671675   -0.004777
     31          1           0        7.277940   -1.223719   -0.895152
     32          1           0        7.277690   -1.226696    0.883647
     33          1           0       -4.430559    6.176019    0.000699
     34          1           0        8.727284   -0.699179   -0.004664
     35          6           0        0.369770    0.486943    0.001333
     36          6           0       -0.369861   -0.486861   -0.001114
     37          6           0       -1.240226   -1.620967   -0.000827
     38          6           0       -0.712746   -2.938886    0.000533
     39          6           0       -1.629705   -3.998039    0.000502
     40          6           0       -3.008127   -3.776722   -0.000878
     41          6           0       -3.541200   -2.477196   -0.002298
     42          6           0       -2.637256   -1.412064   -0.002179
     43          1           0       -1.265243   -5.026340    0.001550
     44          1           0       -2.994487   -0.381966   -0.003147
     45          6           0        0.789298   -3.148635    0.002116
     46          1           0        1.211861   -2.620498    0.877026
     47          1           0        1.213794   -2.619709   -0.871363
     48          6           0        1.286440   -4.596779    0.001990
     49          1           0        0.890057   -5.130817    0.885412
     50          1           0        0.892205   -5.129765   -0.883038
     51          6           0        2.816828   -4.695094    0.003922
     52          1           0        3.216587   -4.159557   -0.877227
     53          1           0        3.214195   -4.161582    0.887383
     54          6           0        3.329220   -6.137583    0.003018
     55          1           0        2.978272   -6.686766   -0.887831
     56          1           0        2.974702   -6.689105    0.891005
     57          6           0       -5.049724   -2.288807   -0.004246
     58          1           0       -5.463328   -2.815715   -0.884776
     59          1           0       -5.466191   -2.821223    0.871571
     60          6           0       -5.568414   -0.848390   -0.000596
     61          1           0       -5.178840   -0.314059    0.885524
     62          1           0       -5.176433   -0.308496   -0.882253
     63          6           0       -7.099505   -0.766236   -0.002615
     64          1           0       -7.491924   -1.301307   -0.887480
     65          1           0       -7.494606   -1.307267    0.877416
     66          6           0       -7.625669    0.671361    0.001407
     67          1           0       -7.276135    1.228080   -0.885263
     68          1           0       -7.279973    1.221743    0.893523
     69          1           0        4.430750   -6.175673    0.005188
     70          1           0       -8.727484    0.698798   -0.000872
     71          1           0       -3.686625   -4.635261   -0.000879
     72          1           0        3.686729    4.635188    0.000364
 ---------------------------------------------------------------------
 Rotational constants (GHZ):      0.1213560      0.0802050      0.0485231
 Leave Link  202 at Fri May 10 15:44:17 2024, MaxMem=    33554432 cpu:         0.1
 (Enter /hits/basement/its/doserbd/software/gaussian/g09d1/g09/l301.exe)
 Standard basis: 6-31+G (6D, 7F)
 Ernie: Thresh=  0.10000D-02 Tol=  0.10000D-05 Strict=F.
 There are   474 symmetry adapted cartesian basis functions of A   symmetry.
 There are   474 symmetry adapted basis functions of A   symmetry.
   474 basis functions,   948 primitive gaussians,   474 cartesian basis functions
   111 alpha electrons      111 beta electrons
       nuclear repulsion energy      2644.6616740491 Hartrees.
 IExCor= 3226 DFT=T Ex+Corr=BMK ExCW=0 ScaHFX=  0.420000
 ScaDFX=  1.000000  1.000000  1.000000  1.000000 ScalE2=  1.000000  1.000000
 IRadAn=      0 IRanWt=     -1 IRanGd=            0 ICorTp=0 IEmpDi=  4
 NAtoms=   72 NActive=   72 NUniq=   72 SFac= 1.00D+00 NAtFMM=   60 NAOKFM=T Big=T
 Integral buffers will be    131072 words long.
 Raffenetti 2 integral format.
 Two-electron integral symmetry is turned on.
 Leave Link  301 at Fri May 10 15:44:17 2024, MaxMem=    33554432 cpu:         0.3
 (Enter /hits/basement/its/doserbd/software/gaussian/g09d1/g09/l302.exe)
 NPDir=0 NMtPBC=     1 NCelOv=     1 NCel=       1 NClECP=     1 NCelD=      1
         NCelK=      1 NCelE2=     1 NClLst=     1 CellRange=     0.0.
 One-electron integrals computed using PRISM.
 NBasis=   474 RedAO= T EigKep=  1.68D-06  NBF=   474
 NBsUse=   460 1.00D-06 EigRej=  8.84D-07 NBFU=   460
 Precomputing XC quadrature grid using
 IXCGrd= 4 IRadAn=           0 IRanWt=          -1 IRanGd=           0 AccXCQ= 0.00D+00.
 Generated NRdTot=       0 NPtTot=           0 NUsed=           0 NTot=          32
 NSgBfM=   457   457   457   459   459 MxSgAt=    72 MxSgA2=    72.
 Leave Link  302 at Fri May 10 15:44:18 2024, MaxMem=    33554432 cpu:         5.9
 (Enter /hits/basement/its/doserbd/software/gaussian/g09d1/g09/l303.exe)
 DipDrv:  MaxL=1.
 Leave Link  303 at Fri May 10 15:44:18 2024, MaxMem=    33554432 cpu:         0.5
 (Enter /hits/basement/its/doserbd/software/gaussian/g09d1/g09/l401.exe)
 ExpMin= 4.38D-02 ExpMax= 3.05D+03 ExpMxC= 4.57D+02 IAcc=2 IRadAn=         4 AccDes= 0.00D+00
 Harris functional with IExCor= 1009 and IRadAn=       4 diagonalized for initial guess.
 HarFok:  IExCor= 1009 AccDes= 0.00D+00 IRadAn=         4 IDoV= 1 UseB2=F ITyADJ=14
 ICtDFT=  3500011 ScaDFX=  1.000000  1.000000  1.000000  1.000000
 FoFCou: FMM=F IPFlag=           0 FMFlag=      100000 FMFlg1=        2001
         NFxFlg=           0 DoJE=T BraDBF=F KetDBF=T FulRan=T
         wScrn=  0.000000 ICntrl=     500 IOpCl=  0 I1Cent=   200000004 NGrid=           0
         NMat0=    1 NMatS0=      1 NMatT0=    0 NMatD0=    1 NMtDS0=    0 NMtDT0=    0
 Petite list used in FoFCou.
 Harris En= -1167.25845750763    
 JPrj=0 DoOrth=F DoCkMO=F.
 Leave Link  401 at Fri May 10 15:44:21 2024, MaxMem=    33554432 cpu:        19.9
 (Enter /hits/basement/its/doserbd/software/gaussian/g09d1/g09/l502.exe)
 Closed shell SCF:
 Using DIIS extrapolation, IDIIS=  1040.
 Integral symmetry usage will be decided dynamically.
 IVT=      700036 IEndB=      700036 NGot=    33554432 MDV=    33096187
 LenX=    33096187 LenY=    32871037
 Requested convergence on RMS density matrix=1.00D-08 within 128 cycles.
 Requested convergence on MAX density matrix=1.00D-06.
 Requested convergence on             energy=1.00D-06.
 No special actions if energy rises.
 Fock matrices will be formed incrementally for  20 cycles.

 Cycle   1  Pass 1  IDiag  1:
 FoFJK:  IHMeth= 1 ICntrl=       0 DoSepK=F KAlg= 0 I1Cent=   0 FoldK=F
 IRaf= 870000000 NMat=   1 IRICut=       1 DoRegI=T DoRafI=F ISym2E= 0.
 FoFCou: FMM=T IPFlag=           0 FMFlag=      100000 FMFlg1=        2001
         NFxFlg=           0 DoJE=F BraDBF=F KetDBF=F FulRan=T
         wScrn=  0.000000 ICntrl=       0 IOpCl=  0 I1Cent=           0 NGrid=           0
         NMat0=    1 NMatS0=      1 NMatT0=    0 NMatD0=    1 NMtDS0=    0 NMtDT0=    0
 Symmetry not used in FoFCou.
 FMM levels:  10  Number of levels for PrismC:   9
 E= -1166.65734287381    
 DIIS: error= 4.38D-02 at cycle   1 NSaved=   1.
 NSaved= 1 IEnMin= 1 EnMin= -1166.65734287381     IErMin= 1 ErrMin= 4.38D-02
 ErrMax= 4.38D-02  0.00D+00 EMaxC= 1.00D-01 BMatC= 6.26D-01 BMatP= 6.26D-01
 IDIUse=3 WtCom= 5.62D-01 WtEn= 4.38D-01
 Coeff-Com:  0.100D+01
 Coeff-En:   0.100D+01
 Coeff:      0.100D+01
 Gap=     0.212 Goal=   None    Shift=    0.000
 GapD=    0.212 DampG=1.000 DampE=0.500 DampFc=0.5000 IDamp=-1.
 Damping current iteration by 5.00D-01
 RMSDP=4.99D-02 MaxDP=3.08D+00              OVMax= 1.39D-01

 Cycle   2  Pass 1  IDiag  1:
 RMSU=  2.33D-02    CP:  1.16D+00
 E= -1167.04492622739     Delta-E=       -0.387583353574 Rises=F Damp=T
 DIIS: error= 6.01D-03 at cycle   2 NSaved=   2.
 NSaved= 2 IEnMin= 2 EnMin= -1167.04492622739     IErMin= 2 ErrMin= 6.01D-03
 ErrMax= 6.01D-03  0.00D+00 EMaxC= 1.00D-01 BMatC= 1.94D-02 BMatP= 6.26D-01
 IDIUse=3 WtCom= 9.40D-01 WtEn= 6.01D-02
 Coeff-Com: -0.718D-01 0.107D+01
 Coeff-En:   0.000D+00 0.100D+01
 Coeff:     -0.675D-01 0.107D+01
 Gap=     0.268 Goal=   None    Shift=    0.000
 RMSDP=1.45D-02 MaxDP=1.65D+00 DE=-3.88D-01 OVMax= 5.95D-02

 Cycle   3  Pass 1  IDiag  1:
 RMSU=  1.20D-02    CP:  1.07D+00  7.19D-01
 E= -1167.39661373632     Delta-E=       -0.351687508929 Rises=F Damp=F
 DIIS: error= 4.26D-03 at cycle   3 NSaved=   3.
 NSaved= 3 IEnMin= 3 EnMin= -1167.39661373632     IErMin= 3 ErrMin= 4.26D-03
 ErrMax= 4.26D-03  0.00D+00 EMaxC= 1.00D-01 BMatC= 2.96D-03 BMatP= 1.94D-02
 IDIUse=3 WtCom= 9.57D-01 WtEn= 4.26D-02
 Coeff-Com: -0.244D-01 0.254D+00 0.770D+00
 Coeff-En:   0.000D+00 0.000D+00 0.100D+01
 Coeff:     -0.233D-01 0.243D+00 0.780D+00
 Gap=     0.210 Goal=   None    Shift=    0.000
 RMSDP=2.93D-03 MaxDP=8.50D-02 DE=-3.52D-01 OVMax= 3.21D-02

 Cycle   4  Pass 1  IDiag  1:
 RMSU=  2.67D-03    CP:  1.06D+00  7.30D-01  9.14D-01
 E= -1167.39858572499     Delta-E=       -0.001971988667 Rises=F Damp=F
 DIIS: error= 3.54D-03 at cycle   4 NSaved=   4.
 NSaved= 4 IEnMin= 4 EnMin= -1167.39858572499     IErMin= 4 ErrMin= 3.54D-03
 ErrMax= 3.54D-03  0.00D+00 EMaxC= 1.00D-01 BMatC= 1.37D-03 BMatP= 2.96D-03
 IDIUse=3 WtCom= 9.65D-01 WtEn= 3.54D-02
 Coeff-Com: -0.840D-03 0.202D-01 0.403D+00 0.578D+00
 Coeff-En:   0.000D+00 0.000D+00 0.320D+00 0.680D+00
 Coeff:     -0.811D-03 0.195D-01 0.400D+00 0.582D+00
 Gap=     0.209 Goal=   None    Shift=    0.000
 RMSDP=1.40D-03 MaxDP=3.98D-02 DE=-1.97D-03 OVMax= 1.67D-02

 Cycle   5  Pass 1  IDiag  1:
 RMSU=  5.46D-04    CP:  1.07D+00  7.18D-01  9.38D-01  5.48D-01
 E= -1167.40023085839     Delta-E=       -0.001645133403 Rises=F Damp=F
 DIIS: error= 9.51D-04 at cycle   5 NSaved=   5.
 NSaved= 5 IEnMin= 5 EnMin= -1167.40023085839     IErMin= 5 ErrMin= 9.51D-04
 ErrMax= 9.51D-04  0.00D+00 EMaxC= 1.00D-01 BMatC= 1.26D-04 BMatP= 1.37D-03
 IDIUse=3 WtCom= 9.90D-01 WtEn= 9.51D-03
 Coeff-Com:  0.198D-02-0.687D-02 0.169D+00 0.322D+00 0.514D+00
 Coeff-En:   0.000D+00 0.000D+00 0.000D+00 0.000D+00 0.100D+01
 Coeff:      0.196D-02-0.680D-02 0.168D+00 0.319D+00 0.518D+00
 Gap=     0.208 Goal=   None    Shift=    0.000
 RMSDP=3.19D-04 MaxDP=1.81D-02 DE=-1.65D-03 OVMax= 3.59D-03

 Cycle   6  Pass 1  IDiag  1:
 RMSU=  2.30D-04    CP:  1.07D+00  7.10D-01  9.46D-01  5.72D-01  8.95D-01
 E= -1167.40037945311     Delta-E=       -0.000148594720 Rises=F Damp=F
 DIIS: error= 6.94D-05 at cycle   6 NSaved=   6.
 NSaved= 6 IEnMin= 6 EnMin= -1167.40037945311     IErMin= 6 ErrMin= 6.94D-05
 ErrMax= 6.94D-05  0.00D+00 EMaxC= 1.00D-01 BMatC= 2.20D-06 BMatP= 1.26D-04
 IDIUse=1 WtCom= 1.00D+00 WtEn= 0.00D+00
 Coeff-Com:  0.108D-02-0.416D-02 0.117D-01 0.416D-01 0.140D+00 0.810D+00
 Coeff:      0.108D-02-0.416D-02 0.117D-01 0.416D-01 0.140D+00 0.810D+00
 Gap=     0.208 Goal=   None    Shift=    0.000
 RMSDP=7.89D-05 MaxDP=3.76D-03 DE=-1.49D-04 OVMax= 4.27D-04

 Cycle   7  Pass 1  IDiag  1:
 RMSU=  4.09D-05    CP:  1.07D+00  7.08D-01  9.46D-01  5.81D-01  9.24D-01
                    CP:  1.06D+00
 E= -1167.40038178300     Delta-E=       -0.000002329892 Rises=F Damp=F
 DIIS: error= 3.10D-05 at cycle   7 NSaved=   7.
 NSaved= 7 IEnMin= 7 EnMin= -1167.40038178300     IErMin= 7 ErrMin= 3.10D-05
 ErrMax= 3.10D-05  0.00D+00 EMaxC= 1.00D-01 BMatC= 3.38D-07 BMatP= 2.20D-06
 IDIUse=1 WtCom= 1.00D+00 WtEn= 0.00D+00
 Coeff-Com:  0.416D-03-0.154D-02-0.594D-02-0.197D-02 0.308D-01 0.364D+00
 Coeff-Com:  0.614D+00
 Coeff:      0.416D-03-0.154D-02-0.594D-02-0.197D-02 0.308D-01 0.364D+00
 Coeff:      0.614D+00
 Gap=     0.208 Goal=   None    Shift=    0.000
 RMSDP=2.47D-05 MaxDP=1.68D-03 DE=-2.33D-06 OVMax= 1.55D-04

 Cycle   8  Pass 1  IDiag  1:
 RMSU=  1.19D-05    CP:  1.07D+00  7.07D-01  9.47D-01  5.83D-01  9.32D-01
                    CP:  1.09D+00  9.60D-01
 E= -1167.40038214779     Delta-E=       -0.000000364787 Rises=F Damp=F
 DIIS: error= 8.29D-06 at cycle   8 NSaved=   8.
 NSaved= 8 IEnMin= 8 EnMin= -1167.40038214779     IErMin= 8 ErrMin= 8.29D-06
 ErrMax= 8.29D-06  0.00D+00 EMaxC= 1.00D-01 BMatC= 1.83D-08 BMatP= 3.38D-07
 IDIUse=1 WtCom= 1.00D+00 WtEn= 0.00D+00
 Coeff-Com:  0.545D-04-0.185D-03-0.310D-02-0.464D-02-0.249D-02 0.437D-01
 Coeff-Com:  0.206D+00 0.761D+00
 Coeff:      0.545D-04-0.185D-03-0.310D-02-0.464D-02-0.249D-02 0.437D-01
 Coeff:      0.206D+00 0.761D+00
 Gap=     0.208 Goal=   None    Shift=    0.000
 RMSDP=7.94D-06 MaxDP=3.94D-04 DE=-3.65D-07 OVMax= 6.13D-05

 Cycle   9  Pass 1  IDiag  1:
 RMSU=  4.00D-06    CP:  1.07D+00  7.07D-01  9.47D-01  5.83D-01  9.36D-01
                    CP:  1.11D+00  1.04D+00  9.08D-01
 E= -1167.40038216765     Delta-E=       -0.000000019862 Rises=F Damp=F
 DIIS: error= 6.13D-06 at cycle   9 NSaved=   9.
 NSaved= 9 IEnMin= 9 EnMin= -1167.40038216765     IErMin= 9 ErrMin= 6.13D-06
 ErrMax= 6.13D-06  0.00D+00 EMaxC= 1.00D-01 BMatC= 5.09D-09 BMatP= 1.83D-08
 IDIUse=1 WtCom= 1.00D+00 WtEn= 0.00D+00
 Coeff-Com: -0.114D-04 0.505D-04-0.969D-03-0.214D-02-0.450D-02-0.155D-01
 Coeff-Com:  0.443D-01 0.412D+00 0.567D+00
 Coeff:     -0.114D-04 0.505D-04-0.969D-03-0.214D-02-0.450D-02-0.155D-01
 Coeff:      0.443D-01 0.412D+00 0.567D+00
 Gap=     0.208 Goal=   None    Shift=    0.000
 RMSDP=2.08D-06 MaxDP=5.70D-05 DE=-1.99D-08 OVMax= 2.76D-05

 Cycle  10  Pass 1  IDiag  1:
 RMSU=  1.36D-06    CP:  1.07D+00  7.07D-01  9.47D-01  5.83D-01  9.38D-01
                    CP:  1.11D+00  1.03D+00  9.59D-01  9.23D-01
 E= -1167.40038217390     Delta-E=       -0.000000006254 Rises=F Damp=F
 DIIS: error= 1.21D-06 at cycle  10 NSaved=  10.
 NSaved=10 IEnMin=10 EnMin= -1167.40038217390     IErMin=10 ErrMin= 1.21D-06
 ErrMax= 1.21D-06  0.00D+00 EMaxC= 1.00D-01 BMatC= 1.82D-10 BMatP= 5.09D-09
 IDIUse=1 WtCom= 1.00D+00 WtEn= 0.00D+00
 Coeff-Com: -0.712D-05 0.289D-04-0.272D-04-0.221D-03-0.126D-02-0.816D-02
 Coeff-Com: -0.497D-02 0.598D-01 0.187D+00 0.768D+00
 Coeff:     -0.712D-05 0.289D-04-0.272D-04-0.221D-03-0.126D-02-0.816D-02
 Coeff:     -0.497D-02 0.598D-01 0.187D+00 0.768D+00
 Gap=     0.208 Goal=   None    Shift=    0.000
 RMSDP=9.91D-07 MaxDP=6.46D-05 DE=-6.25D-09 OVMax= 6.95D-06

 Cycle  11  Pass 1  IDiag  1:
 RMSU=  3.81D-07    CP:  1.07D+00  7.07D-01  9.47D-01  5.83D-01  9.38D-01
                    CP:  1.11D+00  1.05D+00  9.66D-01  9.51D-01  8.92D-01
 E= -1167.40038217412     Delta-E=       -0.000000000217 Rises=F Damp=F
 DIIS: error= 3.82D-07 at cycle  11 NSaved=  11.
 NSaved=11 IEnMin=11 EnMin= -1167.40038217412     IErMin=11 ErrMin= 3.82D-07
 ErrMax= 3.82D-07  0.00D+00 EMaxC= 1.00D-01 BMatC= 2.96D-11 BMatP= 1.82D-10
 IDIUse=1 WtCom= 1.00D+00 WtEn= 0.00D+00
 Coeff-Com: -0.228D-05 0.912D-05 0.839D-04 0.109D-03-0.162D-03-0.232D-02
 Coeff-Com: -0.691D-02-0.141D-01 0.284D-01 0.349D+00 0.646D+00
 Coeff:     -0.228D-05 0.912D-05 0.839D-04 0.109D-03-0.162D-03-0.232D-02
 Coeff:     -0.691D-02-0.141D-01 0.284D-01 0.349D+00 0.646D+00
 Gap=     0.208 Goal=   None    Shift=    0.000
 RMSDP=2.47D-07 MaxDP=1.43D-05 DE=-2.17D-10 OVMax= 3.03D-06

 Cycle  12  Pass 1  IDiag  1:
 RMSU=  1.25D-07    CP:  1.07D+00  7.07D-01  9.47D-01  5.83D-01  9.38D-01
                    CP:  1.11D+00  1.05D+00  9.68D-01  9.70D-01  9.20D-01
                    CP:  9.79D-01
 E= -1167.40038217423     Delta-E=       -0.000000000113 Rises=F Damp=F
 DIIS: error= 1.05D-07 at cycle  12 NSaved=  12.
 NSaved=12 IEnMin=12 EnMin= -1167.40038217423     IErMin=12 ErrMin= 1.05D-07
 ErrMax= 1.05D-07  0.00D+00 EMaxC= 1.00D-01 BMatC= 1.14D-12 BMatP= 2.96D-11
 IDIUse=1 WtCom= 1.00D+00 WtEn= 0.00D+00
 Coeff-Com:  0.248D-06-0.926D-06 0.240D-04 0.508D-04 0.111D-03 0.364D-03
 Coeff-Com: -0.103D-02-0.971D-02-0.134D-01 0.773D-02 0.149D+00 0.867D+00
 Coeff:      0.248D-06-0.926D-06 0.240D-04 0.508D-04 0.111D-03 0.364D-03
 Coeff:     -0.103D-02-0.971D-02-0.134D-01 0.773D-02 0.149D+00 0.867D+00
 Gap=     0.208 Goal=   None    Shift=    0.000
 RMSDP=9.30D-08 MaxDP=4.72D-06 DE=-1.13D-10 OVMax= 1.00D-06

 Cycle  13  Pass 1  IDiag  1:
 RMSU=  4.75D-08    CP:  1.07D+00  7.07D-01  9.47D-01  5.83D-01  9.38D-01
                    CP:  1.11D+00  1.05D+00  9.69D-01  9.70D-01  9.36D-01
                    CP:  1.01D+00  1.02D+00
 E= -1167.40038217409     Delta-E=        0.000000000148 Rises=F Damp=F
 DIIS: error= 3.34D-08 at cycle  13 NSaved=  13.
 NSaved=13 IEnMin=12 EnMin= -1167.40038217423     IErMin=13 ErrMin= 3.34D-08
 ErrMax= 3.34D-08  0.00D+00 EMaxC= 1.00D-01 BMatC= 9.48D-14 BMatP= 1.14D-12
 IDIUse=1 WtCom= 1.00D+00 WtEn= 0.00D+00
 Coeff-Com:  0.147D-06-0.689D-06-0.112D-05 0.196D-05 0.328D-04 0.219D-03
 Coeff-Com:  0.247D-03-0.102D-02-0.502D-02-0.242D-01-0.203D-01 0.161D+00
 Coeff-Com:  0.889D+00
 Coeff:      0.147D-06-0.689D-06-0.112D-05 0.196D-05 0.328D-04 0.219D-03
 Coeff:      0.247D-03-0.102D-02-0.502D-02-0.242D-01-0.203D-01 0.161D+00
 Coeff:      0.889D+00
 Gap=     0.208 Goal=   None    Shift=    0.000
 RMSDP=5.47D-08 MaxDP=1.91D-06 DE= 1.48D-10 OVMax= 3.36D-07

 Cycle  14  Pass 1  IDiag  1:
 RMSU=  3.80D-08    CP:  1.07D+00  7.07D-01  9.47D-01  5.83D-01  9.38D-01
                    CP:  1.11D+00  1.05D+00  9.69D-01  9.71D-01  9.39D-01
                    CP:  1.03D+00  1.20D+00  1.23D+00
 E= -1167.40038217401     Delta-E=        0.000000000072 Rises=F Damp=F
 DIIS: error= 1.23D-08 at cycle  14 NSaved=  14.
 NSaved=14 IEnMin=12 EnMin= -1167.40038217423     IErMin=14 ErrMin= 1.23D-08
 ErrMax= 1.23D-08  0.00D+00 EMaxC= 1.00D-01 BMatC= 3.48D-14 BMatP= 9.48D-14
 IDIUse=1 WtCom= 1.00D+00 WtEn= 0.00D+00
 Coeff-Com:  0.303D-07-0.185D-06-0.394D-05-0.623D-05 0.696D-06 0.571D-04
 Coeff-Com:  0.258D-03 0.881D-03-0.535D-03-0.114D-01-0.280D-01-0.366D-01
 Coeff-Com:  0.419D+00 0.656D+00
 Coeff:      0.303D-07-0.185D-06-0.394D-05-0.623D-05 0.696D-06 0.571D-04
 Coeff:      0.258D-03 0.881D-03-0.535D-03-0.114D-01-0.280D-01-0.366D-01
 Coeff:      0.419D+00 0.656D+00
 Gap=     0.208 Goal=   None    Shift=    0.000
 RMSDP=3.61D-08 MaxDP=1.51D-06 DE= 7.23D-11 OVMax= 1.08D-07

 Cycle  15  Pass 1  IDiag  1:
 RMSU=  2.50D-08    CP:  1.07D+00  7.07D-01  9.47D-01  5.83D-01  9.38D-01
                    CP:  1.11D+00  1.05D+00  9.69D-01  9.72D-01  9.38D-01
                    CP:  1.04D+00  1.23D+00  1.48D+00  1.25D+00
 E= -1167.40038217412     Delta-E=       -0.000000000102 Rises=F Damp=F
 DIIS: error= 5.30D-09 at cycle  15 NSaved=  15.
 NSaved=15 IEnMin=12 EnMin= -1167.40038217423     IErMin=15 ErrMin= 5.30D-09
 ErrMax= 5.30D-09  0.00D+00 EMaxC= 1.00D-01 BMatC= 6.34D-15 BMatP= 3.48D-14
 IDIUse=1 WtCom= 1.00D+00 WtEn= 0.00D+00
 Coeff-Com: -0.219D-08-0.158D-07-0.188D-05-0.349D-05-0.324D-05 0.296D-05
 Coeff-Com:  0.102D-03 0.589D-03 0.263D-03-0.300D-02-0.124D-01-0.384D-01
 Coeff-Com:  0.119D+00 0.327D+00 0.607D+00
 Coeff:     -0.219D-08-0.158D-07-0.188D-05-0.349D-05-0.324D-05 0.296D-05
 Coeff:      0.102D-03 0.589D-03 0.263D-03-0.300D-02-0.124D-01-0.384D-01
 Coeff:      0.119D+00 0.327D+00 0.607D+00
 Gap=     0.208 Goal=   None    Shift=    0.000
 RMSDP=4.48D-08 MaxDP=1.56D-06 DE=-1.02D-10 OVMax= 3.86D-08

 Cycle  16  Pass 1  IDiag  1:
 RMSU=  3.07D-08    CP:  1.07D+00  7.07D-01  9.47D-01  5.83D-01  9.38D-01
                    CP:  1.11D+00  1.05D+00  9.70D-01  9.73D-01  9.36D-01
                    CP:  1.04D+00  1.39D+00  1.61D+00  1.81D+00  1.08D+00
 E= -1167.40038217400     Delta-E=        0.000000000113 Rises=F Damp=F
 DIIS: error= 5.07D-09 at cycle  16 NSaved=  16.
 NSaved=16 IEnMin=12 EnMin= -1167.40038217423     IErMin=16 ErrMin= 5.07D-09
 ErrMax= 5.07D-09  0.00D+00 EMaxC= 1.00D-01 BMatC= 4.17D-15 BMatP= 6.34D-15
 IDIUse=1 WtCom= 1.00D+00 WtEn= 0.00D+00
 Coeff-Com: -0.732D-08 0.225D-07-0.654D-06-0.145D-05-0.251D-05-0.932D-05
 Coeff-Com:  0.269D-04 0.279D-03 0.283D-03-0.861D-04-0.423D-02-0.225D-01
 Coeff-Com:  0.115D-01 0.118D+00 0.451D+00 0.445D+00
 Coeff:     -0.732D-08 0.225D-07-0.654D-06-0.145D-05-0.251D-05-0.932D-05
 Coeff:      0.269D-04 0.279D-03 0.283D-03-0.861D-04-0.423D-02-0.225D-01
 Coeff:      0.115D-01 0.118D+00 0.451D+00 0.445D+00
 Gap=     0.208 Goal=   None    Shift=    0.000
 RMSDP=3.50D-08 MaxDP=1.37D-06 DE= 1.13D-10 OVMax= 1.41D-08

 Cycle  17  Pass 1  IDiag  1:
 RMSU=  1.66D-08    CP:  1.07D+00  7.07D-01  9.47D-01  5.83D-01  9.38D-01
                    CP:  1.11D+00  1.05D+00  9.70D-01  9.73D-01  9.36D-01
                    CP:  1.04D+00  1.44D+00  1.79D+00  2.05D+00  1.86D+00
                    CP:  1.45D+00
 E= -1167.40038217409     Delta-E=       -0.000000000091 Rises=F Damp=F
 DIIS: error= 1.07D-08 at cycle  17 NSaved=  17.
 NSaved=17 IEnMin=12 EnMin= -1167.40038217423     IErMin=16 ErrMin= 5.07D-09
 ErrMax= 1.07D-08  0.00D+00 EMaxC= 1.00D-01 BMatC= 6.52D-15 BMatP= 4.17D-15
 IDIUse=1 WtCom= 1.00D+00 WtEn= 0.00D+00
 Large coefficients: NSaved= 17 BigCof=    0.00 CofMax=   10.00 Det=-3.79D-15
 Inversion failed.  Reducing to 16 matrices.
 Large coefficients: NSaved= 16 BigCof=    0.00 CofMax=   10.00 Det=-3.81D-15
 Inversion failed.  Reducing to 15 matrices.
 Coeff-Com: -0.673D-06-0.139D-05-0.203D-05-0.564D-05 0.314D-04 0.281D-03
 Coeff-Com:  0.272D-03-0.910D-04-0.432D-02-0.237D-01 0.520D-02 0.119D+00
 Coeff-Com:  0.518D+00 0.529D+00-0.144D+00
 Coeff:     -0.673D-06-0.139D-05-0.203D-05-0.564D-05 0.314D-04 0.281D-03
 Coeff:      0.272D-03-0.910D-04-0.432D-02-0.237D-01 0.520D-02 0.119D+00
 Coeff:      0.518D+00 0.529D+00-0.144D+00
 Gap=     0.208 Goal=   None    Shift=    0.000
 RMSDP=1.57D-08 MaxDP=6.59D-07 DE=-9.14D-11 OVMax= 2.10D-09

 Cycle  18  Pass 1  IDiag  1:
 RMSU=  7.26D-09    CP:  1.07D+00  7.07D-01  9.47D-01  5.83D-01  9.38D-01
                    CP:  1.11D+00  1.05D+00  9.70D-01  9.73D-01  9.37D-01
                    CP:  1.04D+00  1.40D+00  1.79D+00  1.94D+00  1.77D+00
                    CP:  1.12D+00  6.85D-01
 E= -1167.40038217414     Delta-E=       -0.000000000043 Rises=F Damp=F
 DIIS: error= 7.84D-09 at cycle  18 NSaved=  16.
 NSaved=16 IEnMin=10 EnMin= -1167.40038217423     IErMin=14 ErrMin= 5.07D-09
 ErrMax= 7.84D-09  0.00D+00 EMaxC= 1.00D-01 BMatC= 5.36D-15 BMatP= 4.17D-15
 IDIUse=1 WtCom= 1.00D+00 WtEn= 0.00D+00
 Large coefficients: NSaved= 16 BigCof=    0.00 CofMax=   10.00 Det=-2.16D-15
 Inversion failed.  Reducing to 15 matrices.
 Coeff-Com: -0.203D-06-0.804D-06-0.786D-05 0.175D-05 0.137D-03 0.197D-03
 Coeff-Com:  0.616D-03-0.197D-02-0.177D-01-0.132D-01 0.792D-01 0.465D+00
 Coeff-Com:  0.557D+00-0.304D+00 0.234D+00
 Coeff:     -0.203D-06-0.804D-06-0.786D-05 0.175D-05 0.137D-03 0.197D-03
 Coeff:      0.616D-03-0.197D-02-0.177D-01-0.132D-01 0.792D-01 0.465D+00
 Coeff:      0.557D+00-0.304D+00 0.234D+00
 Gap=     0.208 Goal=   None    Shift=    0.000
 RMSDP=1.23D-08 MaxDP=4.11D-07 DE=-4.32D-11 OVMax= 2.38D-09

 Cycle  19  Pass 1  IDiag  1:
 RMSU=  9.04D-09    CP:  1.07D+00  7.07D-01  9.47D-01  5.83D-01  9.38D-01
                    CP:  1.11D+00  1.05D+00  9.70D-01  9.73D-01  9.36D-01
                    CP:  1.04D+00  1.43D+00  1.77D+00  1.99D+00  1.78D+00
                    CP:  1.25D+00  4.24D-01  9.47D-01
 E= -1167.40038217423     Delta-E=       -0.000000000096 Rises=F Damp=F
 DIIS: error= 7.98D-09 at cycle  19 NSaved=  16.
 NSaved=16 IEnMin= 9 EnMin= -1167.40038217423     IErMin=13 ErrMin= 5.07D-09
 ErrMax= 7.98D-09  0.00D+00 EMaxC= 1.00D-01 BMatC= 4.36D-15 BMatP= 4.17D-15
 IDIUse=1 WtCom= 1.00D+00 WtEn= 0.00D+00
 Large coefficients: NSaved= 16 BigCof=    0.00 CofMax=   10.00 Det=-9.32D-16
 Inversion failed.  Reducing to 15 matrices.
 Coeff-Com: -0.152D-06-0.457D-05-0.106D-05 0.946D-04 0.138D-03 0.654D-03
 Coeff-Com: -0.170D-02-0.172D-01-0.152D-01 0.798D-01 0.497D+00 0.610D+00
 Coeff-Com: -0.386D+00 0.341D+00-0.108D+00
 Coeff:     -0.152D-06-0.457D-05-0.106D-05 0.946D-04 0.138D-03 0.654D-03
 Coeff:     -0.170D-02-0.172D-01-0.152D-01 0.798D-01 0.497D+00 0.610D+00
 Coeff:     -0.386D+00 0.341D+00-0.108D+00
 Gap=     0.208 Goal=   None    Shift=    0.000
 RMSDP=9.11D-09 MaxDP=3.56D-07 DE=-9.60D-11 OVMax= 1.55D-09

 SCF Done:  E(RBMK) =  -1167.40038217     A.U. after   19 cycles
            NFock= 19  Conv=0.91D-08     -V/T= 2.0060
 KE= 1.160474125265D+03 PE=-7.991963717546D+03 EE= 3.019427536058D+03
 Leave Link  502 at Fri May 10 15:47:56 2024, MaxMem=    33554432 cpu:      1709.5
 (Enter /hits/basement/its/doserbd/software/gaussian/g09d1/g09/l801.exe)
 DoSCS=F DFT=T ScalE2(SS,OS)=  1.000000  1.000000
 Range of M.O.s used for correlation:     1   460
 NBasis=   474 NAE=   111 NBE=   111 NFC=     0 NFV=     0
 NROrb=    460 NOA=   111 NOB=   111 NVA=   349 NVB=   349

 **** Warning!!: The largest alpha MO coefficient is  0.11149367D+03

 Leave Link  801 at Fri May 10 15:47:56 2024, MaxMem=    33554432 cpu:         0.2
 (Enter /hits/basement/its/doserbd/software/gaussian/g09d1/g09/l1101.exe)
 Using compressed storage, NAtomX=    72.
 Will process     73 centers per pass.
 PrsmSu:  requested number of processors reduced to:   7 ShMem   1 Linda.
 PrsmSu:  requested number of processors reduced to:   1 ShMem   1 Linda.
 Leave Link 1101 at Fri May 10 15:47:57 2024, MaxMem=    33554432 cpu:         4.9
 (Enter /hits/basement/its/doserbd/software/gaussian/g09d1/g09/l1102.exe)
 Symmetrizing basis deriv contribution to polar:
 IMax=3 JMax=2 DiffMx= 0.00D+00
 Leave Link 1102 at Fri May 10 15:47:58 2024, MaxMem=    33554432 cpu:         0.4
 (Enter /hits/basement/its/doserbd/software/gaussian/g09d1/g09/l1110.exe)
 Forming Gx(P) for the SCF density, NAtomX=    72.
 Integral derivatives from FoFJK, PRISM(SPDF).
 Do as many integral derivatives as possible in FoFJK.
 G2DrvN: MDV=      33553752.
 G2DrvN: will do     5 centers at a time, making   15 passes.
 G2DrvN:  IPasSy=1 do centers    0 through    4.
 Calling FoFCou, ICntrl=  3107 FMM=T I1Cent=   0 AccDes= 0.00D+00.
 FoFJK:  IHMeth= 1 ICntrl=    3107 DoSepK=F KAlg= 0 I1Cent=   0 FoldK=F
 IRaf=         0 NMat=   1 IRICut=       1 DoRegI=T DoRafI=F ISym2E= 0.
 FoFCou: FMM=T IPFlag=           0 FMFlag=      100000 FMFlg1=        2001
         NFxFlg=           0 DoJE=F BraDBF=F KetDBF=F FulRan=T
         wScrn=  0.000000 ICntrl=    3107 IOpCl=  0 I1Cent=           0 NGrid=           0
         NMat0=    1 NMatS0=      1 NMatT0=    0 NMatD0=    1 NMtDS0=    0 NMtDT0=    0
 Symmetry not used in FoFCou.
 FMM levels:  10  Number of levels for PrismC:   9
 G2DrvN:  IPasSy=1 do centers    5 through    9.
 Calling FoFCou, ICntrl=  3107 FMM=T I1Cent=   0 AccDes= 0.00D+00.
 G2DrvN:  IPasSy=1 do centers   10 through   14.
 Calling FoFCou, ICntrl=  3107 FMM=T I1Cent=   0 AccDes= 0.00D+00.
 G2DrvN:  IPasSy=1 do centers   15 through   19.
 Calling FoFCou, ICntrl=  3107 FMM=T I1Cent=   0 AccDes= 0.00D+00.
 G2DrvN:  IPasSy=1 do centers   20 through   24.
 Calling FoFCou, ICntrl=  3107 FMM=T I1Cent=   0 AccDes= 0.00D+00.
 G2DrvN:  IPasSy=1 do centers   25 through   29.
 Calling FoFCou, ICntrl=  3107 FMM=T I1Cent=   0 AccDes= 0.00D+00.
 G2DrvN:  IPasSy=1 do centers   30 through   34.
 Calling FoFCou, ICntrl=  3107 FMM=T I1Cent=   0 AccDes= 0.00D+00.
 G2DrvN:  IPasSy=1 do centers   35 through   39.
 Calling FoFCou, ICntrl=  3107 FMM=T I1Cent=   0 AccDes= 0.00D+00.
 G2DrvN:  IPasSy=1 do centers   40 through   44.
 Calling FoFCou, ICntrl=  3107 FMM=T I1Cent=   0 AccDes= 0.00D+00.
 G2DrvN:  IPasSy=1 do centers   45 through   49.
 Calling FoFCou, ICntrl=  3107 FMM=T I1Cent=   0 AccDes= 0.00D+00.
 G2DrvN:  IPasSy=1 do centers   50 through   54.
 Calling FoFCou, ICntrl=  3107 FMM=T I1Cent=   0 AccDes= 0.00D+00.
 G2DrvN:  IPasSy=1 do centers   55 through   59.
 Calling FoFCou, ICntrl=  3107 FMM=T I1Cent=   0 AccDes= 0.00D+00.
[...]
 9,-0.00000007,0.00000002,-0.00000093,0.00000002,0.,-0.00000033,-0.0000
 0016,-0.00000003,-0.00000046,-0.00000008,0.00000002,0.00000003,0.,-0.0
 0000002,0.00000030,0.00000006,-0.00000008,0.00000021,0.00000003,0.0000
 0006,-0.00000911,0.00000037,0.00000135,0.00000186,-0.00000032,-0.00000
 135,0.00000178,0.00000010,-0.00000012,0.00001293,0.00000201,0.00000108
 ,-0.00000014,-0.00000205,-0.00000104,-0.00000009,-0.00000007,0.0000001
 5,-0.00002965,-0.00000025,-0.00000147,0.00000760,0.00000056,0.00000139
 ,0.00000751,-0.00000005,-0.00000008,0.00000739,-0.00000128,0.00000169,
 -0.00000024,0.00000127,-0.00000168,-0.00000027,-0.00000001,0.,0.000000
 48,0.00000014,0.,-0.00000007,-0.00000012,0.,-0.00000005,0.,0.00000002,
 0.00000024,0.00000014,-0.00000001,-0.00000010,-0.00000012,0.00000002,-
 0.00000012,0.00000003,0.,0.00000011,0.00000013,-0.00000003,-0.00000009
 ,-0.00000015,0.00000003,-0.00000011,0.,-0.00000004,0.00000018,-0.00000
 013,-0.00000001,-0.00000012,0.00000012,0.00000003,-0.00000009,0.000000
 02,0.00000005,-0.00000074,0.,0.,0.00000008,0.00000030,-0.00000007,0.00
 000487,0.00000040,-0.00000008,-0.00000492,-0.00000007,0.00000004,0.000
 00036,-0.00000004,0.00000006,0.00000071,0.00000007,-0.00000013,-0.0000
 0163,-0.00000059,-0.00000027,-0.00001597,0.00000112,-0.00000011,0.0000
 1825,-0.00000016,-0.00000014,0.00001126,0.00000002,-0.00000010,0.00000
 270,0.00000021,0.,-0.00001517,-0.00000002,0.00000006,0.00000110,-0.000
 00028,0.00000006,-0.00000005,0.00000027,-0.00000012,-0.00000004,-0.000
 00014,-0.00000006,-0.00000101,0.00000025,-0.00000012,-0.00000034,-0.00
 000023,0.00000017,-0.00000036,0.00000005,0.,0.00000058,0.00000032,-0.0
 0000001,-0.00000019,-0.00000030,0.00000001,-0.00000016,-0.00000005,-0.
 00000005,0.00000048,-0.00000020,0.00000004,-0.00000020,0.00000022,0.,-
 0.00000021,-0.00000444,-0.00000203,0.00054158,0.00004544,-0.00006623,-
 0.00001993,-0.00004482,0.00006576,-0.00002014,0.00000959,-0.00000241,0
 .00016822,0.00034455,0.00029719,0.00021169,-0.00034481,-0.00029539,0.0
 0020682,-0.00001920,-0.00001011,-0.00065787,0.00022344,0.00033438,-0.0
 0006092,-0.00021764,-0.00033449,-0.00006950,-0.00074607,-0.00094021,-0
 .05089114,0.01822771,0.02288960,0.00030470,-0.01830496,-0.02298752,0.0
 0004885,0.,-0.00000002,0.00000009,0.00083020,0.00105217,0.05023370,0.0
 0008172,-0.00000792,0.00000005,-0.00003694,-0.00000543,0.,0.00000544,0
 .00000663,-0.00000021,-0.00002362,-0.00001158,-0.00000013,0.00000403,0
 .00001653,0.00000047,-0.00003351,0.00000491,-0.00000031,-0.00000951,0.
 00000210,0.00000002,0.00001314,0.00000928,0.00000004,0.00000101,-0.000
 00124,0.00000035,0.00000830,-0.00000845,0.00001642,0.00000835,-0.00000
 819,-0.00001658,0.00000665,-0.00000667,-0.00000034,-0.00000500,0.00000
 309,-0.00000181,-0.00000508,0.00000302,0.00000191,-0.00000881,0.000001
 17,-0.00000021,0.00000123,-0.00000351,-0.00000259,0.00000124,-0.000003
 62,0.00000260,0.00000369,0.00000249,0.00000027,-0.00000268,-0.00000095
 ,0.00000086,-0.00000270,-0.00000102,-0.00000094,-0.00000181,0.00000331
 ,0.00000014,-0.00000344,-0.00000347,0.00000295,-0.00000354,-0.00000355
 ,-0.00000317,-0.00000230,-0.00000290,0.00000024,0.00000122,0.00000286,
 0.00000648,0.00000126,0.00000289,-0.00000652,0.00000542,0.00000263,0.0
 0000002,-0.00000234,-0.00000028,0.00000215,-0.00000232,-0.00000035,-0.
 00000217,-0.00000322,-0.00000382,-0.00000009,0.00000207,0.00000241,-0.
 00000229,0.00000214,0.00000245,0.00000227,0.00000202,0.00000720,0.0000
 0005,-0.00000326,-0.00000494,0.,-0.00008709,-0.00000318,0.00000041,-0.
 00000343,-0.00000689,-0.00000018,0.00088969,0.00004301,0.00000130,0.00
 113885,-0.00269489,-0.00001662,-0.01167255,0.00407626,0.00001026,-0.34
 242786,0.00507778,-0.00014083,-0.01277623,-0.00363790,-0.00002761,0.00
 051088,0.00288389,0.00001200,0.00092631,-0.00043353,0.00000044,-0.0006
 5507,-0.00021554,-0.00000205,-0.00045718,0.00043681,0.00000255,-0.0001
 2192,-0.00014565,0.00001537,-0.00012195,-0.00014572,-0.00001721,-0.000
 14096,0.00005400,0.00000004,0.00002582,-0.00000600,-0.00001329,0.00002
 575,-0.00000618,0.00001319,0.00007031,-0.00002452,0.00000006,-0.000000
 08,0.00000976,-0.00000537,-0.00000005,0.00000972,0.00000543,-0.0000322
 9,-0.00001839,-0.00000020,0.00000616,0.00000022,0.00000891,0.00000617,
 0.00000031,-0.00000889,0.00084509,-0.00154576,-0.00000018,0.00030329,0
 .00074657,0.00018584,0.00031053,0.00075052,-0.00018117,0.00023144,0.00
 022821,-0.00000105,0.00004357,-0.00010745,0.00005784,0.00004556,-0.000
 10756,-0.00005859,-0.00002647,0.00001561,-0.00000043,0.00000823,0.0000
 0822,0.00001225,0.00000849,0.00000842,-0.00001217,0.00000477,0.0000041
 7,0.00000005,-0.00000201,-0.00000028,-0.00000508,-0.00000205,-0.000000
 32,0.00000508,0.00000276,-0.00002220,-0.00000009,-0.00000312,0.0000036
 3,0.,0.36313485,-0.00001299,-0.00000686,-0.00000025,0.00000398,-0.0000
 0572,-0.00000009,0.00000133,0.00000258,0.00000016,0.00000236,0.0000012
 7,-0.00000008,0.00000068,0.00000297,0.00000005,0.00000876,-0.00001077,
 0.00000005,0.00000092,-0.00000027,0.,0.00000400,0.00000142,-0.00000005
 ,-0.00000936,0.,-0.00000014,-0.00000527,0.00000374,-0.00001190,-0.0000
 0521,0.00000365,0.00001198,0.00000140,0.00000612,0.00000005,0.00000201
 ,-0.00000250,0.00000094,0.00000202,-0.00000248,-0.00000098,0.00000160,
 -0.00000226,0.00000002,-0.00000002,0.00000300,0.00000082,-0.00000006,0
 .00000302,-0.00000080,0.00000118,0.00000129,0.,0.00000056,-0.00000033,
 0.00000036,0.00000056,-0.00000031,-0.00000036,-0.00000046,-0.00000118,
 0.00000005,-0.00000011,0.00000086,0.00000025,-0.00000012,0.00000086,-0
 .00000027,0.00000290,0.00000017,-0.00000007,0.00000032,0.,0.00000180,0
 .00000031,0.00000002,-0.00000180,-0.00000052,0.00000123,0.00000003,-0.
 00000047,-0.00000030,0.00000034,-0.00000049,-0.00000030,-0.00000036,0.
 00000052,-0.00000051,0.,0.00000040,0.00000066,-0.00000073,0.00000040,0
 .00000065,0.00000074,-0.00000019,-0.00000347,-0.00000002,-0.00000105,-
 0.00000028,0.,-0.00001571,-0.00001190,-0.00000068,0.00000394,0.0002215
 0,0.00000717,-0.00006285,-0.00116598,-0.00000302,-0.00183697,-0.004608
 02,-0.00006154,-0.03080779,0.00333420,-0.00002342,0.00519563,-0.060893
 64,-0.00010571,0.02991356,0.00306294,0.00001157,0.00205903,-0.00491467
 ,-0.00005778,0.00041033,0.00090650,0.00002684,0.00142794,0.00013375,0.
 00000086,-0.00094761,0.00048991,0.00000248,-0.00016971,-0.00016745,-0.
 00000920,-0.00016954,-0.00016697,0.00000685,-0.00005679,0.00012365,0.0
 0000082,0.00002553,-0.00001235,-0.00003965,0.00002532,-0.00001310,0.00
 003932,0.00006472,-0.00003798,-0.00000021,0.00000676,0.00001640,-0.000
 00717,0.00000674,0.00001634,0.00000733,-0.00002046,-0.00001273,-0.0000
 0009,0.00000180,-0.00000393,0.00001092,0.00000178,-0.00000380,-0.00001
 093,0.00075158,0.00135190,0.00001276,-0.00008276,-0.00028621,-0.000445
 00,-0.00009475,-0.00029351,0.00044980,-0.00020171,0.00000768,0.0000031
 1,-0.00005959,0.00014519,-0.00006217,-0.00006139,0.00014622,0.00006288
 ,-0.00009421,-0.00001351,-0.00000047,-0.00000337,-0.00002467,-0.000010
 33,-0.00000348,-0.00002493,0.00001035,0.00002538,0.00002251,0.00000021
 ,-0.00000600,-0.00000137,0.00000755,-0.00000590,-0.00000136,-0.0000075
 9,0.00000754,-0.00001174,-0.00000005,0.00000345,0.00002339,0.00000007,
 -0.00523082,0.06267086,0.00000005,-0.00000026,0.00003731,0.,-0.0000001
 0,0.00000970,0.00000010,0.00000002,-0.00001594,-0.00000005,0.00000002,
 -0.00000141,0.00000009,0.00000007,0.00000109,0.00000006,-0.00000004,-0
 .00000592,0.,0.00000001,0.00000087,0.,0.00000001,0.00000762,-0.0000000
 4,-0.00000012,0.00001930,0.00000763,0.00000070,-0.00000499,-0.00000771
 ,-0.00000064,-0.00000492,-0.00000003,0.00000005,0.00000072,-0.00000186
 ,0.00000034,-0.00000103,0.00000189,-0.00000036,-0.00000106,0.00000006,
 0.,0.00000367,-0.00000103,-0.00000013,-0.00000142,0.00000100,0.0000001
 7,-0.00000139,0.,0.,-0.00000040,0.00000125,0.00000002,-0.00000066,-0.0
 0000125,-0.00000001,-0.00000067,0.,-0.00000002,-0.00000176,0.00000087,
 -0.00000021,-0.00000017,-0.00000088,0.00000022,-0.00000019,0.00000001,
 -0.00000002,0.00000379,0.00000053,-0.00000042,-0.00000105,-0.00000053,
 0.00000043,-0.00000107,-0.00000001,0.,0.00000011,0.00000095,-0.0000001
 2,-0.00000050,-0.00000095,0.00000012,-0.00000050,0.,0.00000002,0.00000
 169,-0.00000061,-0.00000002,-0.00000076,0.00000063,0.00000003,-0.00000
 075,0.,-0.00000002,0.00000110,-0.00000002,-0.00000002,0.00000022,-0.00
 000033,-0.00000059,0.00011293,0.00000046,0.00000698,-0.00116686,0.0000
 0070,-0.00000256,-0.00060953,-0.00001246,-0.00006243,0.00727531,-0.000
 16595,-0.00000237,0.00414988,-0.00013793,-0.00011058,-0.03953349,0.000
 14508,-0.00000161,0.00451547,0.00000556,-0.00005739,0.00663645,0.00000
 515,0.00002664,-0.00433125,0.00000701,0.00000010,0.00006388,-0.0000050
 7,0.00000289,-0.00003547,0.00002184,0.00006173,0.00004669,-0.00002370,
 -0.00006403,0.00004613,-0.00000032,0.00000106,-0.00005605,-0.00002404,
 -0.00004100,0.00002050,0.00002429,0.00004062,0.00002136,0.00000038,-0.
 00000029,0.00001925,0.00000042,0.00000059,-0.00000100,-0.00000034,-0.0
 0000041,-0.00000093,-0.00000009,-0.00000008,0.00000631,-0.00000279,0.0
 0000130,-0.00000359,0.00000280,-0.00000131,-0.00000372,-0.00000713,0.0
 0001960,-0.00214165,-0.00072537,-0.00022027,-0.00047392,0.00073187,0.0
 0021458,-0.00046001,0.00000130,0.00000268,-0.00036169,-0.00005575,0.00
 006607,-0.00000320,0.00005507,-0.00006435,-0.00000258,-0.00000147,0.00
 000005,0.00005426,-0.00000035,-0.00000543,-0.00000868,0.00000056,0.000
 00521,-0.00000856,0.00000046,0.00000039,0.00000443,0.00000408,-0.00000
 078,-0.00000137,-0.00000416,0.00000072,-0.00000147,0.00000003,-0.00000
 007,-0.00000049,-0.00000005,0.00000022,0.00000390,0.00016006,0.0001843
 9,0.02618558,0.00088971,0.00004291,0.00000103,0.00113824,-0.00269497,-
 0.00001529,-0.01166908,0.00407355,0.00001225,-0.34244017,0.00504194,-0
 .00009808,-0.01277904,-0.00363904,-0.00002388,0.00050968,0.00288444,0.
 00001147,0.00092647,-0.00043351,-0.00000007,-0.00065519,-0.00021554,-0
 .00000160,-0.00045688,0.00043737,0.00000256,-0.00012197,-0.00014563,-0
 .00001703,-0.00012192,-0.00014562,0.00001538,-0.00013947,0.00005392,-0
 .00000010,0.00002576,-0.00000621,0.00001322,0.00002577,-0.00000610,-0.
 00001323,0.00006917,-0.00002434,-0.00000032,-0.00000004,0.00000985,0.0
 0000555,0.00000003,0.00000980,-0.00000544,-0.00003190,-0.00001853,0.00
 000023,0.00000619,0.00000035,-0.00000890,0.00000613,0.00000019,0.00000
 879,0.00084493,-0.00154589,-0.00000334,0.00030830,0.00074996,-0.000180
 73,0.00030525,0.00074734,0.00018661,0.00023216,0.00022855,0.00000066,0
 .00004507,-0.00010729,-0.00005873,0.00004422,-0.00010764,0.00005769,-0
 .00002708,0.00001547,-0.00000010,0.00000860,0.00000850,-0.00001231,0.0
 0000844,0.00000823,0.00001230,0.00000411,0.00000392,-0.00000002,-0.000
 00200,-0.00000038,0.00000517,-0.00000187,-0.00000030,-0.00000525,0.000
 00285,-0.00002240,-0.00000008,-0.00000282,0.00000373,0.00000005,-0.000
 00402,-0.00000467,0.00000074,-0.00008595,-0.00000551,-0.00000071,0.000
 08143,-0.00000762,0.00000019,-0.00003614,-0.00000463,0.00000052,0.0000
 0544,0.00000756,-0.00000027,-0.00002302,-0.00001103,-0.00000013,0.0000
 0346,0.00001539,0.00000073,-0.00003312,0.00000516,-0.00000044,-0.00000
 947,0.00000211,0.00000001,0.00001321,0.00000910,0.00000005,0.00000072,
 -0.00000191,0.00000015,0.00000839,-0.00000817,-0.00001657,0.00000839,-
 0.00000851,0.00001629,0.00000521,-0.00000663,-0.00000012,-0.00000498,0
 .00000311,0.00000178,-0.00000503,0.00000318,-0.00000182,-0.00000779,0.
 00000098,0.00000018,0.00000120,-0.00000368,0.00000263,0.00000121,-0.00
 000363,-0.00000273,0.00000334,0.00000270,-0.00000007,-0.00000269,-0.00
 000098,-0.00000085,-0.00000264,-0.00000099,0.00000083,-0.00000164,0.00
 000334,-0.00000013,-0.00000339,-0.00000346,-0.00000306,-0.00000346,-0.
 00000349,0.00000309,-0.00000315,-0.00000319,-0.00000020,0.00000126,0.0
 0000297,-0.00000642,0.00000115,0.00000273,0.00000648,0.00000603,0.0000
 0271,-0.00000004,-0.00000255,-0.00000036,-0.00000225,-0.00000248,-0.00
 000038,0.00000228,-0.00000248,-0.00000343,0.,0.00000202,0.00000245,0.0
 0000242,0.00000204,0.00000245,-0.00000238,0.00000192,0.00000735,0.0000
 0007,-0.00000363,-0.00000511,-0.00000004,-0.00000707,0.00000051,0.,0.3
 6314659,-0.00006149,-0.00116613,-0.00000274,-0.00183595,-0.00460889,-0
 .00005761,-0.03080960,0.00332962,-0.00001731,0.00516064,-0.06089255,-0
 .00010014,0.02991220,0.00306665,0.00000613,0.00205984,-0.00491404,-0.0
 0005441,0.00040972,0.00090665,0.00002521,0.00142765,0.00013419,0.00000
 079,-0.00094758,0.00048963,0.00000225,-0.00016957,-0.00016710,0.000006
 95,-0.00016975,-0.00016756,-0.00000916,-0.00005704,0.00012397,0.000000
 81,0.00002531,-0.00001312,0.00003934,0.00002555,-0.00001239,-0.0000396
 5,0.00006498,-0.00003792,-0.00000021,0.00000667,0.00001633,0.00000724,
 0.00000667,0.00001639,-0.00000708,-0.00002042,-0.00001274,-0.00000010,
 0.00000177,-0.00000381,-0.00001090,0.00000178,-0.00000392,0.00001090,0
 .00075138,0.00135200,0.00001475,-0.00009320,-0.00029310,0.00044891,-0.
 00008419,-0.00028654,-0.00044601,-0.00020177,0.00000764,0.00000220,-0.
 00006108,0.00014591,0.00006306,-0.00006003,0.00014545,-0.00006200,-0.0
 0009416,-0.00001347,-0.00000038,-0.00000343,-0.00002490,0.00001029,-0.
 00000339,-0.00002471,-0.00001037,0.00002543,0.00002255,0.00000014,-0.0
 0000591,-0.00000134,-0.00000757,-0.00000598,-0.00000138,0.00000756,0.0
 0000753,-0.00001172,-0.00000005,0.00000340,0.00002335,0.00000008,0.000
 00256,0.00022149,0.00000662,-0.00001725,-0.00001158,-0.00000054,-0.000
 01192,-0.00000698,-0.00000026,0.00000405,-0.00000606,-0.00000014,0.000
 00160,0.00000234,0.00000013,0.00000200,0.00000118,-0.00000006,0.000001
 44,0.00000341,0.00000004,0.00000873,-0.00001085,0.00000003,0.00000086,
 -0.00000015,0.,0.00000385,0.00000178,-0.00000003,-0.00000932,-0.000000
 28,-0.00000009,-0.00000524,0.00000355,0.00001195,-0.00000531,0.0000036
 8,-0.00001187,0.00000142,0.00000633,0.00000004,0.00000202,-0.00000253,
 -0.00000097,0.00000203,-0.00000253,0.00000095,0.00000163,-0.00000217,-
 0.00000002,-0.00000010,0.00000302,-0.00000073,-0.00000007,0.00000300,0
 .00000077,0.00000123,0.00000129,0.00000001,0.00000055,-0.00000032,-0.0
 0000037,0.00000054,-0.00000033,0.00000038,-0.00000053,-0.00000123,0.00
 000006,-0.00000015,0.00000085,-0.00000034,-0.00000015,0.00000084,0.000
 00033,0.00000287,0.00000016,-0.00000004,0.00000031,0.00000003,-0.00000
 180,0.00000030,0.00000003,0.00000182,-0.00000055,0.00000125,0.00000001
 ,-0.00000045,-0.00000030,-0.00000034,-0.00000045,-0.00000030,0.0000003
 4,0.00000043,-0.00000059,-0.00000002,0.00000041,0.00000066,0.00000073,
 0.00000042,0.00000067,-0.00000072,-0.00000020,-0.00000349,-0.00000002,
 -0.00000101,-0.00000026,0.,0.00000059,0.00000095,0.,-0.00519311,0.0626
 7041,0.00000006,-0.00000231,-0.00060953,-0.00001119,-0.00005808,0.0072
 7509,-0.00015415,-0.00000256,0.00414983,-0.00009612,-0.00010190,-0.039
 53422,0.00013706,-0.00000542,0.00451543,0.00000656,-0.00005419,0.00663
 652,0.00000416,0.00002494,-0.00433127,0.00000663,0.00000008,0.00006386
 ,-0.00000470,0.00000273,-0.00003547,-0.00002364,-0.00006394,0.00004615
 ,0.00002191,0.00006184,0.00004670,-0.00000029,0.00000087,-0.00005598,0
 .00002423,0.00004061,0.00002130,-0.00002401,-0.00004094,0.00002051,0.0
 0000035,-0.00000028,0.00001924,-0.00000034,-0.00000042,-0.00000093,0.0
 0000043,0.00000060,-0.00000101,-0.00000014,-0.00000013,0.00000631,0.00
 000281,-0.00000130,-0.00000373,-0.00000278,0.00000131,-0.00000359,-0.0
 0000052,0.00001711,-0.00214160,0.00072989,0.00021697,-0.00046227,-0.00
 072736,-0.00021811,-0.00047169,0.00000014,0.00000216,-0.00036171,0.000
 05513,-0.00006448,-0.00000277,-0.00005571,0.00006593,-0.00000300,-0.00
 000088,-0.00000018,0.00005429,0.00000049,0.00000523,-0.00000855,-0.000
 00043,-0.00000540,-0.00000869,0.00000027,0.00000022,0.00000441,-0.0000
 0416,0.00000073,-0.00000146,0.00000408,-0.00000077,-0.00000137,0.00000
 005,-0.00000005,-0.00000049,0.,0.00000015,0.00000390,0.00000092,0.0000
 0655,-0.00116672,0.00000030,-0.00000062,0.00011291,-0.00000039,-0.0000
 0017,0.00003733,-0.00000004,-0.00000003,0.00000964,0.00000002,0.000000
 12,-0.00001597,0.00000005,0.00000006,-0.00000138,-0.00000016,-0.000000
 11,0.00000106,0.00000005,-0.00000002,-0.00000590,0.00000002,-0.0000000
 3,0.00000087,0.00000006,-0.00000011,0.00000761,-0.00000010,-0.00000003
 ,0.00001938,-0.00000769,-0.00000061,-0.00000492,0.00000769,0.00000074,
 -0.00000505,0.00000002,-0.00000002,0.00000073,0.00000189,-0.00000035,-
 0.00000105,-0.00000186,0.00000036,-0.00000104,-0.00000005,-0.00000005,
 0.00000368,0.00000104,0.00000017,-0.00000145,-0.00000098,-0.00000013,-
 0.00000137,0.,0.00000002,-0.00000040,-0.00000124,-0.00000001,-0.000000
 66,0.00000125,0.00000001,-0.00000066,-0.00000003,0.,-0.00000177,-0.000
 00086,0.00000022,-0.00000015,0.00000089,-0.00000021,-0.00000020,0.0000
 0006,0.,0.00000381,-0.00000053,0.00000042,-0.00000108,0.00000055,-0.00
 000043,-0.00000106,-0.00000004,0.,0.00000010,-0.00000095,0.00000012,-0
 .00000050,0.00000095,-0.00000013,-0.00000050,0.,0.00000001,0.00000172,
 0.00000063,0.00000002,-0.00000075,-0.00000062,-0.00000002,-0.00000078,
 0.,-0.00000002,0.00000109,0.,0.,0.00000022,-0.00000003,0.,0.00000259,0
 .00011134,0.00017326,0.02618647\\-0.00000006,-0.00000232,0.,0.00000016
 ,-0.00000134,0.00000006,0.00000095,-0.00000118,0.00000003,-0.00000085,
 -0.00000096,0.00000007,-0.00000004,-0.00000158,0.00000002,-0.00000083,
 -0.00000203,0.00000003,-0.00000165,-0.00000075,0.00000008,0.00000286,0
 .00000043,0.,0.00000181,-0.00000105,0.,-0.00000191,-0.00000038,-0.0000
 0056,-0.00000204,-0.00000010,0.00000060,-0.00000463,0.00000047,0.,-0.0
 0000118,-0.00000208,-0.00000026,-0.00000111,-0.00000201,0.00000040,0.0
 0000094,-0.00000190,0.00000002,-0.00000268,-0.00000048,0.00000064,-0.0
 0000264,-0.00000049,-0.00000061,-0.00000345,0.00000035,-0.00000005,-0.
 00000274,-0.00000168,0.00000023,-0.00000273,-0.00000175,0.,-0.00000141
 ,-0.00000144,0.00000007,0.00000162,-0.00000253,0.00000057,0.00000163,-
 0.00000252,-0.00000047,0.00000378,-0.00000297,0.00000008,0.00000083,-0
 .00000137,-0.00000067,0.00000089,-0.00000131,0.00000065,-0.00000074,-0
 .00000197,0.00000005,0.00000260,-0.00000242,0.00000079,0.00000260,-0.0
 0000240,-0.00000067,0.00000306,-0.00000266,0.00000007,0.00000276,-0.00
 000124,0.00000026,0.00000275,-0.00000124,-0.00000027,-0.00000288,-0.00
 000075,0.00000003,0.00000298,-0.00000214,0.00000004,0.00000275,-0.0000
 0099,0.00000018,-0.00000279,0.00000115,-0.00000015,0.00000005,0.000002
 01,0.00000004,-0.00000007,0.00000111,-0.00000004,0.00000013,0.00000097
 ,-0.00000005,0.00000074,0.00000126,-0.00000005,-0.00000020,0.00000142,
 -0.00000009,0.00000082,0.00000190,0.00000003,0.00000227,0.00000264,-0.
 00000006,-0.00000267,-0.00000025,-0.00000002,-0.00000247,0.00000096,0.
 ,0.00000204,0.00000040,-0.00000077,0.00000226,0.00000002,0.00000069,0.
 00000395,-0.00000111,-0.00000006,0.00000099,0.00000188,-0.00000044,0.0
 0000088,0.00000163,0.00000040,-0.00000092,0.00000182,-0.00000004,0.000
 00266,0.00000045,0.00000060,0.00000261,0.00000050,-0.00000077,0.000003
 40,-0.00000030,-0.00000022,0.00000280,0.00000166,0.00000019,0.00000269
 ,0.00000173,-0.00000008,0.00000125,0.00000143,-0.00000002,-0.00000158,
 0.00000251,0.00000051,-0.00000160,0.00000253,-0.00000059,-0.00000358,0
 .00000297,-0.00000004,-0.00000084,0.00000144,-0.00000073,-0.00000102,0
 .00000116,0.00000059,0.00000077,0.00000194,-0.00000004,-0.00000263,0.0
 0000239,0.00000073,-0.00000265,0.00000244,-0.00000076,-0.00000305,0.00
 000271,0.00000008,-0.00000273,0.00000120,0.00000016,-0.00000280,0.0000
 0123,-0.00000034,0.00000290,0.00000075,-0.00000002,-0.00000294,0.00000
 216,-0.00000006,0.00000012,0.00000265,-0.00000006,-0.00000020,-0.00000
 256,0.00000005\\\@


 TELEVISION IS CALLED A MEDIUM BECAUSE IT ISN'T
 RARE, AND IT ISN'T WELL DONE.
 Job cpu time:       0 days 10 hours 55 minutes 33.5 seconds.
 File lengths (MBytes):  RWF=   3623 Int=      0 D2E=      0 Chk=     21 Scr=      1
 Normal termination of Gaussian 09 at Fri May 10 19:01:55 2024.
