
                                 *****************
                                 * O   R   C   A *
                                 *****************

                                            #,                                       
                                            ###                                      
                                            ####                                     
                                            #####                                    
                                            ######                                   
                                           ########,                                 
                                     ,,################,,,,,                         
                               ,,#################################,,                 
                          ,,##########################################,,             
                       ,#########################################, ''#####,          
                    ,#############################################,,   '####,        
                  ,##################################################,,,,####,       
                ,###########''''           ''''###############################       
              ,#####''   ,,,,##########,,,,          '''####'''          '####       
            ,##' ,,,,###########################,,,                        '##       
           ' ,,###''''                  '''############,,,                           
         ,,##''                                '''############,,,,        ,,,,,,###''
      ,#''                                            '''#######################'''  
     '                                                          ''''####''''         
             ,#######,   #######,   ,#######,      ##                                
            ,#'     '#,  ##    ##  ,#'     '#,    #''#        ######   ,####,        
            ##       ##  ##   ,#'  ##            #'  '#       #        #'  '#        
            ##       ##  #######   ##           ,######,      #####,   #    #        
            '#,     ,#'  ##    ##  '#,     ,#' ,#      #,         ##   #,  ,#        
             '#######'   ##     ##  '#######'  #'      '#     #####' # '####'        



                  #######################################################
                  #                        -***-                        #
                  #          Department of theory and spectroscopy      #
                  #    Directorship and core code : Frank Neese         #
                  #        Max Planck Institute fuer Kohlenforschung    #
                  #                Kaiser Wilhelm Platz 1               #
                  #                 D-45470 Muelheim/Ruhr               #
                  #                      Germany                        #
                  #                                                     #
                  #                  All rights reserved                #
                  #                        -***-                        #
                  #######################################################


                         Program Version 5.0.4 -  RELEASE  -


 With contributions from (in alphabetic order):
   Daniel Aravena         : Magnetic Suceptibility
   Michael Atanasov       : Ab Initio Ligand Field Theory (pilot matlab implementation)
   Alexander A. Auer      : GIAO ZORA, VPT2 properties, NMR spectrum
   Ute Becker             : Parallelization
   Giovanni Bistoni       : ED, misc. LED, open-shell LED, HFLD
   Martin Brehm           : Molecular dynamics
   Dmytro Bykov           : SCF Hessian
   Vijay G. Chilkuri      : MRCI spin determinant printing, contributions to CSF-ICE
   Dipayan Datta          : RHF DLPNO-CCSD density
   Achintya Kumar Dutta   : EOM-CC, STEOM-CC
   Dmitry Ganyushin       : Spin-Orbit,Spin-Spin,Magnetic field MRCI
   Miquel Garcia          : C-PCM and meta-GGA Hessian, CC/C-PCM, Gaussian charge scheme
   Yang Guo               : DLPNO-NEVPT2, F12-NEVPT2, CIM, IAO-localization
   Andreas Hansen         : Spin unrestricted coupled pair/coupled cluster methods
   Benjamin Helmich-Paris : MC-RPA, TRAH-SCF, COSX integrals
   Lee Huntington         : MR-EOM, pCC
   Robert Izsak           : Overlap fitted RIJCOSX, COSX-SCS-MP3, EOM
   Marcus Kettner         : VPT2
   Christian Kollmar      : KDIIS, OOCD, Brueckner-CCSD(T), CCSD density, CASPT2, CASPT2-K
   Simone Kossmann        : Meta GGA functionals, TD-DFT gradient, OOMP2, MP2 Hessian
   Martin Krupicka        : Initial AUTO-CI
   Lucas Lang             : DCDCAS
   Marvin Lechner         : AUTO-CI (C++ implementation), FIC-MRCC
   Dagmar Lenk            : GEPOL surface, SMD
   Dimitrios Liakos       : Extrapolation schemes; Compound Job, initial MDCI parallelization
   Dimitrios Manganas     : Further ROCIS development; embedding schemes
   Dimitrios Pantazis     : SARC Basis sets
   Anastasios Papadopoulos: AUTO-CI, single reference methods and gradients
   Taras Petrenko         : DFT Hessian,TD-DFT gradient, ASA, ECA, R-Raman, ABS, FL, XAS/XES, NRVS
   Peter Pinski           : DLPNO-MP2, DLPNO-MP2 Gradient
   Christoph Reimann      : Effective Core Potentials
   Marius Retegan         : Local ZFS, SOC
   Christoph Riplinger    : Optimizer, TS searches, QM/MM, DLPNO-CCSD(T), (RO)-DLPNO pert. Triples
   Tobias Risthaus        : Range-separated hybrids, TD-DFT gradient, RPA, STAB
   Michael Roemelt        : Original ROCIS implementation
   Masaaki Saitow         : Open-shell DLPNO-CCSD energy and density
   Barbara Sandhoefer     : DKH picture change effects
   Avijit Sen             : IP-ROCIS
   Kantharuban Sivalingam : CASSCF convergence, NEVPT2, FIC-MRCI
   Bernardo de Souza      : ESD, SOC TD-DFT
   Georgi Stoychev        : AutoAux, RI-MP2 NMR, DLPNO-MP2 response
   Willem Van den Heuvel  : Paramagnetic NMR
   Boris Wezisla          : Elementary symmetry handling
   Frank Wennmohs         : Technical directorship


 We gratefully acknowledge several colleagues who have allowed us to
 interface, adapt or use parts of their codes:
   Stefan Grimme, W. Hujo, H. Kruse, P. Pracht,  : VdW corrections, initial TS optimization,
                  C. Bannwarth, S. Ehlert          DFT functionals, gCP, sTDA/sTD-DF
   Ed Valeev, F. Pavosevic, A. Kumar             : LibInt (2-el integral package), F12 methods
   Garnet Chan, S. Sharma, J. Yang, R. Olivares  : DMRG
   Ulf Ekstrom                                   : XCFun DFT Library
   Mihaly Kallay                                 : mrcc  (arbitrary order and MRCC methods)
   Jiri Pittner, Ondrej Demel                    : Mk-CCSD
   Frank Weinhold                                : gennbo (NPA and NBO analysis)
   Christopher J. Cramer and Donald G. Truhlar   : smd solvation model
   Lars Goerigk                                  : TD-DFT with DH, B97 family of functionals
   V. Asgeirsson, H. Jonsson                     : NEB implementation
   FAccTs GmbH                                   : IRC, NEB, NEB-TS, DLPNO-Multilevel, CI-OPT
                                                   MM, QMMM, 2- and 3-layer-ONIOM, Crystal-QMMM,
                                                   LR-CPCM, SF, NACMEs, symmetry and pop. for TD-DFT,
                                                   nearIR, NL-DFT gradient (VV10), updates on ESD,
                                                   ML-optimized integration grids
   S Lehtola, MJT Oliveira, MAL Marques          : LibXC Library
   Liviu Ungur et al                             : ANISO software


 Your calculation uses the libint2 library for the computation of 2-el integrals
 For citations please refer to: http://libint.valeyev.net

 Your ORCA version has been built with support for libXC version: 5.1.0
 For citations please refer to: https://tddft.org/programs/libxc/

 This ORCA versions uses:
   CBLAS   interface :  Fast vector & matrix operations
   LAPACKE interface :  Fast linear algebra routines
   SCALAPACK package :  Parallel linear algebra routines
   Shared memory     :  Shared parallel matrices
   BLAS/LAPACK       :  OpenBLAS 0.3.15  USE64BITINT DYNAMIC_ARCH NO_AFFINITY SkylakeX SINGLE_THREADED
        Core in use  :  SkylakeX
   Copyright (c) 2011-2014, The OpenBLAS Project




***************************************
The coordinates will be read from file: opt.xyz
***************************************


================================================================================

----- Orbital basis set information -----
Your calculation utilizes the basis: EPR-II
   V. Barone, in Recent Advances in Density Functional Methods, Part 1 (ed. D. P. Chong), World Scientific, Singapore, 1995, p. 287.

----- AuxJ basis set information -----
Your calculation utilizes the auxiliary basis: def2/J
   F. Weigend, Phys. Chem. Chem. Phys. 8, 1057 (2006).

================================================================================
                                        WARNINGS
                       Please study these warnings very carefully!
================================================================================


WARNING: your system is open-shell and RHF/RKS was chosen
  ===> : WILL SWITCH to UHF/UKS


INFO   : the flag for use of the SHARK integral package has been found!

================================================================================
                                       INPUT FILE
================================================================================
NAME = BDE.inp
|  1> ! B3LYP EPR-II FREQ
|  2> %pal nprocs 16 end
|  3> *XYZFile 0 4 opt.xyz
|  4> 
|  5>                          ****END OF INPUT****
================================================================================

                       ****************************
                       * Single Point Calculation *
                       ****************************

---------------------------------
CARTESIAN COORDINATES (ANGSTROEM)
---------------------------------
  C     -2.832372    0.020293   -0.012674
  C      2.815948   -0.003360   -0.008875
  C     -1.420433    0.002453   -0.011651
  C     -0.709375   -1.248719   -0.014317
  C      0.676247   -1.190347   -0.013098
  C      1.395990    0.032013   -0.009547
  C      0.690981    1.274503   -0.006793
  C     -0.695552    1.234643   -0.007923
  H      1.255523   -2.114320   -0.015016
  H     -1.274064    2.157630   -0.005970
  C     -1.489895   -2.544872   -0.018304
  H     -2.165019   -2.534890   -0.894888
  H     -2.166965   -2.539083    0.856814
  C     -0.678575   -3.843149   -0.020503
  H     -0.014665   -3.868142   -0.904151
  H     -0.016787   -3.872413    0.864608
  C     -1.565109   -5.094476   -0.024598
  H     -2.232311   -5.070651    0.856894
  H     -2.230018   -5.066520   -0.907703
  C     -0.764607   -6.399272   -0.026630
  H     -0.116223   -6.472896    0.863534
  H     -0.113640   -6.468533   -0.915256
  C      1.471273    2.575323   -0.002841
  H      2.146769    2.566888    0.872422
  H      2.148153    2.571347   -0.877069
  C      0.658643    3.872512   -0.000192
  H     -0.003508    3.902839   -0.885023
  H     -0.005190    3.898229    0.883519
  C      1.545480    5.123771    0.003914
  H      2.210563    5.095343    0.886947
  H      2.212467    5.099765   -0.877811
  C      0.745911    6.429167    0.006343
  H      0.095138    6.498653    0.895068
  H      0.097365    6.503336   -0.883633
  C      4.039703   -0.047094   -0.010051
  H     -1.427402   -7.279815   -0.029757
  H      1.409174    7.309394    0.009496
  C      5.464853   -0.099872   -0.009745
  C      6.139075   -1.341626   -0.011166
  C      7.532527   -1.388475   -0.010865
  C      8.280425   -0.205272   -0.009185
  C      7.623150    1.030678   -0.007808
  C      6.230136    1.087990   -0.008102
  H      9.372096   -0.246369   -0.008970
  H      8.201473    1.957801   -0.006530
  H      5.554032   -2.263250   -0.012463
  H      5.715792    2.050851   -0.007084
  H      8.040096   -2.356142   -0.011943

----------------------------
CARTESIAN COORDINATES (A.U.)
----------------------------
  NO LB      ZA    FRAG     MASS         X           Y           Z
   0 C     6.0000    0    12.011   -5.352408    0.038349   -0.023950
   1 C     6.0000    0    12.011    5.321371   -0.006349   -0.016770
   2 C     6.0000    0    12.011   -2.684229    0.004635   -0.022017
   3 C     6.0000    0    12.011   -1.340524   -2.359736   -0.027055
   4 C     6.0000    0    12.011    1.277922   -2.249430   -0.024752
   5 C     6.0000    0    12.011    2.638039    0.060496   -0.018041
   6 C     6.0000    0    12.011    1.305765    2.408461   -0.012838
   7 C     6.0000    0    12.011   -1.314403    2.333137   -0.014972
   8 H     1.0000    0     1.008    2.372596   -3.995485   -0.028375
   9 H     1.0000    0     1.008   -2.407632    4.077330   -0.011282
  10 C     6.0000    0    12.011   -2.815494   -4.809112   -0.034589
  11 H     1.0000    0     1.008   -4.091294   -4.790248   -1.691093
  12 H     1.0000    0     1.008   -4.094971   -4.798172    1.619143
  13 C     6.0000    0    12.011   -1.282321   -7.262500   -0.038745
  14 H     1.0000    0     1.008   -0.027712   -7.309728   -1.708597
  15 H     1.0000    0     1.008   -0.031723   -7.317800    1.633873
  16 C     6.0000    0    12.011   -2.957628   -9.627164   -0.046484
  17 H     1.0000    0     1.008   -4.218456   -9.582142    1.619295
  18 H     1.0000    0     1.008   -4.214122   -9.574335   -1.715311
  19 C     6.0000    0    12.011   -1.444898  -12.092871   -0.050324
  20 H     1.0000    0     1.008   -0.219630  -12.232000    1.631843
  21 H     1.0000    0     1.008   -0.214748  -12.223756   -1.729584
  22 C     6.0000    0    12.011    2.780303    4.866655   -0.005369
  23 H     1.0000    0     1.008    4.056805    4.850715    1.648638
  24 H     1.0000    0     1.008    4.059421    4.859141   -1.657420
  25 C     6.0000    0    12.011    1.244655    7.317988   -0.000363
  26 H     1.0000    0     1.008   -0.006629    7.375296   -1.672451
  27 H     1.0000    0     1.008   -0.009808    7.366586    1.669608
  28 C     6.0000    0    12.011    2.920533    9.682524    0.007397
  29 H     1.0000    0     1.008    4.177358    9.628803    1.676087
  30 H     1.0000    0     1.008    4.180957    9.637159   -1.658822
  31 C     6.0000    0    12.011    1.409567   12.149365    0.011986
  32 H     1.0000    0     1.008    0.179785   12.280675    1.691434
  33 H     1.0000    0     1.008    0.183993   12.289523   -1.669824
  34 C     6.0000    0    12.011    7.633932   -0.088996   -0.018993
  35 H     1.0000    0     1.008   -2.697399  -13.756856   -0.056233
  36 H     1.0000    0     1.008    2.662953   13.812753    0.017944
  37 C     6.0000    0    12.011   10.327076   -0.188731   -0.018416
  38 C     6.0000    0    12.011   11.601171   -2.535306   -0.021101
  39 C     6.0000    0    12.011   14.234413   -2.623837   -0.020532
  40 C     6.0000    0    12.011   15.647736   -0.387908   -0.017358
  41 C     6.0000    0    12.011   14.405666    1.947699   -0.014755
  42 C     6.0000    0    12.011   11.773251    2.056004   -0.015310
  43 H     1.0000    0     1.008   17.710695   -0.465570   -0.016951
  44 H     1.0000    0     1.008   15.498538    3.699708   -0.012339
  45 H     1.0000    0     1.008   10.495600   -4.276922   -0.023552
  46 H     1.0000    0     1.008   10.801281    3.875547   -0.013386
  47 H     1.0000    0     1.008   15.193579   -4.452463   -0.022569

--------------------------------
INTERNAL COORDINATES (ANGSTROEM)
--------------------------------
 C      0   0   0     0.000000000000     0.00000000     0.00000000
 C      1   0   0     5.648371411379     0.00000000     0.00000000
 C      1   2   0     1.412052410131     0.48399979     0.00000000
 C      3   1   2     1.439110925347   120.33393721   180.49901129
 C      4   3   1     1.386851603607   117.19774424   180.00093494
 C      5   4   3     1.418522545188   122.90246480     0.00000000
 C      6   5   4     1.428574851022   119.93867313     0.00000000
 C      7   6   5     1.387106522290   117.92445965     0.00000000
 H      5   4   3     1.090546010016   119.67285649   179.99941953
 H      8   7   6     1.089304504246   120.43191416   180.00317804
 C      4   3   1     1.513024414007   119.33438938     0.00000000
 H     11   4   3     1.106476934100   108.00616054    56.35971479
 H     11   4   3     1.106475356934   108.00509203   303.68145240
 C     11   4   3     1.530937224584   116.94238629   180.02130969
 H     14  11   4     1.105547139866   109.78966878   301.77629958
 H     14  11   4     1.105550548860   109.78719729    58.23252965
 C     14  11   4     1.533550540365   112.68135219   180.00388664
 H     17  14  11     1.105782371630   109.21402002   302.33994741
 H     17  14  11     1.105784538256   109.21482005    57.67690433
 C     17  14  11     1.530784472306   113.15404191   180.00798781
 H     20  17  14     1.103727587771   111.28363119    59.86999512
 H     20  17  14     1.103726420698   111.28327752   300.15101945
 C      7   6   5     1.516906313098   119.47159453   179.99285762
 H     23   7   6     1.105645097064   108.04668043   303.67913344
 H     23   7   6     1.105647474934   108.04543251    56.30873167
 C     23   7   6     1.530710492470   116.97761772   179.99278060
 H     26  23   7     1.105571852979   109.86582102   301.73035804
 H     26  23   7     1.105568216179   109.86850634    58.25205801
 C     26  23   7     1.533669768461   112.60758559   179.99214220
 H     29  26  23     1.105843882251   109.20423391   302.32314070
 H     29  26  23     1.105842417270   109.20335069    57.65507529
 C     29  26  23     1.530808990943   113.18492367   179.98964435
 H     32  29  26     1.103705872771   111.28060053    59.84267414
 H     32  29  26     1.103707040443   111.28102452   300.13341799
 C      2   1   3     1.224536319945   178.19073806     3.31639934
 H     20  17  14     1.102117558145   111.50148117   180.01088745
 H     32  29  26     1.102146891879   111.51372945   179.98760947
 C     35   2   6     1.426127577528   179.89990264   310.19601817
 C     38  35   2     1.412986201726   120.62099441    42.32709590
 C     39  38  35     1.394238967254   120.42572579   179.99983889
 C     40  39  38     1.399758125314   120.37123022     0.00000000
 C     41  40  39     1.399851587805   119.69928473     0.00000000
 C     42  41  40     1.394192569463   120.35987142     0.00000000
 H     41  40  39     1.092444106171   120.14088570   180.00092837
 H     42  41  40     1.092710465420   120.04093837   180.00217752
 H     39  38  35     1.091635284161   119.09265827     0.00000000
 H     43  42  41     1.091628016075   120.46637030   180.00332008
 H     40  39  38     1.092706400042   119.60383643   179.99794411

---------------------------
INTERNAL COORDINATES (A.U.)
---------------------------
 C      0   0   0     0.000000000000     0.00000000     0.00000000
 C      1   0   0    10.673875070176     0.00000000     0.00000000
 C      1   2   0     2.668392341891     0.48399979     0.00000000
 C      3   1   2     2.719525525239   120.33393721   180.49901129
 C      4   3   1     2.620769719207   117.19774424   180.00093494
 C      5   4   3     2.680619125199   122.90246480     0.00000000
 C      6   5   4     2.699615230238   119.93867313     0.00000000
 C      7   6   5     2.621251445705   117.92445965     0.00000000
 H      5   4   3     2.060833295371   119.67285649   179.99941953
 H      8   7   6     2.058487189472   120.43191416   180.00317804
 C      4   3   1     2.859201776411   119.33438938     0.00000000
 H     11   4   3     2.090938378949   108.00616054    56.35971479
 H     11   4   3     2.090935398538   108.00509203   303.68145240
 C     11   4   3     2.893052082689   116.94238629   180.02130969
 H     14  11   4     2.089181322486   109.78966878   301.77629958
 H     14  11   4     2.089187764551   109.78719729    58.23252965
 C     14  11   4     2.897990533818   112.68135219   180.00388664
 H     17  14  11     2.089625846098   109.21402002   302.33994741
 H     17  14  11     2.089629940428   109.21482005    57.67690433
 C     17  14  11     2.892763422717   113.15404191   180.00798781
 H     20  17  14     2.085742867341   111.28363119    59.86999512
 H     20  17  14     2.085740661892   111.28327752   300.15101945
 C      7   6   5     2.866537502572   119.47159453   179.99285762
 H     23   7   6     2.089366434764   108.04668043   303.67913344
 H     23   7   6     2.089370928286   108.04543251    56.30873167
 C     23   7   6     2.892623621088   116.97761772   179.99278060
 H     26  23   7     2.089228023501   109.86582102   301.73035804
 H     26  23   7     2.089221150947   109.86850634    58.25205801
 C     26  23   7     2.898215842266   112.60758559   179.99214220
 H     29  26  23     2.089742084327   109.20423391   302.32314070
 H     29  26  23     2.089739315914   109.20335069    57.65507529
 C     29  26  23     2.892809756227   113.18492367   179.98964435
 H     32  29  26     2.085701831937   111.28060053    59.84267414
 H     32  29  26     2.085704038518   111.28102452   300.13341799
 C      2   1   3     2.314038285735   178.19073806     3.31639934
 H     20  17  14     2.082700352280   111.50148117   180.01088745
 H     32  29  26     2.082755785004   111.51372945   179.98760947
 C     35   2   6     2.694990553561   179.89990264   310.19601817
 C     38  35   2     2.670156952272   120.62099441    42.32709590
 C     39  38  35     2.634729813351   120.42572579   179.99983889
 C     40  39  38     2.645159510574   120.37123022     0.00000000
 C     41  40  39     2.645336129086   119.69928473     0.00000000
 C     42  41  40     2.634642134233   120.35987142     0.00000000
 H     41  40  39     2.064420177280   120.14088570   180.00092837
 H     42  41  40     2.064923523314   120.04093837   180.00217752
 H     39  38  35     2.062891725190   119.09265827     0.00000000
 H     43  42  41     2.062877990497   120.46637030   180.00332008
 H     40  39  38     2.064915840862   119.60383643   179.99794411

---------------------
BASIS SET INFORMATION
---------------------
There are 2 groups of distinct atoms

 Group   1 Type C   : 10s5p1d contracted to 6s2p1d pattern {511111/41/1}
 Group   2 Type H   : 6s1p contracted to 4s1p pattern {3111/1}

Atom   0C    basis set group =>   1
Atom   1C    basis set group =>   1
Atom   2C    basis set group =>   1
Atom   3C    basis set group =>   1
Atom   4C    basis set group =>   1
Atom   5C    basis set group =>   1
Atom   6C    basis set group =>   1
Atom   7C    basis set group =>   1
Atom   8H    basis set group =>   2
Atom   9H    basis set group =>   2
Atom  10C    basis set group =>   1
Atom  11H    basis set group =>   2
Atom  12H    basis set group =>   2
Atom  13C    basis set group =>   1
Atom  14H    basis set group =>   2
Atom  15H    basis set group =>   2
Atom  16C    basis set group =>   1
Atom  17H    basis set group =>   2
Atom  18H    basis set group =>   2
Atom  19C    basis set group =>   1
Atom  20H    basis set group =>   2
Atom  21H    basis set group =>   2
Atom  22C    basis set group =>   1
Atom  23H    basis set group =>   2
Atom  24H    basis set group =>   2
Atom  25C    basis set group =>   1
Atom  26H    basis set group =>   2
Atom  27H    basis set group =>   2
Atom  28C    basis set group =>   1
Atom  29H    basis set group =>   2
Atom  30H    basis set group =>   2
Atom  31C    basis set group =>   1
Atom  32H    basis set group =>   2
Atom  33H    basis set group =>   2
Atom  34C    basis set group =>   1
Atom  35H    basis set group =>   2
Atom  36H    basis set group =>   2
Atom  37C    basis set group =>   1
Atom  38C    basis set group =>   1
Atom  39C    basis set group =>   1
Atom  40C    basis set group =>   1
Atom  41C    basis set group =>   1
Atom  42C    basis set group =>   1
Atom  43H    basis set group =>   2
Atom  44H    basis set group =>   2
Atom  45H    basis set group =>   2
Atom  46H    basis set group =>   2
Atom  47H    basis set group =>   2
---------------------------------
AUXILIARY/J BASIS SET INFORMATION
---------------------------------
There are 2 groups of distinct atoms

 Group   1 Type C   : 12s5p4d2f1g contracted to 6s4p3d1f1g pattern {711111/2111/211/2/1}
 Group   2 Type H   : 5s2p1d contracted to 3s1p1d pattern {311/2/1}

Atom   0C    basis set group =>   1
Atom   1C    basis set group =>   1
Atom   2C    basis set group =>   1
Atom   3C    basis set group =>   1
Atom   4C    basis set group =>   1
Atom   5C    basis set group =>   1
Atom   6C    basis set group =>   1
Atom   7C    basis set group =>   1
Atom   8H    basis set group =>   2
Atom   9H    basis set group =>   2
Atom  10C    basis set group =>   1
Atom  11H    basis set group =>   2
Atom  12H    basis set group =>   2
Atom  13C    basis set group =>   1
Atom  14H    basis set group =>   2
Atom  15H    basis set group =>   2
Atom  16C    basis set group =>   1
Atom  17H    basis set group =>   2
Atom  18H    basis set group =>   2
Atom  19C    basis set group =>   1
Atom  20H    basis set group =>   2
Atom  21H    basis set group =>   2
Atom  22C    basis set group =>   1
Atom  23H    basis set group =>   2
Atom  24H    basis set group =>   2
Atom  25C    basis set group =>   1
Atom  26H    basis set group =>   2
Atom  27H    basis set group =>   2
Atom  28C    basis set group =>   1
Atom  29H    basis set group =>   2
Atom  30H    basis set group =>   2
Atom  31C    basis set group =>   1
Atom  32H    basis set group =>   2
Atom  33H    basis set group =>   2
Atom  34C    basis set group =>   1
Atom  35H    basis set group =>   2
Atom  36H    basis set group =>   2
Atom  37C    basis set group =>   1
Atom  38C    basis set group =>   1
Atom  39C    basis set group =>   1
Atom  40C    basis set group =>   1
Atom  41C    basis set group =>   1
Atom  42C    basis set group =>   1
Atom  43H    basis set group =>   2
Atom  44H    basis set group =>   2
Atom  45H    basis set group =>   2
Atom  46H    basis set group =>   2
Atom  47H    basis set group =>   2

Checking for AutoStart:
The File: BDE.gbw exists
Trying to determine its content:
     ... Fine, the file contains calculation information
     ... Fine, the calculation information was read
     ... Fine, the file contains a basis set
     ... Fine, the basis set was read
     ... Fine, the file contains a geometry
     ... Fine, the geometry was read
     ... Fine, the file contains a set of orbitals
     ... Fine, the orbitals can be read
     => possible old guess file was deleted
     => GBW file was renamed to GES file
     => GES file is set as startup file
     => Guess is set to MORead
     ... now leaving AutoStart



           ************************************************************
           *        Program running with 16 parallel MPI-processes    *
           *              working on a common directory               *
           ************************************************************
------------------------------------------------------------------------------
                           ORCA GTO INTEGRAL CALCULATION
                           -- RI-GTO INTEGRALS CHOSEN --
------------------------------------------------------------------------------
------------------------------------------------------------------------------
                   ___                                                        
                  /   \      - P O W E R E D   B Y -                         
                 /     \                                                     
                 |  |  |   _    _      __       _____    __    __             
                 |  |  |  | |  | |    /  \     |  _  \  |  |  /  |          
                  \  \/   | |  | |   /    \    | | | |  |  | /  /          
                 / \  \   | |__| |  /  /\  \   | |_| |  |  |/  /          
                |  |  |   |  __  | /  /__\  \  |    /   |      \           
                |  |  |   | |  | | |   __   |  |    \   |  |\   \          
                \     /   | |  | | |  |  |  |  | |\  \  |  | \   \       
                 \___/    |_|  |_| |__|  |__|  |_| \__\ |__|  \__/        
                                                                              
                      - O R C A' S   B I G   F R I E N D -                    
                                      &                                       
                       - I N T E G R A L  F E E D E R -                       
                                                                              
 v1 FN, 2020, v2 2021                                                         
------------------------------------------------------------------------------


Reading SHARK input file BDE.SHARKINP.tmp ... ok
----------------------
SHARK INTEGRAL PACKAGE
----------------------

Number of atoms                             ...     48
Number of basis functions                   ...    566
Number of shells                            ...    332
Maximum angular momentum                    ...      2
Integral batch strategy                     ... SHARK/LIBINT Hybrid
RI-J (if used) integral strategy            ... SPLIT-RIJ (Revised 2003 algorithm where possible)
Printlevel                                  ...      1
Contraction scheme used                     ... SEGMENTED contraction
Coulomb Range Separation                    ... NOT USED
Exchange Range Separation                   ... NOT USED
Finite Nucleus Model                        ... NOT USED
Auxiliary Coulomb fitting basis             ... AVAILABLE
   # of basis functions in Aux-J            ...   1402
   # of shells in Aux-J                     ...    470
   Maximum angular momentum in Aux-J        ...      4
Auxiliary J/K fitting basis                 ... NOT available
Auxiliary Correlation fitting basis         ... NOT available
Auxiliary 'external' fitting basis          ... NOT available
Integral threshold                          ...     1.000000e-10
Primitive cut-off                           ...     1.000000e-11
Primitive pair pre-selection threshold      ...     1.000000e-11

Calculating pre-screening integrals         ... done (  0.0 sec) Dimension = 332
Organizing shell pair data                  ... done (  0.2 sec)
Shell pair information
Total number of shell pairs                 ...     55278
Shell pairs after pre-screening             ...     28174
Total number of primitive shell pairs       ...    148139
Primitive shell pairs kept                  ...     53071
          la=0 lb=0:  12956 shell pairs
          la=1 lb=0:   9697 shell pairs
          la=1 lb=1:   1735 shell pairs
          la=2 lb=0:   2633 shell pairs
          la=2 lb=1:   1001 shell pairs
          la=2 lb=2:    152 shell pairs

Calculating one electron integrals          ... done (  0.0 sec)
Calculating RI/J V-Matrix + Cholesky decomp.... done (  0.2 sec)
Calculating Nuclear repulsion               ... done (  0.0 sec) ENN=   1629.670574765028 Eh

SHARK setup successfully completed in   0.8 seconds

Maximum memory used throughout the entire GTOINT-calculation: 39.2 MB


           ************************************************************
           *        Program running with 16 parallel MPI-processes    *
           *              working on a common directory               *
           ************************************************************
-------------------------------------------------------------------------------
                                 ORCA SCF
-------------------------------------------------------------------------------

------------
SCF SETTINGS
------------
Hamiltonian:
 Density Functional     Method          .... DFT(GTOs)
 Exchange Functional    Exchange        .... B88
   X-Alpha parameter    XAlpha          ....  0.666667
   Becke's b parameter  XBeta           ....  0.004200
 Correlation Functional Correlation     .... LYP
 LDA part of GGA corr.  LDAOpt          .... VWN-5
 Gradients option       PostSCFGGA      .... off
 Hybrid DFT is turned on
   Fraction HF Exchange ScalHFX         ....  0.200000
   Scaling of DF-GGA-X  ScalDFX         ....  0.720000
   Scaling of DF-GGA-C  ScalDFC         ....  0.810000
   Scaling of DF-LDA-C  ScalLDAC        ....  1.000000
   Perturbative correction              ....  0.000000
   Density functional embedding theory  .... OFF
   NL short-range parameter             ....  4.800000
 RI-approximation to the Coulomb term is turned on
   Number of AuxJ basis functions       .... 1402
   RIJ-COSX (HFX calculated with COS-X)).... on


General Settings:
 Integral files         IntName         .... BDE
 Hartree-Fock type      HFTyp           .... UHF
 Total Charge           Charge          ....    0
 Multiplicity           Mult            ....    4
 Number of Electrons    NEL             ....  163
 Basis Dimension        Dim             ....  566
 Nuclear Repulsion      ENuc            ....   1629.6705747650 Eh

Convergence Acceleration:
 DIIS                   CNVDIIS         .... on
   Start iteration      DIISMaxIt       ....    12
   Startup error        DIISStart       ....  0.200000
   # of expansion vecs  DIISMaxEq       ....     5
   Bias factor          DIISBfac        ....   1.050
   Max. coefficient     DIISMaxC        ....  10.000
 Trust-Rad. Augm. Hess. CNVTRAH         .... auto
   Auto Start mean grad. ratio tolernc. ....  1.125000
   Auto Start start iteration           ....     1
   Auto Start num. interpolation iter.  ....    10
   Max. Number of Micro iterations      ....    16
   Max. Number of Macro iterations      .... Maxiter - #DIIS iter
   Number of Davidson start vectors     ....     2
   Converg. threshold I  (grad. norm)   ....   5.000e-05
   Converg. threshold II (energy diff.) ....   1.000e-06
   Grad. Scal. Fac. for Micro threshold ....   0.100
   Minimum threshold for Micro iter.    ....   0.010
   NR start threshold (gradient norm)   ....   0.001
   Initial trust radius                 ....   0.400
   Minimum AH scaling param. (alpha)    ....   1.000
   Maximum AH scaling param. (alpha)    .... 1000.000
   Orbital update algorithm             .... Taylor
   White noise on init. David. guess    .... on
   Maximum white noise                  ....   0.010
   Quad. conv. algorithm                .... NR
 SOSCF                  CNVSOSCF        .... off
 Level Shifting         CNVShift        .... on
   Level shift para.    LevelShift      ....    0.2500
   Turn off err/grad.   ShiftErr        ....    0.0010
 Zerner damping         CNVZerner       .... off
 Static damping         CNVDamp         .... on
   Fraction old density DampFac         ....    0.7000
   Max. Damping (<1)    DampMax         ....    0.9800
   Min. Damping (>=0)   DampMin         ....    0.0000
   Turn off err/grad.   DampErr         ....    0.1000
 Fernandez-Rico         CNVRico         .... off

SCF Procedure:
 Maximum # iterations   MaxIter         ....   125
 SCF integral mode      SCFMode         .... Direct
   Integral package                     .... SHARK and LIBINT hybrid scheme
 Reset frequency        DirectResetFreq ....    20
 Integral Threshold     Thresh          ....  1.000e-10 Eh
 Primitive CutOff       TCut            ....  1.000e-11 Eh

Convergence Tolerance:
 Convergence Check Mode ConvCheckMode   .... Total+1el-Energy
 Convergence forced     ConvForced      .... 0
 Energy Change          TolE            ....  1.000e-06 Eh
 1-El. energy change                    ....  1.000e-03 Eh
 DIIS Error             TolErr          ....  1.000e-06


Diagonalization of the overlap matrix:
Smallest eigenvalue                        ... 7.436e-05
Time for diagonalization                   ...    0.081 sec
Threshold for overlap eigenvalues          ... 1.000e-08
Number of eigenvalues below threshold      ... 0
Time for construction of square roots      ...    0.058 sec
Total time needed                          ...    0.141 sec

---------------------
INITIAL GUESS: MOREAD
---------------------
Guess MOs are being read from file: BDE.ges
Input Geometry matches current geometry (good)
Input basis set matches current basis set (good)
MOs were renormalized
MOs were reorthogonalized (Cholesky)
                      ------------------
                      INITIAL GUESS DONE (   0.3 sec)
                      ------------------
-------------------
DFT GRID GENERATION
-------------------

General Integration Accuracy     IntAcc      ... 4.388
Radial Grid Type                 RadialGrid  ... OptM3 with GC (2021)
Angular Grid (max. ang.)         AngularGrid ... 4 (Lebedev-302)
Angular grid pruning method      GridPruning ... 4 (adaptive)
Weight generation scheme         WeightScheme... Becke
Basis function cutoff            BFCut       ... 1.0000e-10
Integration weight cutoff        WCut        ... 1.0000e-14
Angular grids for H and He will be reduced by one unit
Partially contracted basis set               ... off
Rotationally invariant grid construction     ... off

Total number of grid points                  ...   217082
Total number of batches                      ...     3416
Average number of points per batch           ...       63
Average number of grid points per atom       ...     4523
Time for grid setup =    1.319 sec

--------------------
COSX GRID GENERATION
--------------------

GRIDX 1
-------
General Integration Accuracy     IntAcc      ... 3.816
Radial Grid Type                 RadialGrid  ... OptM3 with GC (2021)
Angular Grid (max. ang.)         AngularGrid ... 1 (Lebedev-50)
Angular grid pruning method      GridPruning ... 4 (adaptive)
Weight generation scheme         WeightScheme... Becke
Basis function cutoff            BFCut       ... 1.0000e-10
Integration weight cutoff        WCut        ... 1.0000e-14
Angular grids for H and He will be reduced by one unit
Partially contracted basis set               ... on
Rotationally invariant grid construction     ... off

Total number of grid points                  ...    27656
Total number of batches                      ...      458
Average number of points per batch           ...       60
Average number of grid points per atom       ...      576
UseSFitting                                  ... on

GRIDX 2
-------
General Integration Accuracy     IntAcc      ... 4.020
Radial Grid Type                 RadialGrid  ... OptM3 with GC (2021)
Angular Grid (max. ang.)         AngularGrid ... 2 (Lebedev-110)
Angular grid pruning method      GridPruning ... 4 (adaptive)
Weight generation scheme         WeightScheme... Becke
Basis function cutoff            BFCut       ... 1.0000e-10
Integration weight cutoff        WCut        ... 1.0000e-14
Angular grids for H and He will be reduced by one unit
Partially contracted basis set               ... on
Rotationally invariant grid construction     ... off

Total number of grid points                  ...    58857
Total number of batches                      ...      944
Average number of points per batch           ...       62
Average number of grid points per atom       ...     1226
UseSFitting                                  ... on

GRIDX 3
-------
General Integration Accuracy     IntAcc      ... 4.338
Radial Grid Type                 RadialGrid  ... OptM3 with GC (2021)
Angular Grid (max. ang.)         AngularGrid ... 3 (Lebedev-194)
Angular grid pruning method      GridPruning ... 4 (adaptive)
Weight generation scheme         WeightScheme... Becke
Basis function cutoff            BFCut       ... 1.0000e-10
Integration weight cutoff        WCut        ... 1.0000e-14
Angular grids for H and He will be reduced by one unit
Partially contracted basis set               ... on
Rotationally invariant grid construction     ... off

Total number of grid points                  ...   128750
Total number of batches                      ...     2038
Average number of points per batch           ...       63
Average number of grid points per atom       ...     2682
UseSFitting                                  ... on

Time for X-Grid setup             =    2.279 sec

--------------
SCF ITERATIONS
--------------
ITER       Energy         Delta-E        Max-DP      RMS-DP      [F,P]     Damp
               ***  Starting incremental Fock matrix formation  ***
  0   -890.6097685116   0.000000000000 0.20105583  0.00113127  0.0631762 0.7000
  1   -890.7048576852  -0.095089173548 0.06323094  0.00037059  0.0194167 0.7000
                               ***Turning on DIIS***
  2   -890.7066649581  -0.001807272921 0.28626228  0.00163956  0.0404597 0.0000
  3   -890.7174249252  -0.010759967111 0.10883638  0.00061170  0.0409067 0.0000
  4   -890.7426384273  -0.025213502097 0.04777675  0.00029947  0.0298728 0.0000
  5   -890.7522034926  -0.009565065256 0.05405719  0.00034104  0.0230280 0.0000
  6   -890.7656635100  -0.013460017397 0.03224698  0.00018941  0.0131826 0.0000
  7   -890.7699302559  -0.004266745913 0.01690350  0.00009693  0.0066003 0.0000
  8   -890.7715054895  -0.001575233642 0.00728138  0.00004442  0.0037098 0.0000
  9   -890.7719979134  -0.000492423924 0.00410539  0.00002487  0.0021268 0.0000
 10   -890.7721799803  -0.000182066915 0.00231198  0.00001770  0.0011335 0.0000
 11   -890.7722590499  -0.000079069521 0.00467476  0.00002600  0.0008558 0.0000
               *** Restarting incremental Fock matrix formation ***
                                   *** Resetting DIIS ***
 12   -890.7723034586  -0.000044408706 0.00187090  0.00000998  0.0002438 0.0000
 13   -890.7723005632   0.000002895337 0.00047551  0.00000440  0.0004572 0.0000
 14   -890.7723054939  -0.000004930619 0.00017132  0.00000117  0.0000968 0.0000
 15   -890.7723055799  -0.000000085995 0.00017061  0.00000094  0.0001155 0.0000
                 **** Energy Check signals convergence ****

               *****************************************************
               *                     SUCCESS                       *
               *           SCF CONVERGED AFTER  16 CYCLES          *
               *****************************************************

Old exchange energy                            =    -25.582431964 Eh
New exchange energy                            =    -25.582416687 Eh
Exchange energy change after final integration =      0.000015277 Eh
Total energy after final integration           =   -890.772290402 Eh
Final COS-X integration done in                =     9.635 sec

----------------
TOTAL SCF ENERGY
----------------

Total Energy       :         -890.77229040 Eh          -24239.14632 eV

Components:
Nuclear Repulsion  :         1629.67057477 Eh           44345.59083 eV
Electronic Energy  :        -2520.44286517 Eh          -68584.73714 eV
One Electron Energy:        -4437.49019820 Eh         -120750.24712 eV
Two Electron Energy:         1917.04733303 Eh           52165.50998 eV
Max COSX asymmetry :            0.00000337 Eh               0.00009 eV

Virial components:
Potential Energy   :        -1774.55387088 Eh          -48288.06574 eV
Kinetic Energy     :          883.78158047 Eh           24048.91943 eV
Virial Ratio       :            2.00791000


DFT components:
N(Alpha)           :       83.000176154065 electrons
N(Beta)            :       80.000179659856 electrons
N(Total)           :      163.000355813920 electrons
E(X)               :     -101.462531321384 Eh       
E(C)               :       -6.302295821790 Eh       
E(XC)              :     -107.764827143174 Eh       
DFET-embed. en.    :        0.000000000000 Eh       

---------------
SCF CONVERGENCE
---------------

  Last Energy change         ...   -9.9351e-08  Tolerance :   1.0000e-06
  Last MAX-Density change    ...    0.0000e+00  Tolerance :   1.0000e-05
  Last RMS-Density change    ...    0.0000e+00  Tolerance :   1.0000e-06
  Last DIIS Error            ...    5.5364e-05  Tolerance :   1.0000e-06

             **** THE GBW FILE WAS UPDATED (BDE.gbw) ****
             **** DENSITY BDE.scfp WAS UPDATED ****
             **** ENERGY FILE WAS UPDATED (BDE.en.tmp) ****
----------------------
UHF SPIN CONTAMINATION
----------------------

Warning: in a DFT calculation there is little theoretical justification to 
         calculate <S**2> as in Hartree-Fock theory. We will do it anyways
         but you should keep in mind that the values have only limited relevance

Expectation value of <S**2>     :     3.803002
Ideal value S*(S+1) for S=1.5   :     3.750000
Deviation                       :     0.053002

             **** THE GBW FILE WAS UPDATED (BDE.gbw) ****
             **** DENSITY BDE.scfp WAS UPDATED ****
----------------
ORBITAL ENERGIES
----------------
                 SPIN UP ORBITALS
  NO   OCC          E(Eh)            E(eV) 
   0   1.0000     -10.246867      -278.8314 
   1   1.0000     -10.232513      -278.4408 
   2   1.0000     -10.226978      -278.2902 
   3   1.0000     -10.221801      -278.1493 
   4   1.0000     -10.212468      -277.8954 
   5   1.0000     -10.209075      -277.8030 
   6   1.0000     -10.205203      -277.6977 
   7   1.0000     -10.205070      -277.6941 
   8   1.0000     -10.204828      -277.6875 
   9   1.0000     -10.203778      -277.6589 
  10   1.0000     -10.203618      -277.6546 
  11   1.0000     -10.202565      -277.6259 
  12   1.0000     -10.200267      -277.5634 
  13   1.0000     -10.199582      -277.5447 
  14   1.0000     -10.197825      -277.4969 
  15   1.0000     -10.189787      -277.2782 
  16   1.0000     -10.187989      -277.2293 
  17   1.0000     -10.183608      -277.1101 
  18   1.0000     -10.183099      -277.0962 
  19   1.0000     -10.182876      -277.0901 
  20   1.0000     -10.182537      -277.0809 
  21   1.0000     -10.173784      -276.8427 
  22   1.0000     -10.173471      -276.8342 
  23   1.0000      -0.874741       -23.8029 
  24   1.0000      -0.863331       -23.4924 
  25   1.0000      -0.818433       -22.2707 
  26   1.0000      -0.797254       -21.6944 
  27   1.0000      -0.793847       -21.6017 
  28   1.0000      -0.778052       -21.1719 
  29   1.0000      -0.765260       -20.8238 
  30   1.0000      -0.751336       -20.4449 
  31   1.0000      -0.735606       -20.0169 
  32   1.0000      -0.724314       -19.7096 
  33   1.0000      -0.700164       -19.0524 
  34   1.0000      -0.674629       -18.3576 
  35   1.0000      -0.652367       -17.7518 
  36   1.0000      -0.626197       -17.0397 
  37   1.0000      -0.615615       -16.7517 
  38   1.0000      -0.609519       -16.5858 
  39   1.0000      -0.596311       -16.2264 
  40   1.0000      -0.579043       -15.7566 
  41   1.0000      -0.564604       -15.3636 
  42   1.0000      -0.554341       -15.0844 
  43   1.0000      -0.535613       -14.5748 
  44   1.0000      -0.507760       -13.8169 
  45   1.0000      -0.481013       -13.0890 
  46   1.0000      -0.478046       -13.0083 
  47   1.0000      -0.471602       -12.8329 
  48   1.0000      -0.469894       -12.7865 
  49   1.0000      -0.457004       -12.4357 
  50   1.0000      -0.437927       -11.9166 
  51   1.0000      -0.436993       -11.8912 
  52   1.0000      -0.425541       -11.5796 
  53   1.0000      -0.425303       -11.5731 
  54   1.0000      -0.424575       -11.5533 
  55   1.0000      -0.422130       -11.4867 
  56   1.0000      -0.417516       -11.3612 
  57   1.0000      -0.412170       -11.2157 
  58   1.0000      -0.409968       -11.1558 
  59   1.0000      -0.384917       -10.4741 
  60   1.0000      -0.380743       -10.3605 
  61   1.0000      -0.377475       -10.2716 
  62   1.0000      -0.370033       -10.0691 
  63   1.0000      -0.365240        -9.9387 
  64   1.0000      -0.361991        -9.8503 
  65   1.0000      -0.358868        -9.7653 
  66   1.0000      -0.351698        -9.5702 
  67   1.0000      -0.345869        -9.4116 
  68   1.0000      -0.343338        -9.3427 
  69   1.0000      -0.332489        -9.0475 
  70   1.0000      -0.330556        -8.9949 
  71   1.0000      -0.326437        -8.8828 
  72   1.0000      -0.325228        -8.8499 
  73   1.0000      -0.322326        -8.7709 
  74   1.0000      -0.320893        -8.7320 
  75   1.0000      -0.320775        -8.7287 
  76   1.0000      -0.291651        -7.9362 
  77   1.0000      -0.268608        -7.3092 
  78   1.0000      -0.259820        -7.0701 
  79   1.0000      -0.250006        -6.8030 
  80   1.0000      -0.238292        -6.4843 
  81   1.0000      -0.226248        -6.1565 
  82   1.0000      -0.181656        -4.9431 
  83   0.0000      -0.044160        -1.2017 
  84   0.0000      -0.014770        -0.4019 
  85   0.0000      -0.005121        -0.1393 
  86   0.0000       0.009268         0.2522 
  87   0.0000       0.015002         0.4082 
  88   0.0000       0.021903         0.5960 
  89   0.0000       0.022764         0.6194 
  90   0.0000       0.031148         0.8476 
  91   0.0000       0.034554         0.9403 
  92   0.0000       0.036441         0.9916 
  93   0.0000       0.044631         1.2145 
  94   0.0000       0.046995         1.2788 
  95   0.0000       0.055587         1.5126 
  96   0.0000       0.059659         1.6234 
  97   0.0000       0.066162         1.8004 
  98   0.0000       0.071668         1.9502 
  99   0.0000       0.075287         2.0487 
 100   0.0000       0.083929         2.2838 
 101   0.0000       0.090365         2.4590 
 102   0.0000       0.094119         2.5611 
 103   0.0000       0.097760         2.6602 
 104   0.0000       0.102093         2.7781 
 105   0.0000       0.114908         3.1268 
 106   0.0000       0.126109         3.4316 
 107   0.0000       0.128644         3.5006 
 108   0.0000       0.138885         3.7792 
 109   0.0000       0.149305         4.0628 
 110   0.0000       0.152062         4.1378 
 111   0.0000       0.158696         4.3183 
 112   0.0000       0.171302         4.6614 
 113   0.0000       0.175689         4.7807 
 114   0.0000       0.176654         4.8070 
 115   0.0000       0.182493         4.9659 
 116   0.0000       0.188815         5.1379 
 117   0.0000       0.190407         5.1812 
 118   0.0000       0.195052         5.3076 
 119   0.0000       0.196704         5.3526 
 120   0.0000       0.200148         5.4463 
 121   0.0000       0.203185         5.5290 
 122   0.0000       0.208498         5.6735 
 123   0.0000       0.211573         5.7572 
 124   0.0000       0.213925         5.8212 
 125   0.0000       0.214856         5.8465 
 126   0.0000       0.220416         5.9978 
 127   0.0000       0.223868         6.0917 
 128   0.0000       0.232780         6.3343 
 129   0.0000       0.234375         6.3777 
 130   0.0000       0.242193         6.5904 
 131   0.0000       0.246395         6.7047 
 132   0.0000       0.247529         6.7356 
 133   0.0000       0.252182         6.8622 
 134   0.0000       0.253719         6.9041 
 135   0.0000       0.255627         6.9560 
 136   0.0000       0.263614         7.1733 
 137   0.0000       0.269529         7.3342 
 138   0.0000       0.271992         7.4013 
 139   0.0000       0.274132         7.4595 
 140   0.0000       0.277515         7.5516 
 141   0.0000       0.281317         7.6550 
 142   0.0000       0.283409         7.7120 
 143   0.0000       0.288402         7.8478 
 144   0.0000       0.291414         7.9298 
 145   0.0000       0.293262         7.9801 
 146   0.0000       0.293405         7.9840 
 147   0.0000       0.299935         8.1616 
 148   0.0000       0.300798         8.1851 
 149   0.0000       0.303012         8.2454 
 150   0.0000       0.306152         8.3308 
 151   0.0000       0.310437         8.4474 
 152   0.0000       0.312399         8.5008 
 153   0.0000       0.315664         8.5896 
 154   0.0000       0.319264         8.6876 
 155   0.0000       0.319832         8.7031 
 156   0.0000       0.323740         8.8094 
 157   0.0000       0.328384         8.9358 
 158   0.0000       0.333984         9.0882 
 159   0.0000       0.341486         9.2923 
 160   0.0000       0.342979         9.3329 
 161   0.0000       0.344141         9.3646 
 162   0.0000       0.346242         9.4217 
 163   0.0000       0.356529         9.7017 
 164   0.0000       0.356871         9.7109 
 165   0.0000       0.359214         9.7747 
 166   0.0000       0.366099         9.9621 
 167   0.0000       0.372592        10.1388 
 168   0.0000       0.375408        10.2154 
 169   0.0000       0.376182        10.2364 
 170   0.0000       0.387837        10.5536 
 171   0.0000       0.388880        10.5820 
 172   0.0000       0.396340        10.7849 
 173   0.0000       0.397257        10.8099 
 174   0.0000       0.411552        11.1989 
 175   0.0000       0.415616        11.3095 
 176   0.0000       0.417665        11.3652 
 177   0.0000       0.419908        11.4263 
 178   0.0000       0.424274        11.5451 
 179   0.0000       0.431590        11.7442 
 180   0.0000       0.434625        11.8268 
 181   0.0000       0.435969        11.8633 
 182   0.0000       0.436332        11.8732 
 183   0.0000       0.443560        12.0699 
 184   0.0000       0.448870        12.2144 
 185   0.0000       0.456377        12.4186 
 186   0.0000       0.460174        12.5220 
 187   0.0000       0.466755        12.7011 
 188   0.0000       0.467599        12.7240 
 189   0.0000       0.473813        12.8931 
 190   0.0000       0.477355        12.9895 
 191   0.0000       0.481759        13.1093 
 192   0.0000       0.484137        13.1740 
 193   0.0000       0.487313        13.2605 
 194   0.0000       0.491293        13.3688 
 195   0.0000       0.503840        13.7102 
 196   0.0000       0.507234        13.8025 
 197   0.0000       0.512209        13.9379 
 198   0.0000       0.517990        14.0952 
 199   0.0000       0.524316        14.2674 
 200   0.0000       0.530980        14.4487 
 201   0.0000       0.540836        14.7169 
 202   0.0000       0.542955        14.7746 
 203   0.0000       0.551639        15.0109 
 204   0.0000       0.558094        15.1865 
 205   0.0000       0.560138        15.2421 
 206   0.0000       0.561285        15.2733 
 207   0.0000       0.567085        15.4312 
 208   0.0000       0.577386        15.7115 
 209   0.0000       0.585521        15.9328 
 210   0.0000       0.592216        16.1150 
 211   0.0000       0.605680        16.4814 
 212   0.0000       0.607533        16.5318 
 213   0.0000       0.620760        16.8917 
 214   0.0000       0.637327        17.3426 
 215   0.0000       0.640782        17.4366 
 216   0.0000       0.658258        17.9121 
 217   0.0000       0.660201        17.9650 
 218   0.0000       0.666528        18.1372 
 219   0.0000       0.673101        18.3160 
 220   0.0000       0.680338        18.5129 
 221   0.0000       0.683111        18.5884 
 222   0.0000       0.698049        18.9949 
 223   0.0000       0.707457        19.2509 
 224   0.0000       0.727679        19.8012 
 225   0.0000       0.754246        20.5241 
 226   0.0000       0.765312        20.8252 
 227   0.0000       0.768013        20.8987 
 228   0.0000       0.776343        21.1254 
 229   0.0000       0.776574        21.1317 
 230   0.0000       0.797642        21.7049 
 231   0.0000       0.815050        22.1787 
 232   0.0000       0.823146        22.3989 
 233   0.0000       0.837495        22.7894 
 234   0.0000       0.843156        22.9434 
 235   0.0000       0.844270        22.9737 
 236   0.0000       0.848083        23.0775 
 237   0.0000       0.851638        23.1742 
 238   0.0000       0.865479        23.5509 
 239   0.0000       0.865889        23.5620 
 240   0.0000       0.866441        23.5771 
 241   0.0000       0.879872        23.9425 
 242   0.0000       0.893228        24.3060 
 243   0.0000       0.897343        24.4179 
 244   0.0000       0.901734        24.5374 
 245   0.0000       0.902013        24.5450 
 246   0.0000       0.911483        24.8027 
 247   0.0000       0.914855        24.8945 
 248   0.0000       0.917941        24.9784 
 249   0.0000       0.920078        25.0366 
 250   0.0000       0.926766        25.2186 
 251   0.0000       0.931609        25.3504 
 252   0.0000       0.934426        25.4270 
 253   0.0000       0.935071        25.4446 
 254   0.0000       0.940926        25.6039 
 255   0.0000       0.946759        25.7626 
 256   0.0000       0.956822        26.0364 
 257   0.0000       0.960966        26.1492 
 258   0.0000       0.971705        26.4414 
 259   0.0000       0.974267        26.5112 
 260   0.0000       0.979321        26.6487 
 261   0.0000       0.979831        26.6626 
 262   0.0000       0.986765        26.8512 
 263   0.0000       0.991854        26.9897 
 264   0.0000       0.994219        27.0541 
 265   0.0000       0.998738        27.1770 
 266   0.0000       0.999777        27.2053 
 267   0.0000       1.007811        27.4239 
 268   0.0000       1.014756        27.6129 
 269   0.0000       1.022816        27.8322 
 270   0.0000       1.026487        27.9321 
 271   0.0000       1.026848        27.9419 
 272   0.0000       1.030527        28.0421 
 273   0.0000       1.040665        28.3179 
 274   0.0000       1.045372        28.4460 
 275   0.0000       1.057662        28.7804 
 276   0.0000       1.058508        28.8035 
 277   0.0000       1.067170        29.0392 
 278   0.0000       1.071133        29.1470 
 279   0.0000       1.095524        29.8107 
 280   0.0000       1.097787        29.8723 
 281   0.0000       1.102331        29.9960 
 282   0.0000       1.104905        30.0660 
 283   0.0000       1.111470        30.2446 
 284   0.0000       1.117610        30.4117 
 285   0.0000       1.125907        30.6375 
 286   0.0000       1.144789        31.1513 
 287   0.0000       1.152725        31.3672 
 288   0.0000       1.164593        31.6902 
 289   0.0000       1.172902        31.9163 
 290   0.0000       1.179600        32.0985 
 291   0.0000       1.179948        32.1080 
 292   0.0000       1.181712        32.1560 
 293   0.0000       1.186000        32.2727 
 294   0.0000       1.204739        32.7826 
 295   0.0000       1.205605        32.8062 
 296   0.0000       1.211690        32.9718 
 297   0.0000       1.212523        32.9944 
 298   0.0000       1.242391        33.8072 
 299   0.0000       1.246139        33.9092 
 300   0.0000       1.249477        34.0000 
 301   0.0000       1.264127        34.3986 
 302   0.0000       1.276959        34.7478 
 303   0.0000       1.284209        34.9451 
 304   0.0000       1.294949        35.2374 
 305   0.0000       1.307445        35.5774 
 306   0.0000       1.314728        35.7756 
 307   0.0000       1.318178        35.8694 
 308   0.0000       1.325732        36.0750 
 309   0.0000       1.335720        36.3468 
 310   0.0000       1.338395        36.4196 
 311   0.0000       1.342273        36.5251 
 312   0.0000       1.359781        37.0015 
 313   0.0000       1.369242        37.2590 
 314   0.0000       1.378203        37.5028 
 315   0.0000       1.388068        37.7712 
 316   0.0000       1.395732        37.9798 
 317   0.0000       1.414569        38.4924 
 318   0.0000       1.419495        38.6264 
 319   0.0000       1.427064        38.8324 
 320   0.0000       1.428130        38.8614 
 321   0.0000       1.429192        38.8903 
 322   0.0000       1.441553        39.2266 
 323   0.0000       1.448081        39.4043 
 324   0.0000       1.451019        39.4842 
 325   0.0000       1.451539        39.4984 
 326   0.0000       1.457690        39.6657 
 327   0.0000       1.476498        40.1776 
 328   0.0000       1.486401        40.4470 
 329   0.0000       1.491876        40.5960 
 330   0.0000       1.501032        40.8452 
 331   0.0000       1.506495        40.9938 
 332   0.0000       1.513042        41.1720 
 333   0.0000       1.516589        41.2685 
 334   0.0000       1.522757        41.4363 
 335   0.0000       1.545582        42.0574 
 336   0.0000       1.551122        42.2082 
 337   0.0000       1.557752        42.3886 
 338   0.0000       1.560997        42.4769 
 339   0.0000       1.561234        42.4833 
 340   0.0000       1.567330        42.6492 
 341   0.0000       1.582811        43.0705 
 342   0.0000       1.584324        43.1116 
 343   0.0000       1.592362        43.3304 
 344   0.0000       1.600955        43.5642 
 345   0.0000       1.605091        43.6768 
 346   0.0000       1.605294        43.6823 
 347   0.0000       1.615504        43.9601 
 348   0.0000       1.617105        44.0037 
 349   0.0000       1.621391        44.1203 
 350   0.0000       1.627285        44.2807 
 351   0.0000       1.628482        44.3132 
 352   0.0000       1.638809        44.5943 
 353   0.0000       1.639000        44.5994 
 354   0.0000       1.646070        44.7919 
 355   0.0000       1.657623        45.1062 
 356   0.0000       1.664960        45.3059 
 357   0.0000       1.673771        45.5456 
 358   0.0000       1.674629        45.5690 
 359   0.0000       1.683540        45.8114 
 360   0.0000       1.689198        45.9654 
 361   0.0000       1.691059        46.0161 
 362   0.0000       1.697491        46.1911 
 363   0.0000       1.706130        46.4262 
 364   0.0000       1.709634        46.5215 
 365   0.0000       1.721522        46.8450 
 366   0.0000       1.722489        46.8713 
 367   0.0000       1.726671        46.9851 
 368   0.0000       1.735881        47.2357 
 369   0.0000       1.747272        47.5457 
 370   0.0000       1.757962        47.8366 
 371   0.0000       1.760897        47.9164 
 372   0.0000       1.767855        48.1058 
 373   0.0000       1.771884        48.2154 
 374   0.0000       1.776633        48.3447 
 375   0.0000       1.777249        48.3614 
 376   0.0000       1.788951        48.6798 
 377   0.0000       1.789404        48.6922 
 378   0.0000       1.794832        48.8399 
 379   0.0000       1.796194        48.8769 
 380   0.0000       1.813179        49.3391 
 381   0.0000       1.814984        49.3882 
 382   0.0000       1.827643        49.7327 
 383   0.0000       1.839391        50.0524 
 384   0.0000       1.840622        50.0859 
 385   0.0000       1.856086        50.5067 
 386   0.0000       1.856599        50.5206 
 387   0.0000       1.860794        50.6348 
 388   0.0000       1.888395        51.3858 
 389   0.0000       1.903862        51.8067 
 390   0.0000       1.914137        52.0863 
 391   0.0000       1.924677        52.3731 
 392   0.0000       1.931008        52.5454 
 393   0.0000       1.944743        52.9192 
 394   0.0000       1.951184        53.0944 
 395   0.0000       1.953100        53.1466 
 396   0.0000       1.964139        53.4470 
 397   0.0000       1.974790        53.7368 
 398   0.0000       1.986518        54.0559 
 399   0.0000       2.024662        55.0939 
 400   0.0000       2.038975        55.4833 
 401   0.0000       2.042011        55.5660 
 402   0.0000       2.045232        55.6536 
 403   0.0000       2.048793        55.7505 
 404   0.0000       2.069190        56.3055 
 405   0.0000       2.083077        56.6834 
 406   0.0000       2.091517        56.9131 
 407   0.0000       2.111054        57.4447 
 408   0.0000       2.129126        57.9365 
 409   0.0000       2.140008        58.2326 
 410   0.0000       2.144306        58.3495 
 411   0.0000       2.163340        58.8675 
 412   0.0000       2.164618        58.9022 
 413   0.0000       2.195751        59.7494 
 414   0.0000       2.216147        60.3044 
 415   0.0000       2.224005        60.5183 
 416   0.0000       2.235293        60.8254 
 417   0.0000       2.238179        60.9039 
 418   0.0000       2.252388        61.2906 
 419   0.0000       2.252731        61.2999 
 420   0.0000       2.259525        61.4848 
 421   0.0000       2.267680        61.7067 
 422   0.0000       2.303401        62.6787 
 423   0.0000       2.310900        62.8828 
 424   0.0000       2.315194        62.9996 
 425   0.0000       2.322610        63.2014 
 426   0.0000       2.322627        63.2019 
 427   0.0000       2.323687        63.2307 
 428   0.0000       2.348458        63.9048 
 429   0.0000       2.352376        64.0114 
 430   0.0000       2.395046        65.1725 
 431   0.0000       2.400690        65.3261 
 432   0.0000       2.411442        65.6187 
 433   0.0000       2.414636        65.7056 
 434   0.0000       2.417717        65.7894 
 435   0.0000       2.419492        65.8377 
 436   0.0000       2.435837        66.2825 
 437   0.0000       2.454508        66.7905 
 438   0.0000       2.455654        66.8217 
 439   0.0000       2.456625        66.8482 
 440   0.0000       2.463955        67.0476 
 441   0.0000       2.471804        67.2612 
 442   0.0000       2.478983        67.4566 
 443   0.0000       2.482025        67.5393 
 444   0.0000       2.505406        68.1756 
 445   0.0000       2.514380        68.4198 
 446   0.0000       2.519475        68.5584 
 447   0.0000       2.526456        68.7484 
 448   0.0000       2.533193        68.9317 
 449   0.0000       2.546112        69.2832 
 450   0.0000       2.551150        69.4203 
 451   0.0000       2.563048        69.7441 
 452   0.0000       2.576117        70.0997 
 453   0.0000       2.583801        70.3088 
 454   0.0000       2.586326        70.3775 
 455   0.0000       2.610719        71.0413 
 456   0.0000       2.612190        71.0813 
 457   0.0000       2.618855        71.2627 
 458   0.0000       2.629414        71.5500 
 459   0.0000       2.633058        71.6491 
 460   0.0000       2.674225        72.7694 
 461   0.0000       2.729595        74.2761 
 462   0.0000       2.738092        74.5073 
 463   0.0000       2.790572        75.9353 
 464   0.0000       2.796874        76.1068 
 465   0.0000       2.823488        76.8310 
 466   0.0000       2.943761        80.1038 
 467   0.0000       3.062418        83.3326 
 468   0.0000       3.240747        88.1852 
 469   0.0000       3.431152        93.3664 
 470   0.0000       4.983085       135.5966 
 471   0.0000       4.984544       135.6363 
 472   0.0000       4.996595       135.9642 
 473   0.0000       5.008229       136.2808 
 474   0.0000       5.008404       136.2856 
 475   0.0000       5.011511       136.3701 
 476   0.0000       5.017561       136.5348 
 477   0.0000       5.032772       136.9487 
 478   0.0000       5.034278       136.9897 
 479   0.0000       5.044985       137.2810 
 480   0.0000       5.047617       137.3526 
 481   0.0000       5.090201       138.5114 
 482   0.0000       5.096484       138.6824 
 483   0.0000       5.148482       140.0973 
 484   0.0000       5.197962       141.4437 
 485   0.0000       5.217001       141.9618 
 486   0.0000       5.227886       142.2580 
 487   0.0000       5.239388       142.5710 
 488   0.0000       5.247647       142.7957 
 489   0.0000       5.262839       143.2091 
 490   0.0000       5.282726       143.7503 
 491   0.0000       5.298458       144.1784 
 492   0.0000       5.300340       144.2296 
 493   0.0000       5.305802       144.3782 
 494   0.0000       5.313238       144.5805 
 495   0.0000       5.338305       145.2627 
 496   0.0000       5.365188       145.9942 
 497   0.0000       5.372492       146.1929 
 498   0.0000       5.393495       146.7645 
 499   0.0000       5.435124       147.8973 
 500   0.0000       5.454508       148.4247 
 501   0.0000       5.478048       149.0653 
 502   0.0000       5.484192       149.2325 
 503   0.0000       5.539572       150.7394 
 504   0.0000       5.561312       151.3310 
 505   0.0000       5.597869       152.3258 
 506   0.0000       5.611701       152.7021 
 507   0.0000       5.641858       153.5228 
 508   0.0000       5.673173       154.3749 
 509   0.0000       5.685377       154.7070 
 510   0.0000       5.740308       156.2017 
 511   0.0000       5.757018       156.6564 
 512   0.0000       5.817022       158.2892 
 513   0.0000       5.856014       159.3502 
 514   0.0000       5.877475       159.9342 
 515   0.0000       5.916171       160.9872 
 516   0.0000       6.139831       167.0733 
 517   0.0000       6.312799       171.7800 
 518   0.0000      29.581580       804.9557 
 519   0.0000      29.695062       808.0437 
 520   0.0000      29.756841       809.7248 
 521   0.0000      29.812505       811.2395 
 522   0.0000      29.835454       811.8640 
 523   0.0000      29.857848       812.4733 
 524   0.0000      29.869391       812.7875 
 525   0.0000      29.957698       815.1904 
 526   0.0000      29.971661       815.5704 
 527   0.0000      29.995219       816.2114 
 528   0.0000      30.025929       817.0471 
 529   0.0000      30.055116       817.8413 
 530   0.0000      30.078875       818.4878 
 531   0.0000      30.114976       819.4701 
 532   0.0000      30.122938       819.6868 
 533   0.0000      30.143018       820.2332 
 534   0.0000      30.190012       821.5120 
 535   0.0000      30.251886       823.1957 
 536   0.0000      30.253595       823.2422 
 537   0.0000      30.280197       823.9660 
 538   0.0000      30.297521       824.4375 
 539   0.0000      30.458178       828.8091 
 540   0.0000      30.536781       830.9480 
 541   0.0000      36.609483       996.1947 
 542   0.0000      36.610981       996.2355 
 543   0.0000      36.625233       996.6233 
 544   0.0000      36.628037       996.6995 
 545   0.0000      36.632335       996.8165 
 546   0.0000      36.636534       996.9308 
 547   0.0000      36.657050       997.4890 
 548   0.0000      36.659579       997.5579 
 549   0.0000      36.668566       997.8024 
 550   0.0000      36.671027       997.8694 
 551   0.0000      36.701679       998.7035 
 552   0.0000      36.715715       999.0854 
 553   0.0000      36.786645      1001.0155 
 554   0.0000      36.822295      1001.9856 
 555   0.0000      36.826339      1002.0956 
 556   0.0000      36.852474      1002.8068 
 557   0.0000      36.865488      1003.1609 
 558   0.0000      36.875335      1003.4289 
 559   0.0000      36.883436      1003.6493 
 560   0.0000      36.923835      1004.7486 
 561   0.0000      36.929242      1004.8958 
 562   0.0000      36.933399      1005.0089 
 563   0.0000      36.992872      1006.6272 
 564   0.0000      37.022893      1007.4441 
 565   0.0000      37.039775      1007.9035 

                 SPIN DOWN ORBITALS
  NO   OCC          E(Eh)            E(eV) 
   0   1.0000     -10.232610      -278.4435 
   1   1.0000     -10.227475      -278.3038 
   2   1.0000     -10.218307      -278.0543 
   3   1.0000     -10.210576      -277.8439 
   4   1.0000     -10.208304      -277.7821 
   5   1.0000     -10.207993      -277.7736 
   6   1.0000     -10.204761      -277.6857 
   7   1.0000     -10.204632      -277.6822 
   8   1.0000     -10.204351      -277.6745 
   9   1.0000     -10.203956      -277.6638 
  10   1.0000     -10.203677      -277.6562 
  11   1.0000     -10.201889      -277.6075 
  12   1.0000     -10.199517      -277.5430 
  13   1.0000     -10.199278      -277.5365 
  14   1.0000     -10.196087      -277.4496 
  15   1.0000     -10.189811      -277.2788 
  16   1.0000     -10.187817      -277.2246 
  17   1.0000     -10.183559      -277.1087 
  18   1.0000     -10.183094      -277.0961 
  19   1.0000     -10.182875      -277.0901 
  20   1.0000     -10.182536      -277.0809 
  21   1.0000     -10.173786      -276.8428 
  22   1.0000     -10.173471      -276.8342 
  23   1.0000      -0.868111       -23.6225 
  24   1.0000      -0.862523       -23.4705 
  25   1.0000      -0.813755       -22.1434 
  26   1.0000      -0.793997       -21.6058 
  27   1.0000      -0.790014       -21.4974 
  28   1.0000      -0.772717       -21.0267 
  29   1.0000      -0.761966       -20.7342 
  30   1.0000      -0.750837       -20.4313 
  31   1.0000      -0.731444       -19.9036 
  32   1.0000      -0.720006       -19.5924 
  33   1.0000      -0.697345       -18.9757 
  34   1.0000      -0.651037       -17.7156 
  35   1.0000      -0.650038       -17.6884 
  36   1.0000      -0.622151       -16.9296 
  37   1.0000      -0.613396       -16.6914 
  38   1.0000      -0.609197       -16.5771 
  39   1.0000      -0.590091       -16.0572 
  40   1.0000      -0.578509       -15.7420 
  41   1.0000      -0.561293       -15.2736 
  42   1.0000      -0.540381       -14.7045 
  43   1.0000      -0.515110       -14.0168 
  44   1.0000      -0.505421       -13.7532 
  45   1.0000      -0.479444       -13.0463 
  46   1.0000      -0.471453       -12.8289 
  47   1.0000      -0.470894       -12.8137 
  48   1.0000      -0.469877       -12.7860 
  49   1.0000      -0.456639       -12.4258 
  50   1.0000      -0.436769       -11.8851 
  51   1.0000      -0.429964       -11.6999 
  52   1.0000      -0.425164       -11.5693 
  53   1.0000      -0.422298       -11.4913 
  54   1.0000      -0.422051       -11.4846 
  55   1.0000      -0.421565       -11.4714 
  56   1.0000      -0.416908       -11.3446 
  57   1.0000      -0.409914       -11.1543 
  58   1.0000      -0.398541       -10.8448 
  59   1.0000      -0.381759       -10.3882 
  60   1.0000      -0.372914       -10.1475 
  61   1.0000      -0.368428       -10.0254 
  62   1.0000      -0.364594        -9.9211 
  63   1.0000      -0.362108        -9.8535 
  64   1.0000      -0.357318        -9.7231 
  65   1.0000      -0.357214        -9.7203 
  66   1.0000      -0.351363        -9.5611 
  67   1.0000      -0.340795        -9.2735 
  68   1.0000      -0.332347        -9.0436 
  69   1.0000      -0.328577        -8.9410 
  70   1.0000      -0.325156        -8.8480 
  71   1.0000      -0.324901        -8.8410 
  72   1.0000      -0.322082        -8.7643 
  73   1.0000      -0.319313        -8.6889 
  74   1.0000      -0.315264        -8.5788 
  75   1.0000      -0.275865        -7.5067 
  76   1.0000      -0.268097        -7.2953 
  77   1.0000      -0.258415        -7.0318 
  78   1.0000      -0.242395        -6.5959 
  79   1.0000      -0.220771        -6.0075 
  80   0.0000      -0.162963        -4.4345 
  81   0.0000      -0.086832        -2.3628 
  82   0.0000      -0.036448        -0.9918 
  83   0.0000      -0.027875        -0.7585 
  84   0.0000      -0.013590        -0.3698 
  85   0.0000       0.001793         0.0488 
  86   0.0000       0.015253         0.4151 
  87   0.0000       0.022112         0.6017 
  88   0.0000       0.023610         0.6425 
  89   0.0000       0.032562         0.8861 
  90   0.0000       0.032657         0.8886 
  91   0.0000       0.035827         0.9749 
  92   0.0000       0.037002         1.0069 
  93   0.0000       0.045231         1.2308 
  94   0.0000       0.047924         1.3041 
  95   0.0000       0.055659         1.5145 
  96   0.0000       0.060769         1.6536 
  97   0.0000       0.068287         1.8582 
  98   0.0000       0.075132         2.0444 
  99   0.0000       0.080115         2.1801 
 100   0.0000       0.085172         2.3176 
 101   0.0000       0.090497         2.4625 
 102   0.0000       0.102037         2.7766 
 103   0.0000       0.103057         2.8043 
 104   0.0000       0.104688         2.8487 
 105   0.0000       0.115656         3.1471 
 106   0.0000       0.126620         3.4455 
 107   0.0000       0.130677         3.5559 
 108   0.0000       0.144141         3.9223 
 109   0.0000       0.150117         4.0849 
 110   0.0000       0.153213         4.1691 
 111   0.0000       0.159986         4.3534 
 112   0.0000       0.172412         4.6916 
 113   0.0000       0.176633         4.8064 
 114   0.0000       0.177226         4.8226 
 115   0.0000       0.184139         5.0107 
 116   0.0000       0.189946         5.1687 
 117   0.0000       0.193080         5.2540 
 118   0.0000       0.195527         5.3206 
 119   0.0000       0.197075         5.3627 
 120   0.0000       0.200960         5.4684 
 121   0.0000       0.204318         5.5598 
 122   0.0000       0.209534         5.7017 
 123   0.0000       0.213738         5.8161 
 124   0.0000       0.215570         5.8660 
 125   0.0000       0.216585         5.8936 
 126   0.0000       0.220859         6.0099 
 127   0.0000       0.224409         6.1065 
 128   0.0000       0.233918         6.3652 
 129   0.0000       0.236243         6.4285 
 130   0.0000       0.244062         6.6413 
 131   0.0000       0.248810         6.7705 
 132   0.0000       0.249628         6.7927 
 133   0.0000       0.252770         6.8782 
 134   0.0000       0.255019         6.9394 
 135   0.0000       0.257841         7.0162 
 136   0.0000       0.266519         7.2524 
 137   0.0000       0.271232         7.3806 
 138   0.0000       0.274690         7.4747 
 139   0.0000       0.275608         7.4997 
 140   0.0000       0.280388         7.6298 
 141   0.0000       0.282634         7.6909 
 142   0.0000       0.283620         7.7177 
 143   0.0000       0.289665         7.8822 
 144   0.0000       0.292900         7.9702 
 145   0.0000       0.294642         8.0176 
 146   0.0000       0.294774         8.0212 
 147   0.0000       0.302329         8.2268 
 148   0.0000       0.304175         8.2770 
 149   0.0000       0.305892         8.3238 
 150   0.0000       0.310586         8.4515 
 151   0.0000       0.312050         8.4913 
 152   0.0000       0.313028         8.5179 
 153   0.0000       0.316855         8.6221 
 154   0.0000       0.320797         8.7293 
 155   0.0000       0.321602         8.7512 
 156   0.0000       0.330891         9.0040 
 157   0.0000       0.332714         9.0536 
 158   0.0000       0.335919         9.1408 
 159   0.0000       0.345000         9.3879 
 160   0.0000       0.345829         9.4105 
 161   0.0000       0.347819         9.4646 
 162   0.0000       0.350342         9.5333 
 163   0.0000       0.361805         9.8452 
 164   0.0000       0.368959        10.0399 
 165   0.0000       0.373402        10.1608 
 166   0.0000       0.373762        10.1706 
 167   0.0000       0.375575        10.2199 
 168   0.0000       0.378158        10.2902 
 169   0.0000       0.378924        10.3111 
 170   0.0000       0.392943        10.6925 
 171   0.0000       0.400192        10.8898 
 172   0.0000       0.401669        10.9300 
 173   0.0000       0.404077        10.9955 
 174   0.0000       0.414545        11.2803 
 175   0.0000       0.416110        11.3229 
 176   0.0000       0.421190        11.4612 
 177   0.0000       0.421992        11.4830 
 178   0.0000       0.427979        11.6459 
 179   0.0000       0.434710        11.8291 
 180   0.0000       0.435991        11.8639 
 181   0.0000       0.439748        11.9662 
 182   0.0000       0.440500        11.9866 
 183   0.0000       0.449383        12.2283 
 184   0.0000       0.452393        12.3102 
 185   0.0000       0.458165        12.4673 
 186   0.0000       0.462300        12.5798 
 187   0.0000       0.467814        12.7299 
 188   0.0000       0.475895        12.9497 
 189   0.0000       0.477256        12.9868 
 190   0.0000       0.479455        13.0466 
 191   0.0000       0.483912        13.1679 
 192   0.0000       0.486461        13.2373 
 193   0.0000       0.490856        13.3569 
 194   0.0000       0.503472        13.7002 
 195   0.0000       0.510601        13.8942 
 196   0.0000       0.513861        13.9829 
 197   0.0000       0.519041        14.1238 
 198   0.0000       0.520633        14.1672 
 199   0.0000       0.531763        14.4700 
 200   0.0000       0.536540        14.6000 
 201   0.0000       0.542839        14.7714 
 202   0.0000       0.552011        15.0210 
 203   0.0000       0.555025        15.1030 
 204   0.0000       0.559551        15.2262 
 205   0.0000       0.562935        15.3182 
 206   0.0000       0.565387        15.3850 
 207   0.0000       0.573143        15.5960 
 208   0.0000       0.579194        15.7607 
 209   0.0000       0.587399        15.9839 
 210   0.0000       0.596798        16.2397 
 211   0.0000       0.608082        16.5468 
 212   0.0000       0.608837        16.5673 
 213   0.0000       0.622255        16.9324 
[...]
 40:    616.90   0.000394    1.99  0.000199  (-0.000040 -0.000026  0.014114)
 41:    620.01   0.000144    0.73  0.000072  (-0.005083 -0.006814  0.000019)
 42:    630.83   0.000012    0.06  0.000006  ( 0.000753  0.002302  0.000008)
 43:    662.01   0.000306    1.55  0.000144  ( 0.010215 -0.006330 -0.000023)
 44:    706.14   0.000040    0.20  0.000018  (-0.000125  0.000070 -0.004227)
 45:    709.63   0.003335   16.85  0.001467  ( 0.000016 -0.000160  0.038295)
 46:    753.12   0.000032    0.16  0.000013  (-0.002091 -0.002978 -0.000020)
 47:    770.20   0.001065    5.38  0.000432  (-0.000044 -0.000028  0.020776)
 48:    772.49   0.000837    4.23  0.000338  ( 0.000001  0.000062 -0.018393)
 49:    796.56   0.000084    0.42  0.000033  ( 0.004338 -0.003744  0.000117)
 50:    800.70   0.012290   62.11  0.004790  (-0.000100 -0.000265  0.069207)
 51:    816.81   0.000065    0.33  0.000025  (-0.000025  0.000061 -0.004983)
 52:    820.14   0.000257    1.30  0.000098  (-0.000024 -0.000033  0.009897)
 53:    885.31   0.000001    0.01  0.000000  (-0.000012  0.000004 -0.000657)
 54:    893.77   0.000480    2.43  0.000168  (-0.010409 -0.007701 -0.000012)
 55:    910.79   0.000659    3.33  0.000226  (-0.000080  0.000015  0.015030)
 56:    927.66   0.000008    0.04  0.000003  ( 0.000662 -0.001555 -0.000023)
 57:    929.51   0.001897    9.59  0.000637  ( 0.000054 -0.000236  0.025238)
 58:    930.18   0.002348   11.87  0.000788  (-0.014855 -0.023816 -0.000110)
 59:    959.01   0.000713    3.60  0.000232  (-0.000051 -0.000116  0.015230)
 60:    969.90   0.000108    0.55  0.000035  (-0.000038  0.000012  0.005893)
 61:    974.87   0.002135   10.79  0.000683  ( 0.000035 -0.000137  0.026142)
 62:   1007.35   0.000006    0.03  0.000002  ( 0.001344  0.000225 -0.000001)
 63:   1015.26   0.000001    0.01  0.000000  (-0.000020  0.000017 -0.000598)
 64:   1029.49   0.000005    0.02  0.000001  (-0.000015  0.000026  0.001191)
 65:   1032.82   0.000003    0.02  0.000001  ( 0.000118  0.000941  0.000002)
 66:   1039.65   0.000147    0.74  0.000044  (-0.005007  0.004361  0.000004)
 67:   1055.08   0.001293    6.54  0.000382  (-0.019511 -0.001349 -0.000005)
 68:   1080.36   0.000057    0.29  0.000016  (-0.003972 -0.000788 -0.000002)
 69:   1081.31   0.000029    0.14  0.000008  ( 0.000909  0.002722  0.000007)
 70:   1106.76   0.000336    1.70  0.000095  (-0.008432 -0.004848 -0.000021)
 71:   1111.48   0.001185    5.99  0.000333  (-0.001355 -0.018189 -0.000013)
 72:   1121.79   0.000236    1.19  0.000066  (-0.006006 -0.005427 -0.000024)
 73:   1129.54   0.000131    0.66  0.000036  (-0.004880 -0.003508 -0.000016)
 74:   1134.77   0.000008    0.04  0.000002  ( 0.000007 -0.000001  0.001470)
 75:   1139.33   0.000006    0.03  0.000002  (-0.000000  0.000011 -0.001236)
 76:   1169.57   0.001240    6.27  0.000331  (-0.011936 -0.013729 -0.000047)
 77:   1191.57   0.000000    0.00  0.000000  ( 0.000083  0.000245  0.000000)
 78:   1193.43   0.000078    0.40  0.000020  ( 0.004028 -0.002061 -0.000004)
 79:   1194.77   0.003090   15.62  0.000807  (-0.026858  0.009266  0.000001)
 80:   1208.10   0.000138    0.70  0.000036  (-0.005967  0.000171  0.000000)
 81:   1251.16   0.000003    0.02  0.000001  (-0.000008 -0.000011 -0.000876)
 82:   1253.46   0.000000    0.00  0.000000  (-0.000009 -0.000014  0.000256)
 83:   1285.67   0.002107   10.65  0.000511  (-0.017252 -0.014623 -0.000049)
 84:   1291.07   0.000219    1.11  0.000053  ( 0.007259  0.000420  0.000010)
 85:   1295.81   0.000099    0.50  0.000024  ( 0.002864 -0.003944 -0.000006)
 86:   1314.42   0.000231    1.17  0.000055  (-0.000192  0.007397  0.000023)
 87:   1323.54   0.000023    0.12  0.000005  ( 0.000004 -0.000013  0.002342)
 88:   1326.43   0.000025    0.13  0.000006  ( 0.000003 -0.000004  0.002425)
 89:   1333.33   0.000005    0.02  0.000001  ( 0.001000  0.000341  0.000003)
 90:   1336.18   0.000054    0.27  0.000013  (-0.003483  0.000627 -0.000008)
 91:   1342.73   0.000045    0.23  0.000010  (-0.000011  0.000002  0.003237)
 92:   1343.11   0.000121    0.61  0.000028  ( 0.000018  0.000011 -0.005310)
 93:   1378.59   0.000013    0.06  0.000003  ( 0.001203  0.001203  0.000001)
 94:   1379.10   0.000178    0.90  0.000040  (-0.005303  0.003496  0.000005)
 95:   1389.25   0.000755    3.81  0.000170  (-0.013015 -0.000391 -0.000011)
 96:   1419.08   0.001022    5.17  0.000225  ( 0.011539  0.009576  0.000029)
 97:   1421.42   0.000295    1.49  0.000065  (-0.000775  0.008006  0.000016)
 98:   1430.41   0.002811   14.21  0.000613  (-0.015687  0.019164  0.000035)
 99:   1430.71   0.000929    4.70  0.000203  (-0.011423  0.008497  0.000009)
100:   1433.27   0.002013   10.17  0.000438  ( 0.001583 -0.020877 -0.000056)
101:   1477.94   0.001876    9.48  0.000396  ( 0.009103  0.017702  0.000041)
102:   1478.54   0.001064    5.38  0.000225  ( 0.014721  0.002794  0.000027)
103:   1482.34   0.000802    4.05  0.000169  (-0.012689 -0.002783 -0.000020)
104:   1494.45   0.002867   14.49  0.000599  (-0.001817  0.024398  0.000062)
105:   1498.64   0.000394    1.99  0.000082  (-0.001902 -0.008860 -0.000018)
106:   1499.15   0.000060    0.30  0.000013  ( 0.001627 -0.003142 -0.000004)
107:   1509.92   0.000029    0.15  0.000006  ( 0.002408 -0.000385  0.000009)
108:   1510.78   0.000215    1.09  0.000044  (-0.000790 -0.006614 -0.000008)
109:   1511.66   0.001789    9.04  0.000369  ( 0.000029  0.000041 -0.019217)
110:   1511.81   0.001731    8.75  0.000357  (-0.000036 -0.000040  0.018902)
111:   1522.59   0.003008   15.20  0.000616  (-0.006073 -0.024075 -0.000081)
112:   1524.44   0.000136    0.69  0.000028  (-0.005058 -0.001514 -0.000010)
113:   1525.28   0.005237   26.46  0.001071  (-0.032379  0.004794 -0.000010)
114:   1536.10   0.007150   36.14  0.001453  ( 0.035564  0.013706  0.000050)
115:   1610.65   0.001608    8.13  0.000312  (-0.017251 -0.003739 -0.000012)
116:   1621.99   0.000347    1.75  0.000067  (-0.000765 -0.008137 -0.000010)
117:   1658.50   0.005230   26.43  0.000984  (-0.031359  0.000774 -0.000003)
118:   2269.75   0.000170    0.86  0.000023  ( 0.004825  0.000188  0.000002)
119:   2937.76   0.000490    2.48  0.000052  ( 0.007184 -0.000645  0.000004)
120:   2939.92   0.000202    1.02  0.000021  ( 0.003136 -0.003401 -0.000004)
121:   2940.79   0.000190    0.96  0.000020  (-0.003343  0.003002 -0.000001)
122:   2944.16   0.002088   10.55  0.000221  (-0.014878  0.000083 -0.000025)
123:   2949.73   0.010934   55.26  0.001157  ( 0.033630  0.005084  0.000062)
124:   2952.61   0.005751   29.06  0.000608  ( 0.023959  0.005815  0.000041)
125:   2954.28   0.000400    2.02  0.000042  ( 0.000012 -0.000001 -0.006499)
126:   2956.10   0.007094   35.85  0.000749  (-0.017740  0.020837  0.000016)
127:   2956.18   0.009347   47.24  0.000987  (-0.022738  0.021672  0.000032)
128:   2960.14   0.000270    1.37  0.000028  (-0.000034  0.000023 -0.005336)
129:   2965.16   0.000042    0.21  0.000004  ( 0.000007 -0.000000 -0.002103)
130:   2969.25   0.000042    0.21  0.000004  (-0.000020  0.000001  0.002096)
131:   2991.38   0.005973   30.18  0.000623  (-0.000036 -0.000067  0.024962)
132:   2993.03   0.007753   39.18  0.000808  ( 0.000031  0.000078 -0.028431)
133:   3017.58   0.001908    9.64  0.000197  (-0.000023 -0.000032  0.014048)
134:   3017.65   0.025330  128.01  0.002619  ( 0.000064  0.000128 -0.051180)
135:   3025.22   0.008471   42.81  0.000874  ( 0.021170  0.020630  0.000083)
136:   3025.58   0.008860   44.78  0.000914  (-0.022845 -0.019799 -0.000078)
137:   3111.55   0.000992    5.01  0.000099  ( 0.009969 -0.000308  0.000001)
138:   3119.68   0.001531    7.74  0.000153  ( 0.000650  0.012357  0.000015)
139:   3132.58   0.005360   27.09  0.000534  ( 0.023071 -0.001295  0.000003)
140:   3139.92   0.005346   27.02  0.000531  ( 0.000985  0.023030  0.000027)
141:   3143.83   0.001354    6.84  0.000134  (-0.001595  0.011481  0.000025)
142:   3145.78   0.003436   17.37  0.000341  (-0.018428  0.001143 -0.000001)
143:   3156.67   0.001096    5.54  0.000108  ( 0.005012 -0.009124 -0.000023)

* The epsilon (eps) is given for a Dirac delta lineshape.
** The dipole moment derivative (T) already includes vibrational overlap.

The first frequency considered to be a vibration is 7
The total number of vibrations considered is 137


--------------------------
THERMOCHEMISTRY AT 298.15K
--------------------------

Temperature         ... 298.15 K
Pressure            ... 1.00 atm
Total Mass          ... 301.45 AMU

Throughout the following assumptions are being made:
  (1) The electronic state is orbitally nondegenerate
      but the spin degeneracy is treated
  (2) There are no thermally accessible electronically excited states
  (3) Hindered rotations indicated by low frequency modes are not
      treated as such but are treated as vibrations and this may
      cause some error
  (4) All equations used are the standard statistical mechanics
      equations for an ideal gas
  (5) All vibrations are strictly harmonic

freq.       9.91  E(vib)   ...       0.58 
freq.      29.53  E(vib)   ...       0.55 
freq.      34.69  E(vib)   ...       0.54 
freq.      59.00  E(vib)   ...       0.51 
freq.      65.56  E(vib)   ...       0.50 
freq.      85.81  E(vib)   ...       0.48 
freq.      94.98  E(vib)   ...       0.47 
freq.     127.47  E(vib)   ...       0.43 
freq.     132.37  E(vib)   ...       0.42 
freq.     147.51  E(vib)   ...       0.41 
freq.     157.24  E(vib)   ...       0.40 
freq.     161.73  E(vib)   ...       0.39 
freq.     173.52  E(vib)   ...       0.38 
freq.     199.48  E(vib)   ...       0.35 
freq.     216.00  E(vib)   ...       0.34 
freq.     227.33  E(vib)   ...       0.33 
freq.     258.81  E(vib)   ...       0.30 
freq.     273.34  E(vib)   ...       0.29 
freq.     276.88  E(vib)   ...       0.28 
freq.     314.92  E(vib)   ...       0.25 
freq.     332.42  E(vib)   ...       0.24 
freq.     332.80  E(vib)   ...       0.24 
freq.     349.00  E(vib)   ...       0.23 
freq.     408.38  E(vib)   ...       0.19 
freq.     412.12  E(vib)   ...       0.19 
freq.     426.07  E(vib)   ...       0.18 
freq.     443.79  E(vib)   ...       0.17 
freq.     460.47  E(vib)   ...       0.16 
freq.     469.27  E(vib)   ...       0.16 
freq.     513.86  E(vib)   ...       0.13 
freq.     519.44  E(vib)   ...       0.13 
freq.     550.88  E(vib)   ...       0.12 
freq.     567.98  E(vib)   ...       0.11 
freq.     616.90  E(vib)   ...       0.09 
freq.     620.01  E(vib)   ...       0.09 
freq.     630.83  E(vib)   ...       0.09 
freq.     662.01  E(vib)   ...       0.08 
freq.     706.14  E(vib)   ...       0.07 
freq.     709.63  E(vib)   ...       0.07 
freq.     753.12  E(vib)   ...       0.06 
freq.     770.20  E(vib)   ...       0.05 
freq.     772.49  E(vib)   ...       0.05 
freq.     796.56  E(vib)   ...       0.05 
freq.     800.70  E(vib)   ...       0.05 
freq.     816.81  E(vib)   ...       0.05 
freq.     820.14  E(vib)   ...       0.05 
freq.     885.31  E(vib)   ...       0.04 
freq.     893.77  E(vib)   ...       0.03 
freq.     910.79  E(vib)   ...       0.03 
freq.     927.66  E(vib)   ...       0.03 
freq.     929.51  E(vib)   ...       0.03 
freq.     930.18  E(vib)   ...       0.03 
freq.     959.01  E(vib)   ...       0.03 
freq.     969.90  E(vib)   ...       0.03 
freq.     974.87  E(vib)   ...       0.03 
freq.    1007.35  E(vib)   ...       0.02 
freq.    1015.26  E(vib)   ...       0.02 
freq.    1029.49  E(vib)   ...       0.02 
freq.    1032.82  E(vib)   ...       0.02 
freq.    1039.65  E(vib)   ...       0.02 
freq.    1055.08  E(vib)   ...       0.02 
freq.    1080.36  E(vib)   ...       0.02 
freq.    1081.31  E(vib)   ...       0.02 
freq.    1106.76  E(vib)   ...       0.02 
freq.    1111.48  E(vib)   ...       0.01 
freq.    1121.79  E(vib)   ...       0.01 
freq.    1129.54  E(vib)   ...       0.01 
freq.    1134.77  E(vib)   ...       0.01 
freq.    1139.33  E(vib)   ...       0.01 
freq.    1169.57  E(vib)   ...       0.01 
freq.    1191.57  E(vib)   ...       0.01 
freq.    1193.43  E(vib)   ...       0.01 
freq.    1194.77  E(vib)   ...       0.01 
freq.    1208.10  E(vib)   ...       0.01 
freq.    1251.16  E(vib)   ...       0.01 
freq.    1253.46  E(vib)   ...       0.01 
freq.    1285.67  E(vib)   ...       0.01 
freq.    1291.07  E(vib)   ...       0.01 
freq.    1295.81  E(vib)   ...       0.01 
freq.    1314.42  E(vib)   ...       0.01 
freq.    1323.54  E(vib)   ...       0.01 
freq.    1326.43  E(vib)   ...       0.01 
freq.    1333.33  E(vib)   ...       0.01 
freq.    1336.18  E(vib)   ...       0.01 
freq.    1342.73  E(vib)   ...       0.01 
freq.    1343.11  E(vib)   ...       0.01 
freq.    1378.59  E(vib)   ...       0.01 
freq.    1379.10  E(vib)   ...       0.01 
freq.    1389.25  E(vib)   ...       0.00 
freq.    1419.08  E(vib)   ...       0.00 
freq.    1421.42  E(vib)   ...       0.00 
freq.    1430.41  E(vib)   ...       0.00 
freq.    1430.71  E(vib)   ...       0.00 
freq.    1433.27  E(vib)   ...       0.00 
freq.    1477.94  E(vib)   ...       0.00 
freq.    1478.54  E(vib)   ...       0.00 
freq.    1482.34  E(vib)   ...       0.00 
freq.    1494.45  E(vib)   ...       0.00 
freq.    1498.64  E(vib)   ...       0.00 
freq.    1499.15  E(vib)   ...       0.00 
freq.    1509.92  E(vib)   ...       0.00 
freq.    1510.78  E(vib)   ...       0.00 
freq.    1511.66  E(vib)   ...       0.00 
freq.    1511.81  E(vib)   ...       0.00 
freq.    1522.59  E(vib)   ...       0.00 
freq.    1524.44  E(vib)   ...       0.00 
freq.    1525.28  E(vib)   ...       0.00 
freq.    1536.10  E(vib)   ...       0.00 
freq.    1610.65  E(vib)   ...       0.00 
freq.    1621.99  E(vib)   ...       0.00 
freq.    1658.50  E(vib)   ...       0.00 
freq.    2269.75  E(vib)   ...       0.00 
freq.    2937.76  E(vib)   ...       0.00 
freq.    2939.92  E(vib)   ...       0.00 
freq.    2940.79  E(vib)   ...       0.00 
freq.    2944.16  E(vib)   ...       0.00 
freq.    2949.73  E(vib)   ...       0.00 
freq.    2952.61  E(vib)   ...       0.00 
freq.    2954.28  E(vib)   ...       0.00 
freq.    2956.10  E(vib)   ...       0.00 
freq.    2956.18  E(vib)   ...       0.00 
freq.    2960.14  E(vib)   ...       0.00 
freq.    2965.16  E(vib)   ...       0.00 
freq.    2969.25  E(vib)   ...       0.00 
freq.    2991.38  E(vib)   ...       0.00 
freq.    2993.03  E(vib)   ...       0.00 
freq.    3017.58  E(vib)   ...       0.00 
freq.    3017.65  E(vib)   ...       0.00 
freq.    3025.22  E(vib)   ...       0.00 
freq.    3025.58  E(vib)   ...       0.00 
freq.    3111.55  E(vib)   ...       0.00 
freq.    3119.68  E(vib)   ...       0.00 
freq.    3132.58  E(vib)   ...       0.00 
freq.    3139.92  E(vib)   ...       0.00 
freq.    3143.83  E(vib)   ...       0.00 
freq.    3145.78  E(vib)   ...       0.00 
freq.    3156.67  E(vib)   ...       0.00 

------------
INNER ENERGY
------------

The inner energy is: U= E(el) + E(ZPE) + E(vib) + E(rot) + E(trans)
    E(el)   - is the total energy from the electronic structure calculation
              = E(kin-el) + E(nuc-el) + E(el-el) + E(nuc-nuc)
    E(ZPE)  - the the zero temperature vibrational energy from the frequency calculation
    E(vib)  - the the finite temperature correction to E(ZPE) due to population
              of excited vibrational states
    E(rot)  - is the rotational thermal energy
    E(trans)- is the translational thermal energy

Summary of contributions to the inner energy U:
Electronic energy                ...   -890.77229040 Eh
Zero point energy                ...      0.40642818 Eh     255.04 kcal/mol
Thermal vibrational correction   ...      0.01916203 Eh      12.02 kcal/mol
Thermal rotational correction    ...      0.00141627 Eh       0.89 kcal/mol
Thermal translational correction ...      0.00141627 Eh       0.89 kcal/mol
-----------------------------------------------------------------------
Total thermal energy                   -890.34386765 Eh


Summary of corrections to the electronic energy:
(perhaps to be used in another calculation)
Total thermal correction                  0.02199457 Eh      13.80 kcal/mol
Non-thermal (ZPE) correction              0.40642818 Eh     255.04 kcal/mol
-----------------------------------------------------------------------
Total correction                          0.42842275 Eh     268.84 kcal/mol


--------
ENTHALPY
--------

The enthalpy is H = U + kB*T
                kB is Boltzmann's constant
Total free energy                 ...   -890.34386765 Eh 
Thermal Enthalpy correction       ...      0.00094421 Eh       0.59 kcal/mol
-----------------------------------------------------------------------
Total Enthalpy                    ...   -890.34292344 Eh


Note: Only C1 symmetry has been detected, increase convergence thresholds 
      if your molecule has a higher symmetry. Symmetry factor of 1.0 is   
      used for the rotational entropy correction. 
 

Note: Rotational entropy computed according to Herzberg 
Infrared and Raman Spectra, Chapter V,1, Van Nostrand Reinhold, 1945 
Point Group:  C1, Symmetry Number:   1  
Rotational constants in cm-1:     0.006748     0.004694     0.002780 

Vibrational entropy computed according to the QRRHO of S. Grimme
Chem.Eur.J. 2012 18 9955


-------
ENTROPY
-------

The entropy contributions are T*S = T*(S(el)+S(vib)+S(rot)+S(trans))
     S(el)   - electronic entropy
     S(vib)  - vibrational entropy
     S(rot)  - rotational entropy
     S(trans)- translational entropy
The entropies will be listed as multiplied by the temperature to get
units of energy

Electronic entropy                ...      0.00130891 Eh      0.82 kcal/mol
Vibrational entropy               ...      0.03433003 Eh     21.54 kcal/mol
Rotational entropy                ...      0.01718017 Eh     10.78 kcal/mol
Translational entropy             ...      0.02043402 Eh     12.82 kcal/mol
-----------------------------------------------------------------------
Final entropy term                ...      0.07325313 Eh     45.97 kcal/mol

In case the symmetry of your molecule has not been determined correctly
or in case you have a reason to use a different symmetry number we print 
out the resulting rotational entropy values for sn=1,12 :
 --------------------------------------------------------
|  sn= 1 | S(rot)=       0.01718017 Eh     10.78 kcal/mol|
|  sn= 2 | S(rot)=       0.01652571 Eh     10.37 kcal/mol|
|  sn= 3 | S(rot)=       0.01614288 Eh     10.13 kcal/mol|
|  sn= 4 | S(rot)=       0.01587126 Eh      9.96 kcal/mol|
|  sn= 5 | S(rot)=       0.01566057 Eh      9.83 kcal/mol|
|  sn= 6 | S(rot)=       0.01548843 Eh      9.72 kcal/mol|
|  sn= 7 | S(rot)=       0.01534288 Eh      9.63 kcal/mol|
|  sn= 8 | S(rot)=       0.01521680 Eh      9.55 kcal/mol|
|  sn= 9 | S(rot)=       0.01510559 Eh      9.48 kcal/mol|
|  sn=10 | S(rot)=       0.01500611 Eh      9.42 kcal/mol|
|  sn=11 | S(rot)=       0.01491612 Eh      9.36 kcal/mol|
|  sn=12 | S(rot)=       0.01483397 Eh      9.31 kcal/mol|
 --------------------------------------------------------


-------------------
GIBBS FREE ENERGY
-------------------

The Gibbs free energy is G = H - T*S

Total enthalpy                    ...   -890.34292344 Eh 
Total entropy correction          ...     -0.07325313 Eh    -45.97 kcal/mol
-----------------------------------------------------------------------
Final Gibbs free energy         ...   -890.41617657 Eh

For completeness - the Gibbs free energy minus the electronic energy
G-E(el)                           ...      0.35611383 Eh    223.46 kcal/mol


Timings for individual modules:

Sum of individual times         ...     1271.016 sec (=  21.184 min)
GTO integral calculation        ...        3.154 sec (=   0.053 min)   0.2 %
SCF iterations                  ...      121.009 sec (=   2.017 min)   9.5 %
Analytical frequency calculation...     1146.853 sec (=  19.114 min)  90.2 %
                             ****ORCA TERMINATED NORMALLY****
TOTAL RUN TIME: 0 days 0 hours 21 minutes 16 seconds 927 msec
