
                                 *****************
                                 * O   R   C   A *
                                 *****************

                                            #,                                       
                                            ###                                      
                                            ####                                     
                                            #####                                    
                                            ######                                   
                                           ########,                                 
                                     ,,################,,,,,                         
                               ,,#################################,,                 
                          ,,##########################################,,             
                       ,#########################################, ''#####,          
                    ,#############################################,,   '####,        
                  ,##################################################,,,,####,       
                ,###########''''           ''''###############################       
              ,#####''   ,,,,##########,,,,          '''####'''          '####       
            ,##' ,,,,###########################,,,                        '##       
           ' ,,###''''                  '''############,,,                           
         ,,##''                                '''############,,,,        ,,,,,,###''
      ,#''                                            '''#######################'''  
     '                                                          ''''####''''         
             ,#######,   #######,   ,#######,      ##                                
            ,#'     '#,  ##    ##  ,#'     '#,    #''#        ######   ,####,        
            ##       ##  ##   ,#'  ##            #'  '#       #        #'  '#        
            ##       ##  #######   ##           ,######,      #####,   #    #        
            '#,     ,#'  ##    ##  '#,     ,#' ,#      #,         ##   #,  ,#        
             '#######'   ##     ##  '#######'  #'      '#     #####' # '####'        



                  #######################################################
                  #                        -***-                        #
                  #          Department of theory and spectroscopy      #
                  #    Directorship and core code : Frank Neese         #
                  #        Max Planck Institute fuer Kohlenforschung    #
                  #                Kaiser Wilhelm Platz 1               #
                  #                 D-45470 Muelheim/Ruhr               #
                  #                      Germany                        #
                  #                                                     #
                  #                  All rights reserved                #
                  #                        -***-                        #
                  #######################################################


                         Program Version 5.0.4 -  RELEASE  -


 With contributions from (in alphabetic order):
   Daniel Aravena         : Magnetic Suceptibility
   Michael Atanasov       : Ab Initio Ligand Field Theory (pilot matlab implementation)
   Alexander A. Auer      : GIAO ZORA, VPT2 properties, NMR spectrum
   Ute Becker             : Parallelization
   Giovanni Bistoni       : ED, misc. LED, open-shell LED, HFLD
   Martin Brehm           : Molecular dynamics
   Dmytro Bykov           : SCF Hessian
   Vijay G. Chilkuri      : MRCI spin determinant printing, contributions to CSF-ICE
   Dipayan Datta          : RHF DLPNO-CCSD density
   Achintya Kumar Dutta   : EOM-CC, STEOM-CC
   Dmitry Ganyushin       : Spin-Orbit,Spin-Spin,Magnetic field MRCI
   Miquel Garcia          : C-PCM and meta-GGA Hessian, CC/C-PCM, Gaussian charge scheme
   Yang Guo               : DLPNO-NEVPT2, F12-NEVPT2, CIM, IAO-localization
   Andreas Hansen         : Spin unrestricted coupled pair/coupled cluster methods
   Benjamin Helmich-Paris : MC-RPA, TRAH-SCF, COSX integrals
   Lee Huntington         : MR-EOM, pCC
   Robert Izsak           : Overlap fitted RIJCOSX, COSX-SCS-MP3, EOM
   Marcus Kettner         : VPT2
   Christian Kollmar      : KDIIS, OOCD, Brueckner-CCSD(T), CCSD density, CASPT2, CASPT2-K
   Simone Kossmann        : Meta GGA functionals, TD-DFT gradient, OOMP2, MP2 Hessian
   Martin Krupicka        : Initial AUTO-CI
   Lucas Lang             : DCDCAS
   Marvin Lechner         : AUTO-CI (C++ implementation), FIC-MRCC
   Dagmar Lenk            : GEPOL surface, SMD
   Dimitrios Liakos       : Extrapolation schemes; Compound Job, initial MDCI parallelization
   Dimitrios Manganas     : Further ROCIS development; embedding schemes
   Dimitrios Pantazis     : SARC Basis sets
   Anastasios Papadopoulos: AUTO-CI, single reference methods and gradients
   Taras Petrenko         : DFT Hessian,TD-DFT gradient, ASA, ECA, R-Raman, ABS, FL, XAS/XES, NRVS
   Peter Pinski           : DLPNO-MP2, DLPNO-MP2 Gradient
   Christoph Reimann      : Effective Core Potentials
   Marius Retegan         : Local ZFS, SOC
   Christoph Riplinger    : Optimizer, TS searches, QM/MM, DLPNO-CCSD(T), (RO)-DLPNO pert. Triples
   Tobias Risthaus        : Range-separated hybrids, TD-DFT gradient, RPA, STAB
   Michael Roemelt        : Original ROCIS implementation
   Masaaki Saitow         : Open-shell DLPNO-CCSD energy and density
   Barbara Sandhoefer     : DKH picture change effects
   Avijit Sen             : IP-ROCIS
   Kantharuban Sivalingam : CASSCF convergence, NEVPT2, FIC-MRCI
   Bernardo de Souza      : ESD, SOC TD-DFT
   Georgi Stoychev        : AutoAux, RI-MP2 NMR, DLPNO-MP2 response
   Willem Van den Heuvel  : Paramagnetic NMR
   Boris Wezisla          : Elementary symmetry handling
   Frank Wennmohs         : Technical directorship


 We gratefully acknowledge several colleagues who have allowed us to
 interface, adapt or use parts of their codes:
   Stefan Grimme, W. Hujo, H. Kruse, P. Pracht,  : VdW corrections, initial TS optimization,
                  C. Bannwarth, S. Ehlert          DFT functionals, gCP, sTDA/sTD-DF
   Ed Valeev, F. Pavosevic, A. Kumar             : LibInt (2-el integral package), F12 methods
   Garnet Chan, S. Sharma, J. Yang, R. Olivares  : DMRG
   Ulf Ekstrom                                   : XCFun DFT Library
   Mihaly Kallay                                 : mrcc  (arbitrary order and MRCC methods)
   Jiri Pittner, Ondrej Demel                    : Mk-CCSD
   Frank Weinhold                                : gennbo (NPA and NBO analysis)
   Christopher J. Cramer and Donald G. Truhlar   : smd solvation model
   Lars Goerigk                                  : TD-DFT with DH, B97 family of functionals
   V. Asgeirsson, H. Jonsson                     : NEB implementation
   FAccTs GmbH                                   : IRC, NEB, NEB-TS, DLPNO-Multilevel, CI-OPT
                                                   MM, QMMM, 2- and 3-layer-ONIOM, Crystal-QMMM,
                                                   LR-CPCM, SF, NACMEs, symmetry and pop. for TD-DFT,
                                                   nearIR, NL-DFT gradient (VV10), updates on ESD,
                                                   ML-optimized integration grids
   S Lehtola, MJT Oliveira, MAL Marques          : LibXC Library
   Liviu Ungur et al                             : ANISO software


 Your calculation uses the libint2 library for the computation of 2-el integrals
 For citations please refer to: http://libint.valeyev.net

 Your ORCA version has been built with support for libXC version: 5.1.0
 For citations please refer to: https://tddft.org/programs/libxc/

 This ORCA versions uses:
   CBLAS   interface :  Fast vector & matrix operations
   LAPACKE interface :  Fast linear algebra routines
   SCALAPACK package :  Parallel linear algebra routines
   Shared memory     :  Shared parallel matrices
   BLAS/LAPACK       :  OpenBLAS 0.3.15  USE64BITINT DYNAMIC_ARCH NO_AFFINITY SkylakeX SINGLE_THREADED
        Core in use  :  SkylakeX
   Copyright (c) 2011-2014, The OpenBLAS Project




***************************************
The coordinates will be read from file: opt.xyz
***************************************


================================================================================

----- Orbital basis set information -----
Your calculation utilizes the basis: EPR-II
   V. Barone, in Recent Advances in Density Functional Methods, Part 1 (ed. D. P. Chong), World Scientific, Singapore, 1995, p. 287.

----- AuxJ basis set information -----
Your calculation utilizes the auxiliary basis: def2/J
   F. Weigend, Phys. Chem. Chem. Phys. 8, 1057 (2006).

================================================================================
                                        WARNINGS
                       Please study these warnings very carefully!
================================================================================

WARNING: Old DensityContainer found on disk!
         Will remove this file - 
         If you want to keep old densities, please start your calculation with a different basename. 


WARNING: your system is open-shell and RHF/RKS was chosen
  ===> : WILL SWITCH to UHF/UKS


INFO   : the flag for use of the SHARK integral package has been found!

================================================================================
                                       INPUT FILE
================================================================================
NAME = BDE.inp
|  1> ! B3LYP EPR-II FREQ
|  2> %pal nprocs 16 end
|  3> *XYZFile 0 2 opt.xyz
|  4> 
|  5>                          ****END OF INPUT****
================================================================================

                       ****************************
                       * Single Point Calculation *
                       ****************************

---------------------------------
CARTESIAN COORDINATES (ANGSTROEM)
---------------------------------
  C     -2.832372    0.020293   -0.012674
  C      2.815948   -0.003360   -0.008875
  C     -1.420433    0.002453   -0.011651
  C     -0.709375   -1.248719   -0.014317
  C      0.676247   -1.190347   -0.013098
  C      1.395990    0.032013   -0.009547
  C      0.690981    1.274503   -0.006793
  C     -0.695552    1.234643   -0.007923
  H      1.255523   -2.114320   -0.015016
  H     -1.274064    2.157630   -0.005970
  C     -1.489895   -2.544872   -0.018304
  H     -2.165019   -2.534890   -0.894888
  H     -2.166965   -2.539083    0.856814
  C     -0.678575   -3.843149   -0.020503
  H     -0.014665   -3.868142   -0.904151
  H     -0.016787   -3.872413    0.864608
  C     -1.565109   -5.094476   -0.024598
  H     -2.232311   -5.070651    0.856894
  H     -2.230018   -5.066520   -0.907703
  C     -0.764607   -6.399272   -0.026630
  H     -0.116223   -6.472896    0.863534
  H     -0.113640   -6.468533   -0.915256
  C      1.471273    2.575323   -0.002841
  H      2.146769    2.566888    0.872422
  H      2.148153    2.571347   -0.877069
  C      0.658643    3.872512   -0.000192
  H     -0.003508    3.902839   -0.885023
  H     -0.005190    3.898229    0.883519
  C      1.545480    5.123771    0.003914
  H      2.210563    5.095343    0.886947
  H      2.212467    5.099765   -0.877811
  C      0.745911    6.429167    0.006343
  H      0.095138    6.498653    0.895068
  H      0.097365    6.503336   -0.883633
  C      4.039703   -0.047094   -0.010051
  H     -1.427402   -7.279815   -0.029757
  H      1.409174    7.309394    0.009496
  C      5.464853   -0.099872   -0.009745
  C      6.139075   -1.341626   -0.011166
  C      7.532527   -1.388475   -0.010865
  C      8.280425   -0.205272   -0.009185
  C      7.623150    1.030678   -0.007808
  C      6.230136    1.087990   -0.008102
  H      9.372096   -0.246369   -0.008970
  H      8.201473    1.957801   -0.006530
  H      5.554032   -2.263250   -0.012463
  H      5.715792    2.050851   -0.007084
  H      8.040096   -2.356142   -0.011943

----------------------------
CARTESIAN COORDINATES (A.U.)
----------------------------
  NO LB      ZA    FRAG     MASS         X           Y           Z
   0 C     6.0000    0    12.011   -5.352408    0.038349   -0.023950
   1 C     6.0000    0    12.011    5.321371   -0.006349   -0.016770
   2 C     6.0000    0    12.011   -2.684229    0.004635   -0.022017
   3 C     6.0000    0    12.011   -1.340524   -2.359736   -0.027055
   4 C     6.0000    0    12.011    1.277922   -2.249430   -0.024752
   5 C     6.0000    0    12.011    2.638039    0.060496   -0.018041
   6 C     6.0000    0    12.011    1.305765    2.408461   -0.012838
   7 C     6.0000    0    12.011   -1.314403    2.333137   -0.014972
   8 H     1.0000    0     1.008    2.372596   -3.995485   -0.028375
   9 H     1.0000    0     1.008   -2.407632    4.077330   -0.011282
  10 C     6.0000    0    12.011   -2.815494   -4.809112   -0.034589
  11 H     1.0000    0     1.008   -4.091294   -4.790248   -1.691093
  12 H     1.0000    0     1.008   -4.094971   -4.798172    1.619143
  13 C     6.0000    0    12.011   -1.282321   -7.262500   -0.038745
  14 H     1.0000    0     1.008   -0.027712   -7.309728   -1.708597
  15 H     1.0000    0     1.008   -0.031723   -7.317800    1.633873
  16 C     6.0000    0    12.011   -2.957628   -9.627164   -0.046484
  17 H     1.0000    0     1.008   -4.218456   -9.582142    1.619295
  18 H     1.0000    0     1.008   -4.214122   -9.574335   -1.715311
  19 C     6.0000    0    12.011   -1.444898  -12.092871   -0.050324
  20 H     1.0000    0     1.008   -0.219630  -12.232000    1.631843
  21 H     1.0000    0     1.008   -0.214748  -12.223756   -1.729584
  22 C     6.0000    0    12.011    2.780303    4.866655   -0.005369
  23 H     1.0000    0     1.008    4.056805    4.850715    1.648638
  24 H     1.0000    0     1.008    4.059421    4.859141   -1.657420
  25 C     6.0000    0    12.011    1.244655    7.317988   -0.000363
  26 H     1.0000    0     1.008   -0.006629    7.375296   -1.672451
  27 H     1.0000    0     1.008   -0.009808    7.366586    1.669608
  28 C     6.0000    0    12.011    2.920533    9.682524    0.007397
  29 H     1.0000    0     1.008    4.177358    9.628803    1.676087
  30 H     1.0000    0     1.008    4.180957    9.637159   -1.658822
  31 C     6.0000    0    12.011    1.409567   12.149365    0.011986
  32 H     1.0000    0     1.008    0.179785   12.280675    1.691434
  33 H     1.0000    0     1.008    0.183993   12.289523   -1.669824
  34 C     6.0000    0    12.011    7.633932   -0.088996   -0.018993
  35 H     1.0000    0     1.008   -2.697399  -13.756856   -0.056233
  36 H     1.0000    0     1.008    2.662953   13.812753    0.017944
  37 C     6.0000    0    12.011   10.327076   -0.188731   -0.018416
  38 C     6.0000    0    12.011   11.601171   -2.535306   -0.021101
  39 C     6.0000    0    12.011   14.234413   -2.623837   -0.020532
  40 C     6.0000    0    12.011   15.647736   -0.387908   -0.017358
  41 C     6.0000    0    12.011   14.405666    1.947699   -0.014755
  42 C     6.0000    0    12.011   11.773251    2.056004   -0.015310
  43 H     1.0000    0     1.008   17.710695   -0.465570   -0.016951
  44 H     1.0000    0     1.008   15.498538    3.699708   -0.012339
  45 H     1.0000    0     1.008   10.495600   -4.276922   -0.023552
  46 H     1.0000    0     1.008   10.801281    3.875547   -0.013386
  47 H     1.0000    0     1.008   15.193579   -4.452463   -0.022569

--------------------------------
INTERNAL COORDINATES (ANGSTROEM)
--------------------------------
 C      0   0   0     0.000000000000     0.00000000     0.00000000
 C      1   0   0     5.648371411379     0.00000000     0.00000000
 C      1   2   0     1.412052410131     0.48399979     0.00000000
 C      3   1   2     1.439110925347   120.33393721   180.49901129
 C      4   3   1     1.386851603607   117.19774424   180.00093494
 C      5   4   3     1.418522545188   122.90246480     0.00000000
 C      6   5   4     1.428574851022   119.93867313     0.00000000
 C      7   6   5     1.387106522290   117.92445965     0.00000000
 H      5   4   3     1.090546010016   119.67285649   179.99941953
 H      8   7   6     1.089304504246   120.43191416   180.00317804
 C      4   3   1     1.513024414007   119.33438938     0.00000000
 H     11   4   3     1.106476934100   108.00616054    56.35971479
 H     11   4   3     1.106475356934   108.00509203   303.68145240
 C     11   4   3     1.530937224584   116.94238629   180.02130969
 H     14  11   4     1.105547139866   109.78966878   301.77629958
 H     14  11   4     1.105550548860   109.78719729    58.23252965
 C     14  11   4     1.533550540365   112.68135219   180.00388664
 H     17  14  11     1.105782371630   109.21402002   302.33994741
 H     17  14  11     1.105784538256   109.21482005    57.67690433
 C     17  14  11     1.530784472306   113.15404191   180.00798781
 H     20  17  14     1.103727587771   111.28363119    59.86999512
 H     20  17  14     1.103726420698   111.28327752   300.15101945
 C      7   6   5     1.516906313098   119.47159453   179.99285762
 H     23   7   6     1.105645097064   108.04668043   303.67913344
 H     23   7   6     1.105647474934   108.04543251    56.30873167
 C     23   7   6     1.530710492470   116.97761772   179.99278060
 H     26  23   7     1.105571852979   109.86582102   301.73035804
 H     26  23   7     1.105568216179   109.86850634    58.25205801
 C     26  23   7     1.533669768461   112.60758559   179.99214220
 H     29  26  23     1.105843882251   109.20423391   302.32314070
 H     29  26  23     1.105842417270   109.20335069    57.65507529
 C     29  26  23     1.530808990943   113.18492367   179.98964435
 H     32  29  26     1.103705872771   111.28060053    59.84267414
 H     32  29  26     1.103707040443   111.28102452   300.13341799
 C      2   1   3     1.224536319945   178.19073806     3.31639934
 H     20  17  14     1.102117558145   111.50148117   180.01088745
 H     32  29  26     1.102146891879   111.51372945   179.98760947
 C     35   2   6     1.426127577528   179.89990264   310.19601817
 C     38  35   2     1.412986201726   120.62099441    42.32709590
 C     39  38  35     1.394238967254   120.42572579   179.99983889
 C     40  39  38     1.399758125314   120.37123022     0.00000000
 C     41  40  39     1.399851587805   119.69928473     0.00000000
 C     42  41  40     1.394192569463   120.35987142     0.00000000
 H     41  40  39     1.092444106171   120.14088570   180.00092837
 H     42  41  40     1.092710465420   120.04093837   180.00217752
 H     39  38  35     1.091635284161   119.09265827     0.00000000
 H     43  42  41     1.091628016075   120.46637030   180.00332008
 H     40  39  38     1.092706400042   119.60383643   179.99794411

---------------------------
INTERNAL COORDINATES (A.U.)
---------------------------
 C      0   0   0     0.000000000000     0.00000000     0.00000000
 C      1   0   0    10.673875070176     0.00000000     0.00000000
 C      1   2   0     2.668392341891     0.48399979     0.00000000
 C      3   1   2     2.719525525239   120.33393721   180.49901129
 C      4   3   1     2.620769719207   117.19774424   180.00093494
 C      5   4   3     2.680619125199   122.90246480     0.00000000
 C      6   5   4     2.699615230238   119.93867313     0.00000000
 C      7   6   5     2.621251445705   117.92445965     0.00000000
 H      5   4   3     2.060833295371   119.67285649   179.99941953
 H      8   7   6     2.058487189472   120.43191416   180.00317804
 C      4   3   1     2.859201776411   119.33438938     0.00000000
 H     11   4   3     2.090938378949   108.00616054    56.35971479
 H     11   4   3     2.090935398538   108.00509203   303.68145240
 C     11   4   3     2.893052082689   116.94238629   180.02130969
 H     14  11   4     2.089181322486   109.78966878   301.77629958
 H     14  11   4     2.089187764551   109.78719729    58.23252965
 C     14  11   4     2.897990533818   112.68135219   180.00388664
 H     17  14  11     2.089625846098   109.21402002   302.33994741
 H     17  14  11     2.089629940428   109.21482005    57.67690433
 C     17  14  11     2.892763422717   113.15404191   180.00798781
 H     20  17  14     2.085742867341   111.28363119    59.86999512
 H     20  17  14     2.085740661892   111.28327752   300.15101945
 C      7   6   5     2.866537502572   119.47159453   179.99285762
 H     23   7   6     2.089366434764   108.04668043   303.67913344
 H     23   7   6     2.089370928286   108.04543251    56.30873167
 C     23   7   6     2.892623621088   116.97761772   179.99278060
 H     26  23   7     2.089228023501   109.86582102   301.73035804
 H     26  23   7     2.089221150947   109.86850634    58.25205801
 C     26  23   7     2.898215842266   112.60758559   179.99214220
 H     29  26  23     2.089742084327   109.20423391   302.32314070
 H     29  26  23     2.089739315914   109.20335069    57.65507529
 C     29  26  23     2.892809756227   113.18492367   179.98964435
 H     32  29  26     2.085701831937   111.28060053    59.84267414
 H     32  29  26     2.085704038518   111.28102452   300.13341799
 C      2   1   3     2.314038285735   178.19073806     3.31639934
 H     20  17  14     2.082700352280   111.50148117   180.01088745
 H     32  29  26     2.082755785004   111.51372945   179.98760947
 C     35   2   6     2.694990553561   179.89990264   310.19601817
 C     38  35   2     2.670156952272   120.62099441    42.32709590
 C     39  38  35     2.634729813351   120.42572579   179.99983889
 C     40  39  38     2.645159510574   120.37123022     0.00000000
 C     41  40  39     2.645336129086   119.69928473     0.00000000
 C     42  41  40     2.634642134233   120.35987142     0.00000000
 H     41  40  39     2.064420177280   120.14088570   180.00092837
 H     42  41  40     2.064923523314   120.04093837   180.00217752
 H     39  38  35     2.062891725190   119.09265827     0.00000000
 H     43  42  41     2.062877990497   120.46637030   180.00332008
 H     40  39  38     2.064915840862   119.60383643   179.99794411

---------------------
BASIS SET INFORMATION
---------------------
There are 2 groups of distinct atoms

 Group   1 Type C   : 10s5p1d contracted to 6s2p1d pattern {511111/41/1}
 Group   2 Type H   : 6s1p contracted to 4s1p pattern {3111/1}

Atom   0C    basis set group =>   1
Atom   1C    basis set group =>   1
Atom   2C    basis set group =>   1
Atom   3C    basis set group =>   1
Atom   4C    basis set group =>   1
Atom   5C    basis set group =>   1
Atom   6C    basis set group =>   1
Atom   7C    basis set group =>   1
Atom   8H    basis set group =>   2
Atom   9H    basis set group =>   2
Atom  10C    basis set group =>   1
Atom  11H    basis set group =>   2
Atom  12H    basis set group =>   2
Atom  13C    basis set group =>   1
Atom  14H    basis set group =>   2
Atom  15H    basis set group =>   2
Atom  16C    basis set group =>   1
Atom  17H    basis set group =>   2
Atom  18H    basis set group =>   2
Atom  19C    basis set group =>   1
Atom  20H    basis set group =>   2
Atom  21H    basis set group =>   2
Atom  22C    basis set group =>   1
Atom  23H    basis set group =>   2
Atom  24H    basis set group =>   2
Atom  25C    basis set group =>   1
Atom  26H    basis set group =>   2
Atom  27H    basis set group =>   2
Atom  28C    basis set group =>   1
Atom  29H    basis set group =>   2
Atom  30H    basis set group =>   2
Atom  31C    basis set group =>   1
Atom  32H    basis set group =>   2
Atom  33H    basis set group =>   2
Atom  34C    basis set group =>   1
Atom  35H    basis set group =>   2
Atom  36H    basis set group =>   2
Atom  37C    basis set group =>   1
Atom  38C    basis set group =>   1
Atom  39C    basis set group =>   1
Atom  40C    basis set group =>   1
Atom  41C    basis set group =>   1
Atom  42C    basis set group =>   1
Atom  43H    basis set group =>   2
Atom  44H    basis set group =>   2
Atom  45H    basis set group =>   2
Atom  46H    basis set group =>   2
Atom  47H    basis set group =>   2
---------------------------------
AUXILIARY/J BASIS SET INFORMATION
---------------------------------
There are 2 groups of distinct atoms

 Group   1 Type C   : 12s5p4d2f1g contracted to 6s4p3d1f1g pattern {711111/2111/211/2/1}
 Group   2 Type H   : 5s2p1d contracted to 3s1p1d pattern {311/2/1}

Atom   0C    basis set group =>   1
Atom   1C    basis set group =>   1
Atom   2C    basis set group =>   1
Atom   3C    basis set group =>   1
Atom   4C    basis set group =>   1
Atom   5C    basis set group =>   1
Atom   6C    basis set group =>   1
Atom   7C    basis set group =>   1
Atom   8H    basis set group =>   2
Atom   9H    basis set group =>   2
Atom  10C    basis set group =>   1
Atom  11H    basis set group =>   2
Atom  12H    basis set group =>   2
Atom  13C    basis set group =>   1
Atom  14H    basis set group =>   2
Atom  15H    basis set group =>   2
Atom  16C    basis set group =>   1
Atom  17H    basis set group =>   2
Atom  18H    basis set group =>   2
Atom  19C    basis set group =>   1
Atom  20H    basis set group =>   2
Atom  21H    basis set group =>   2
Atom  22C    basis set group =>   1
Atom  23H    basis set group =>   2
Atom  24H    basis set group =>   2
Atom  25C    basis set group =>   1
Atom  26H    basis set group =>   2
Atom  27H    basis set group =>   2
Atom  28C    basis set group =>   1
Atom  29H    basis set group =>   2
Atom  30H    basis set group =>   2
Atom  31C    basis set group =>   1
Atom  32H    basis set group =>   2
Atom  33H    basis set group =>   2
Atom  34C    basis set group =>   1
Atom  35H    basis set group =>   2
Atom  36H    basis set group =>   2
Atom  37C    basis set group =>   1
Atom  38C    basis set group =>   1
Atom  39C    basis set group =>   1
Atom  40C    basis set group =>   1
Atom  41C    basis set group =>   1
Atom  42C    basis set group =>   1
Atom  43H    basis set group =>   2
Atom  44H    basis set group =>   2
Atom  45H    basis set group =>   2
Atom  46H    basis set group =>   2
Atom  47H    basis set group =>   2

Checking for AutoStart:
The File: BDE.gbw exists
Trying to determine its content:
     ... Fine, the file contains calculation information
     ... Fine, the calculation information was read
     ... Fine, the file contains a basis set
     ... Fine, the basis set was read
     ... Fine, the file contains a geometry
     ... Fine, the geometry was read
     ... Fine, the file contains a set of orbitals
     ... Fine, the orbitals can be read
     => possible old guess file was deleted
     => GBW file was renamed to GES file
     => GES file is set as startup file
     => Guess is set to MORead
     ... now leaving AutoStart



           ************************************************************
           *        Program running with 16 parallel MPI-processes    *
           *              working on a common directory               *
           ************************************************************
------------------------------------------------------------------------------
                           ORCA GTO INTEGRAL CALCULATION
                           -- RI-GTO INTEGRALS CHOSEN --
------------------------------------------------------------------------------
------------------------------------------------------------------------------
                   ___                                                        
                  /   \      - P O W E R E D   B Y -                         
                 /     \                                                     
                 |  |  |   _    _      __       _____    __    __             
                 |  |  |  | |  | |    /  \     |  _  \  |  |  /  |          
                  \  \/   | |  | |   /    \    | | | |  |  | /  /          
                 / \  \   | |__| |  /  /\  \   | |_| |  |  |/  /          
                |  |  |   |  __  | /  /__\  \  |    /   |      \           
                |  |  |   | |  | | |   __   |  |    \   |  |\   \          
                \     /   | |  | | |  |  |  |  | |\  \  |  | \   \       
                 \___/    |_|  |_| |__|  |__|  |_| \__\ |__|  \__/        
                                                                              
                      - O R C A' S   B I G   F R I E N D -                    
                                      &                                       
                       - I N T E G R A L  F E E D E R -                       
                                                                              
 v1 FN, 2020, v2 2021                                                         
------------------------------------------------------------------------------


Reading SHARK input file BDE.SHARKINP.tmp ... ok
----------------------
SHARK INTEGRAL PACKAGE
----------------------

Number of atoms                             ...     48
Number of basis functions                   ...    566
Number of shells                            ...    332
Maximum angular momentum                    ...      2
Integral batch strategy                     ... SHARK/LIBINT Hybrid
RI-J (if used) integral strategy            ... SPLIT-RIJ (Revised 2003 algorithm where possible)
Printlevel                                  ...      1
Contraction scheme used                     ... SEGMENTED contraction
Coulomb Range Separation                    ... NOT USED
Exchange Range Separation                   ... NOT USED
Finite Nucleus Model                        ... NOT USED
Auxiliary Coulomb fitting basis             ... AVAILABLE
   # of basis functions in Aux-J            ...   1402
   # of shells in Aux-J                     ...    470
   Maximum angular momentum in Aux-J        ...      4
Auxiliary J/K fitting basis                 ... NOT available
Auxiliary Correlation fitting basis         ... NOT available
Auxiliary 'external' fitting basis          ... NOT available
Integral threshold                          ...     1.000000e-10
Primitive cut-off                           ...     1.000000e-11
Primitive pair pre-selection threshold      ...     1.000000e-11

Calculating pre-screening integrals         ... done (  0.0 sec) Dimension = 332
Organizing shell pair data                  ... done (  0.2 sec)
Shell pair information
Total number of shell pairs                 ...     55278
Shell pairs after pre-screening             ...     28174
Total number of primitive shell pairs       ...    148139
Primitive shell pairs kept                  ...     53071
          la=0 lb=0:  12956 shell pairs
          la=1 lb=0:   9697 shell pairs
          la=1 lb=1:   1735 shell pairs
          la=2 lb=0:   2633 shell pairs
          la=2 lb=1:   1001 shell pairs
          la=2 lb=2:    152 shell pairs

Calculating one electron integrals          ... done (  0.0 sec)
Calculating RI/J V-Matrix + Cholesky decomp.... done (  0.3 sec)
Calculating Nuclear repulsion               ... done (  0.0 sec) ENN=   1629.670574765028 Eh

SHARK setup successfully completed in   1.1 seconds

Maximum memory used throughout the entire GTOINT-calculation: 39.2 MB


           ************************************************************
           *        Program running with 16 parallel MPI-processes    *
           *              working on a common directory               *
           ************************************************************
-------------------------------------------------------------------------------
                                 ORCA SCF
-------------------------------------------------------------------------------

------------
SCF SETTINGS
------------
Hamiltonian:
 Density Functional     Method          .... DFT(GTOs)
 Exchange Functional    Exchange        .... B88
   X-Alpha parameter    XAlpha          ....  0.666667
   Becke's b parameter  XBeta           ....  0.004200
 Correlation Functional Correlation     .... LYP
 LDA part of GGA corr.  LDAOpt          .... VWN-5
 Gradients option       PostSCFGGA      .... off
 Hybrid DFT is turned on
   Fraction HF Exchange ScalHFX         ....  0.200000
   Scaling of DF-GGA-X  ScalDFX         ....  0.720000
   Scaling of DF-GGA-C  ScalDFC         ....  0.810000
   Scaling of DF-LDA-C  ScalLDAC        ....  1.000000
   Perturbative correction              ....  0.000000
   Density functional embedding theory  .... OFF
   NL short-range parameter             ....  4.800000
 RI-approximation to the Coulomb term is turned on
   Number of AuxJ basis functions       .... 1402
   RIJ-COSX (HFX calculated with COS-X)).... on


General Settings:
 Integral files         IntName         .... BDE
 Hartree-Fock type      HFTyp           .... UHF
 Total Charge           Charge          ....    0
 Multiplicity           Mult            ....    2
 Number of Electrons    NEL             ....  163
 Basis Dimension        Dim             ....  566
 Nuclear Repulsion      ENuc            ....   1629.6705747650 Eh

Convergence Acceleration:
 DIIS                   CNVDIIS         .... on
   Start iteration      DIISMaxIt       ....    12
   Startup error        DIISStart       ....  0.200000
   # of expansion vecs  DIISMaxEq       ....     5
   Bias factor          DIISBfac        ....   1.050
   Max. coefficient     DIISMaxC        ....  10.000
 Trust-Rad. Augm. Hess. CNVTRAH         .... auto
   Auto Start mean grad. ratio tolernc. ....  1.125000
   Auto Start start iteration           ....     1
   Auto Start num. interpolation iter.  ....    10
   Max. Number of Micro iterations      ....    16
   Max. Number of Macro iterations      .... Maxiter - #DIIS iter
   Number of Davidson start vectors     ....     2
   Converg. threshold I  (grad. norm)   ....   5.000e-05
   Converg. threshold II (energy diff.) ....   1.000e-06
   Grad. Scal. Fac. for Micro threshold ....   0.100
   Minimum threshold for Micro iter.    ....   0.010
   NR start threshold (gradient norm)   ....   0.001
   Initial trust radius                 ....   0.400
   Minimum AH scaling param. (alpha)    ....   1.000
   Maximum AH scaling param. (alpha)    .... 1000.000
   Orbital update algorithm             .... Taylor
   White noise on init. David. guess    .... on
   Maximum white noise                  ....   0.010
   Quad. conv. algorithm                .... NR
 SOSCF                  CNVSOSCF        .... off
 Level Shifting         CNVShift        .... on
   Level shift para.    LevelShift      ....    0.2500
   Turn off err/grad.   ShiftErr        ....    0.0010
 Zerner damping         CNVZerner       .... off
 Static damping         CNVDamp         .... on
   Fraction old density DampFac         ....    0.7000
   Max. Damping (<1)    DampMax         ....    0.9800
   Min. Damping (>=0)   DampMin         ....    0.0000
   Turn off err/grad.   DampErr         ....    0.1000
 Fernandez-Rico         CNVRico         .... off

SCF Procedure:
 Maximum # iterations   MaxIter         ....   125
 SCF integral mode      SCFMode         .... Direct
   Integral package                     .... SHARK and LIBINT hybrid scheme
 Reset frequency        DirectResetFreq ....    20
 Integral Threshold     Thresh          ....  1.000e-10 Eh
 Primitive CutOff       TCut            ....  1.000e-11 Eh

Convergence Tolerance:
 Convergence Check Mode ConvCheckMode   .... Total+1el-Energy
 Convergence forced     ConvForced      .... 0
 Energy Change          TolE            ....  1.000e-06 Eh
 1-El. energy change                    ....  1.000e-03 Eh
 DIIS Error             TolErr          ....  1.000e-06


Diagonalization of the overlap matrix:
Smallest eigenvalue                        ... 7.436e-05
Time for diagonalization                   ...    0.103 sec
Threshold for overlap eigenvalues          ... 1.000e-08
Number of eigenvalues below threshold      ... 0
Time for construction of square roots      ...    0.061 sec
Total time needed                          ...    0.165 sec

---------------------
INITIAL GUESS: MOREAD
---------------------
Guess MOs are being read from file: BDE.ges
Input Geometry matches current geometry (good)
Input basis set matches current basis set (good)
MOs were renormalized
MOs were reorthogonalized (Cholesky)
                      ------------------
                      INITIAL GUESS DONE (   0.3 sec)
                      ------------------
-------------------
DFT GRID GENERATION
-------------------

General Integration Accuracy     IntAcc      ... 4.388
Radial Grid Type                 RadialGrid  ... OptM3 with GC (2021)
Angular Grid (max. ang.)         AngularGrid ... 4 (Lebedev-302)
Angular grid pruning method      GridPruning ... 4 (adaptive)
Weight generation scheme         WeightScheme... Becke
Basis function cutoff            BFCut       ... 1.0000e-10
Integration weight cutoff        WCut        ... 1.0000e-14
Angular grids for H and He will be reduced by one unit
Partially contracted basis set               ... off
Rotationally invariant grid construction     ... off

Total number of grid points                  ...   217082
Total number of batches                      ...     3416
Average number of points per batch           ...       63
Average number of grid points per atom       ...     4523
Time for grid setup =    1.290 sec

--------------------
COSX GRID GENERATION
--------------------

GRIDX 1
-------
General Integration Accuracy     IntAcc      ... 3.816
Radial Grid Type                 RadialGrid  ... OptM3 with GC (2021)
Angular Grid (max. ang.)         AngularGrid ... 1 (Lebedev-50)
Angular grid pruning method      GridPruning ... 4 (adaptive)
Weight generation scheme         WeightScheme... Becke
Basis function cutoff            BFCut       ... 1.0000e-10
Integration weight cutoff        WCut        ... 1.0000e-14
Angular grids for H and He will be reduced by one unit
Partially contracted basis set               ... on
Rotationally invariant grid construction     ... off

Total number of grid points                  ...    27656
Total number of batches                      ...      458
Average number of points per batch           ...       60
Average number of grid points per atom       ...      576
UseSFitting                                  ... on

GRIDX 2
-------
General Integration Accuracy     IntAcc      ... 4.020
Radial Grid Type                 RadialGrid  ... OptM3 with GC (2021)
Angular Grid (max. ang.)         AngularGrid ... 2 (Lebedev-110)
Angular grid pruning method      GridPruning ... 4 (adaptive)
Weight generation scheme         WeightScheme... Becke
Basis function cutoff            BFCut       ... 1.0000e-10
Integration weight cutoff        WCut        ... 1.0000e-14
Angular grids for H and He will be reduced by one unit
Partially contracted basis set               ... on
Rotationally invariant grid construction     ... off

Total number of grid points                  ...    58857
Total number of batches                      ...      944
Average number of points per batch           ...       62
Average number of grid points per atom       ...     1226
UseSFitting                                  ... on

GRIDX 3
-------
General Integration Accuracy     IntAcc      ... 4.338
Radial Grid Type                 RadialGrid  ... OptM3 with GC (2021)
Angular Grid (max. ang.)         AngularGrid ... 3 (Lebedev-194)
Angular grid pruning method      GridPruning ... 4 (adaptive)
Weight generation scheme         WeightScheme... Becke
Basis function cutoff            BFCut       ... 1.0000e-10
Integration weight cutoff        WCut        ... 1.0000e-14
Angular grids for H and He will be reduced by one unit
Partially contracted basis set               ... on
Rotationally invariant grid construction     ... off

Total number of grid points                  ...   128750
Total number of batches                      ...     2038
Average number of points per batch           ...       63
Average number of grid points per atom       ...     2682
UseSFitting                                  ... on

Time for X-Grid setup             =    2.270 sec

--------------
SCF ITERATIONS
--------------
ITER       Energy         Delta-E        Max-DP      RMS-DP      [F,P]     Damp
               ***  Starting incremental Fock matrix formation  ***
  0   -890.7377690646   0.000000000000 0.06987915  0.00048337  0.0695172 0.7000
  1   -890.7750658402  -0.037296775572 0.07715339  0.00046009  0.0425241 0.7000
                               ***Turning on DIIS***
  2   -890.7907269970  -0.015661156844 0.12745911  0.00076606  0.0231760 0.0000
  3   -890.8095467978  -0.018819800805 0.06021183  0.00038523  0.0254532 0.0000
  4   -890.8196229383  -0.010076140503 0.04378074  0.00028335  0.0129071 0.0000
  5   -890.8225190995  -0.002896161156 0.02362733  0.00016442  0.0066103 0.0000
  6   -890.8236150257  -0.001095926158 0.01011011  0.00007557  0.0040980 0.0000
  7   -890.8239603544  -0.000345328724 0.00522832  0.00003388  0.0022873 0.0000
  8   -890.8240907314  -0.000130376989 0.00319548  0.00002143  0.0014802 0.0000
  9   -890.8241636243  -0.000072892909 0.00370526  0.00002507  0.0009734 0.0000
               *** Restarting incremental Fock matrix formation ***
                                   *** Resetting DIIS ***
 10   -890.8242134563  -0.000049832041 0.00094133  0.00000987  0.0004147 0.0000
 11   -890.8242118491   0.000001607237 0.00074293  0.00000650  0.0007083 0.0000
 12   -890.8242191132  -0.000007264164 0.00028607  0.00000209  0.0002177 0.0000
 13   -890.8242197326  -0.000000619313 0.00027266  0.00000210  0.0001551 0.0000
 14   -890.8242201675  -0.000000434922 0.00024874  0.00000108  0.0000777 0.0000
                 **** Energy Check signals convergence ****

               *****************************************************
               *                     SUCCESS                       *
               *           SCF CONVERGED AFTER  15 CYCLES          *
               *****************************************************

Old exchange energy                            =    -25.566337359 Eh
New exchange energy                            =    -25.566321434 Eh
Exchange energy change after final integration =      0.000015925 Eh
Total energy after final integration           =   -890.824204250 Eh
Final COS-X integration done in                =     9.030 sec

----------------
TOTAL SCF ENERGY
----------------

Total Energy       :         -890.82420425 Eh          -24240.55896 eV

Components:
Nuclear Repulsion  :         1629.67057477 Eh           44345.59083 eV
Electronic Energy  :        -2520.49477902 Eh          -68586.14979 eV
One Electron Energy:        -4436.57170881 Eh         -120725.25375 eV
Two Electron Energy:         1916.07692979 Eh           52139.10396 eV
Max COSX asymmetry :            0.00000508 Eh               0.00014 eV

Virial components:
Potential Energy   :        -1774.65762267 Eh          -48290.88897 eV
Kinetic Energy     :          883.83341842 Eh           24050.33001 eV
Virial Ratio       :            2.00790962


DFT components:
N(Alpha)           :       82.000180174086 electrons
N(Beta)            :       81.000179140176 electrons
N(Total)           :      163.000359314262 electrons
E(X)               :     -101.408264796573 Eh       
E(C)               :       -6.327783511967 Eh       
E(XC)              :     -107.736048308541 Eh       
DFET-embed. en.    :        0.000000000000 Eh       

---------------
SCF CONVERGENCE
---------------

  Last Energy change         ...   -7.5771e-09  Tolerance :   1.0000e-06
  Last MAX-Density change    ...    0.0000e+00  Tolerance :   1.0000e-05
  Last RMS-Density change    ...    0.0000e+00  Tolerance :   1.0000e-06
  Last DIIS Error            ...    2.7951e-05  Tolerance :   1.0000e-06

             **** THE GBW FILE WAS UPDATED (BDE.gbw) ****
             **** DENSITY BDE.scfp WAS UPDATED ****
             **** ENERGY FILE WAS UPDATED (BDE.en.tmp) ****
----------------------
UHF SPIN CONTAMINATION
----------------------

Warning: in a DFT calculation there is little theoretical justification to 
         calculate <S**2> as in Hartree-Fock theory. We will do it anyways
         but you should keep in mind that the values have only limited relevance

Expectation value of <S**2>     :     0.756840
Ideal value S*(S+1) for S=0.5   :     0.750000
Deviation                       :     0.006840

             **** THE GBW FILE WAS UPDATED (BDE.gbw) ****
             **** DENSITY BDE.scfp WAS UPDATED ****
----------------
ORBITAL ENERGIES
----------------
                 SPIN UP ORBITALS
  NO   OCC          E(Eh)            E(eV) 
   0   1.0000     -10.248943      -278.8879 
   1   1.0000     -10.242447      -278.7112 
   2   1.0000     -10.225788      -278.2578 
   3   1.0000     -10.225013      -278.2367 
   4   1.0000     -10.220518      -278.1144 
   5   1.0000     -10.220394      -278.1111 
   6   1.0000     -10.220252      -278.1072 
   7   1.0000     -10.219550      -278.0881 
   8   1.0000     -10.219181      -278.0781 
   9   1.0000     -10.217437      -278.0306 
  10   1.0000     -10.217312      -278.0272 
  11   1.0000     -10.213678      -277.9283 
  12   1.0000     -10.208841      -277.7967 
  13   1.0000     -10.196039      -277.4483 
  14   1.0000     -10.194474      -277.4057 
  15   1.0000     -10.192827      -277.3609 
  16   1.0000     -10.188909      -277.2543 
  17   1.0000     -10.188011      -277.2299 
  18   1.0000     -10.187206      -277.2080 
  19   1.0000     -10.184130      -277.1243 
  20   1.0000     -10.182596      -277.0825 
  21   1.0000     -10.176159      -276.9074 
  22   1.0000     -10.173808      -276.8434 
  23   1.0000      -0.882503       -24.0141 
  24   1.0000      -0.877567       -23.8798 
  25   1.0000      -0.822792       -22.3893 
  26   1.0000      -0.807188       -21.9647 
  27   1.0000      -0.795427       -21.6447 
  28   1.0000      -0.785891       -21.3852 
  29   1.0000      -0.770636       -20.9701 
  30   1.0000      -0.765265       -20.8239 
  31   1.0000      -0.740461       -20.1490 
  32   1.0000      -0.732488       -19.9320 
  33   1.0000      -0.703323       -19.1384 
  34   1.0000      -0.671588       -18.2748 
  35   1.0000      -0.656263       -17.8578 
  36   1.0000      -0.633953       -17.2507 
  37   1.0000      -0.624107       -16.9828 
  38   1.0000      -0.623509       -16.9665 
  39   1.0000      -0.598045       -16.2736 
  40   1.0000      -0.581674       -15.8282 
  41   1.0000      -0.567231       -15.4352 
  42   1.0000      -0.557025       -15.1574 
  43   1.0000      -0.537477       -14.6255 
  44   1.0000      -0.518704       -14.1147 
  45   1.0000      -0.494822       -13.4648 
  46   1.0000      -0.483314       -13.1517 
  47   1.0000      -0.476095       -12.9552 
  48   1.0000      -0.471402       -12.8275 
  49   1.0000      -0.471186       -12.8216 
  50   1.0000      -0.450810       -12.2672 
  51   1.0000      -0.440786       -11.9944 
  52   1.0000      -0.438862       -11.9420 
  53   1.0000      -0.429072       -11.6756 
  54   1.0000      -0.428570       -11.6620 
  55   1.0000      -0.425407       -11.5759 
  56   1.0000      -0.419279       -11.4092 
  57   1.0000      -0.413872       -11.2620 
  58   1.0000      -0.409598       -11.1457 
  59   1.0000      -0.397275       -10.8104 
  60   1.0000      -0.382596       -10.4110 
  61   1.0000      -0.376748       -10.2518 
  62   1.0000      -0.375457       -10.2167 
  63   1.0000      -0.368963       -10.0400 
  64   1.0000      -0.366380        -9.9697 
  65   1.0000      -0.364332        -9.9140 
  66   1.0000      -0.360529        -9.8105 
  67   1.0000      -0.348443        -9.4816 
  68   1.0000      -0.336127        -9.1465 
  69   1.0000      -0.332322        -9.0429 
  70   1.0000      -0.330852        -9.0029 
  71   1.0000      -0.328273        -8.9328 
  72   1.0000      -0.326748        -8.8913 
  73   1.0000      -0.324033        -8.8174 
  74   1.0000      -0.322234        -8.7684 
  75   1.0000      -0.289139        -7.8679 
  76   1.0000      -0.286705        -7.8016 
  77   1.0000      -0.272853        -7.4247 
  78   1.0000      -0.256036        -6.9671 
  79   1.0000      -0.255564        -6.9542 
  80   1.0000      -0.234556        -6.3826 
  81   1.0000      -0.172656        -4.6982 
  82   0.0000      -0.111941        -3.0461 
  83   0.0000      -0.045203        -1.2300 
  84   0.0000      -0.027751        -0.7551 
  85   0.0000      -0.012175        -0.3313 
  86   0.0000       0.006054         0.1647 
  87   0.0000       0.017988         0.4895 
  88   0.0000       0.018354         0.4994 
  89   0.0000       0.020648         0.5619 
  90   0.0000       0.027887         0.7588 
  91   0.0000       0.028728         0.7817 
  92   0.0000       0.031388         0.8541 
  93   0.0000       0.035237         0.9588 
  94   0.0000       0.044782         1.2186 
  95   0.0000       0.048299         1.3143 
  96   0.0000       0.053741         1.4624 
  97   0.0000       0.061339         1.6691 
  98   0.0000       0.069930         1.9029 
  99   0.0000       0.077689         2.1140 
 100   0.0000       0.080469         2.1897 
 101   0.0000       0.081114         2.2072 
 102   0.0000       0.090488         2.4623 
 103   0.0000       0.100130         2.7247 
 104   0.0000       0.104672         2.8483 
 105   0.0000       0.111824         3.0429 
 106   0.0000       0.119977         3.2648 
 107   0.0000       0.129168         3.5148 
 108   0.0000       0.134252         3.6532 
 109   0.0000       0.146285         3.9806 
 110   0.0000       0.149014         4.0549 
 111   0.0000       0.155048         4.2191 
 112   0.0000       0.161832         4.4037 
 113   0.0000       0.173574         4.7232 
 114   0.0000       0.174568         4.7502 
 115   0.0000       0.176338         4.7984 
 116   0.0000       0.186826         5.0838 
 117   0.0000       0.186848         5.0844 
 118   0.0000       0.191173         5.2021 
 119   0.0000       0.195557         5.3214 
 120   0.0000       0.197809         5.3827 
 121   0.0000       0.198929         5.4131 
 122   0.0000       0.205486         5.5916 
 123   0.0000       0.208277         5.6675 
 124   0.0000       0.209703         5.7063 
 125   0.0000       0.213370         5.8061 
 126   0.0000       0.214478         5.8363 
 127   0.0000       0.215341         5.8597 
 128   0.0000       0.228643         6.2217 
 129   0.0000       0.232600         6.3294 
 130   0.0000       0.234695         6.3864 
 131   0.0000       0.241672         6.5762 
 132   0.0000       0.243836         6.6351 
 133   0.0000       0.244661         6.6576 
 134   0.0000       0.251057         6.8316 
 135   0.0000       0.251967         6.8564 
 136   0.0000       0.257086         6.9957 
 137   0.0000       0.265746         7.2313 
 138   0.0000       0.266115         7.2413 
 139   0.0000       0.269546         7.3347 
 140   0.0000       0.271837         7.3971 
 141   0.0000       0.274740         7.4761 
 142   0.0000       0.281688         7.6651 
 143   0.0000       0.282283         7.6813 
 144   0.0000       0.285235         7.7616 
 145   0.0000       0.287075         7.8117 
 146   0.0000       0.289907         7.8888 
 147   0.0000       0.296701         8.0736 
 148   0.0000       0.297436         8.0937 
 149   0.0000       0.299569         8.1517 
 150   0.0000       0.302042         8.2190 
 151   0.0000       0.303552         8.2601 
 152   0.0000       0.307638         8.3713 
 153   0.0000       0.308469         8.3939 
 154   0.0000       0.313505         8.5309 
 155   0.0000       0.313805         8.5391 
 156   0.0000       0.324531         8.8309 
 157   0.0000       0.325680         8.8622 
 158   0.0000       0.329304         8.9608 
 159   0.0000       0.333021         9.0620 
 160   0.0000       0.339449         9.2369 
 161   0.0000       0.340466         9.2646 
 162   0.0000       0.341195         9.2844 
 163   0.0000       0.357847         9.7375 
 164   0.0000       0.365866         9.9557 
 165   0.0000       0.366468         9.9721 
 166   0.0000       0.368794        10.0354 
 167   0.0000       0.369155        10.0452 
 168   0.0000       0.372107        10.1256 
 169   0.0000       0.377811        10.2808 
 170   0.0000       0.389252        10.5921 
 171   0.0000       0.390598        10.6287 
 172   0.0000       0.396389        10.7863 
 173   0.0000       0.400491        10.8979 
 174   0.0000       0.405515        11.0346 
 175   0.0000       0.406011        11.0481 
 176   0.0000       0.415265        11.2999 
 177   0.0000       0.418179        11.3792 
 178   0.0000       0.418555        11.3895 
 179   0.0000       0.424112        11.5407 
 180   0.0000       0.428533        11.6610 
 181   0.0000       0.433527        11.7969 
 182   0.0000       0.434370        11.8198 
 183   0.0000       0.437684        11.9100 
 184   0.0000       0.441432        12.0120 
 185   0.0000       0.449136        12.2216 
 186   0.0000       0.454799        12.3757 
 187   0.0000       0.458497        12.4763 
 188   0.0000       0.467369        12.7178 
 189   0.0000       0.471728        12.8364 
 190   0.0000       0.472288        12.8516 
 191   0.0000       0.473725        12.8907 
 192   0.0000       0.480924        13.0866 
 193   0.0000       0.486147        13.2287 
 194   0.0000       0.490389        13.3442 
 195   0.0000       0.502003        13.6602 
 196   0.0000       0.505243        13.7484 
 197   0.0000       0.511496        13.9185 
 198   0.0000       0.514879        14.0106 
 199   0.0000       0.524369        14.2688 
 200   0.0000       0.531210        14.4550 
 201   0.0000       0.536014        14.5857 
 202   0.0000       0.545354        14.8398 
 203   0.0000       0.548231        14.9181 
 204   0.0000       0.549671        14.9573 
 205   0.0000       0.555798        15.1240 
 206   0.0000       0.561211        15.2713 
 207   0.0000       0.564621        15.3641 
 208   0.0000       0.569613        15.5000 
 209   0.0000       0.576522        15.6880 
 210   0.0000       0.589315        16.0361 
 211   0.0000       0.597289        16.2531 
 212   0.0000       0.597665        16.2633 
 213   0.0000       0.614176        16.7126 
 214   0.0000       0.631093        17.1729 
 215   0.0000       0.635639        17.2966 
 216   0.0000       0.647877        17.6296 
 217   0.0000       0.653813        17.7912 
 218   0.0000       0.656266        17.8579 
 219   0.0000       0.663230        18.0474 
 220   0.0000       0.671849        18.2819 
 221   0.0000       0.675421        18.3791 
 222   0.0000       0.694174        18.8894 
 223   0.0000       0.702473        19.1153 
 224   0.0000       0.715247        19.4629 
 225   0.0000       0.746375        20.3099 
 226   0.0000       0.760323        20.6894 
 227   0.0000       0.763151        20.7664 
 228   0.0000       0.771558        20.9952 
 229   0.0000       0.774861        21.0850 
 230   0.0000       0.797162        21.6919 
 231   0.0000       0.806157        21.9366 
 232   0.0000       0.819972        22.3126 
 233   0.0000       0.827861        22.5272 
 234   0.0000       0.836945        22.7744 
 235   0.0000       0.841948        22.9106 
 236   0.0000       0.844374        22.9766 
 237   0.0000       0.846213        23.0266 
 238   0.0000       0.855803        23.2876 
 239   0.0000       0.858252        23.3542 
 240   0.0000       0.863310        23.4919 
 241   0.0000       0.877723        23.8841 
 242   0.0000       0.887439        24.1484 
 243   0.0000       0.891006        24.2455 
 244   0.0000       0.893304        24.3080 
 245   0.0000       0.896465        24.3941 
 246   0.0000       0.905956        24.6523 
 247   0.0000       0.910568        24.7778 
 248   0.0000       0.915113        24.9015 
 249   0.0000       0.917510        24.9667 
 250   0.0000       0.923240        25.1226 
 251   0.0000       0.927840        25.2478 
 252   0.0000       0.928237        25.2586 
 253   0.0000       0.932002        25.3611 
 254   0.0000       0.936059        25.4715 
 255   0.0000       0.942703        25.6522 
 256   0.0000       0.949480        25.8367 
 257   0.0000       0.956142        26.0180 
 258   0.0000       0.966447        26.2984 
 259   0.0000       0.966780        26.3074 
 260   0.0000       0.969976        26.3944 
 261   0.0000       0.974408        26.5150 
 262   0.0000       0.977453        26.5978 
 263   0.0000       0.982352        26.7311 
 264   0.0000       0.984242        26.7826 
 265   0.0000       0.990403        26.9502 
 266   0.0000       0.994640        27.0655 
 267   0.0000       1.003650        27.3107 
 268   0.0000       1.009404        27.4673 
 269   0.0000       1.016841        27.6697 
 270   0.0000       1.022163        27.8145 
 271   0.0000       1.025151        27.8958 
 272   0.0000       1.031724        28.0746 
 273   0.0000       1.034926        28.1618 
 274   0.0000       1.044569        28.4242 
 275   0.0000       1.051823        28.6216 
 276   0.0000       1.058271        28.7970 
 277   0.0000       1.061906        28.8959 
 278   0.0000       1.074810        29.2471 
 279   0.0000       1.087343        29.5881 
 280   0.0000       1.090125        29.6638 
 281   0.0000       1.101390        29.9703 
 282   0.0000       1.102015        29.9874 
 283   0.0000       1.103659        30.0321 
 284   0.0000       1.117533        30.4096 
 285   0.0000       1.120228        30.4830 
 286   0.0000       1.136656        30.9300 
 287   0.0000       1.149453        31.2782 
 288   0.0000       1.155789        31.4506 
 289   0.0000       1.171897        31.8889 
 290   0.0000       1.176844        32.0235 
 291   0.0000       1.178322        32.0638 
 292   0.0000       1.184225        32.2244 
 293   0.0000       1.199802        32.6483 
 294   0.0000       1.203681        32.7538 
 295   0.0000       1.205944        32.8154 
 296   0.0000       1.217728        33.1361 
 297   0.0000       1.218596        33.1597 
 298   0.0000       1.233957        33.5777 
 299   0.0000       1.241974        33.7958 
 300   0.0000       1.243151        33.8279 
 301   0.0000       1.260297        34.2944 
 302   0.0000       1.281211        34.8635 
 303   0.0000       1.282005        34.8851 
 304   0.0000       1.292846        35.1801 
 305   0.0000       1.297898        35.3176 
 306   0.0000       1.308737        35.6126 
 307   0.0000       1.319184        35.8968 
 308   0.0000       1.324055        36.0294 
 309   0.0000       1.333529        36.2872 
 310   0.0000       1.340956        36.4893 
 311   0.0000       1.353150        36.8211 
 312   0.0000       1.355621        36.8883 
 313   0.0000       1.364385        37.1268 
 314   0.0000       1.373175        37.3660 
 315   0.0000       1.382336        37.6153 
 316   0.0000       1.390229        37.8301 
 317   0.0000       1.413017        38.4501 
 318   0.0000       1.419524        38.6272 
 319   0.0000       1.421801        38.6892 
 320   0.0000       1.424375        38.7592 
 321   0.0000       1.428200        38.8633 
 322   0.0000       1.429594        38.9012 
 323   0.0000       1.438682        39.1485 
 324   0.0000       1.439449        39.1694 
 325   0.0000       1.447299        39.3830 
 326   0.0000       1.459351        39.7110 
 327   0.0000       1.475377        40.1471 
 328   0.0000       1.484496        40.3952 
 329   0.0000       1.489140        40.5216 
 330   0.0000       1.489662        40.5358 
 331   0.0000       1.498003        40.7627 
 332   0.0000       1.505939        40.9787 
 333   0.0000       1.513441        41.1828 
 334   0.0000       1.513689        41.1896 
 335   0.0000       1.539218        41.8842 
 336   0.0000       1.549246        42.1571 
 337   0.0000       1.553181        42.2642 
 338   0.0000       1.554827        42.3090 
 339   0.0000       1.558571        42.4109 
 340   0.0000       1.559258        42.4296 
 341   0.0000       1.574717        42.8502 
 342   0.0000       1.579074        42.9688 
 343   0.0000       1.591097        43.2960 
 344   0.0000       1.598018        43.4843 
 345   0.0000       1.602113        43.5957 
 346   0.0000       1.604380        43.6574 
 347   0.0000       1.611564        43.8529 
 348   0.0000       1.612682        43.8833 
 349   0.0000       1.615737        43.9664 
 350   0.0000       1.622615        44.1536 
 351   0.0000       1.627263        44.2801 
 352   0.0000       1.629362        44.3372 
 353   0.0000       1.630815        44.3767 
 354   0.0000       1.638965        44.5985 
 355   0.0000       1.649820        44.8939 
 356   0.0000       1.665521        45.3211 
 357   0.0000       1.668256        45.3956 
 358   0.0000       1.670816        45.4652 
 359   0.0000       1.672603        45.5138 
 360   0.0000       1.684196        45.8293 
 361   0.0000       1.684471        45.8368 
 362   0.0000       1.697152        46.1818 
 363   0.0000       1.701789        46.3080 
 364   0.0000       1.706422        46.4341 
 365   0.0000       1.711252        46.5655 
 366   0.0000       1.725391        46.9503 
 367   0.0000       1.727229        47.0003 
 368   0.0000       1.733706        47.1765 
 369   0.0000       1.742710        47.4215 
 370   0.0000       1.756000        47.7832 
 371   0.0000       1.757032        47.8113 
 372   0.0000       1.758352        47.8472 
 373   0.0000       1.763222        47.9797 
 374   0.0000       1.770456        48.1765 
 375   0.0000       1.772439        48.2305 
 376   0.0000       1.781759        48.4841 
 377   0.0000       1.785830        48.5949 
 378   0.0000       1.792096        48.7654 
 379   0.0000       1.797271        48.9062 
 380   0.0000       1.806166        49.1483 
 381   0.0000       1.821162        49.5563 
 382   0.0000       1.827098        49.7179 
 383   0.0000       1.836526        49.9744 
 384   0.0000       1.844339        50.1870 
 385   0.0000       1.847199        50.2648 
 386   0.0000       1.848019        50.2872 
 387   0.0000       1.864254        50.7289 
 388   0.0000       1.889962        51.4285 
 389   0.0000       1.899886        51.6985 
 390   0.0000       1.913353        52.0650 
 391   0.0000       1.919751        52.2391 
 392   0.0000       1.926480        52.4222 
 393   0.0000       1.942038        52.8455 
 394   0.0000       1.949053        53.0364 
 395   0.0000       1.951385        53.0999 
 396   0.0000       1.959150        53.3112 
 397   0.0000       1.961625        53.3785 
 398   0.0000       1.982922        53.9581 
 399   0.0000       2.013057        54.7781 
 400   0.0000       2.029115        55.2150 
 401   0.0000       2.033600        55.3371 
 402   0.0000       2.045289        55.6551 
 403   0.0000       2.049207        55.7618 
 404   0.0000       2.064059        56.1659 
 405   0.0000       2.080250        56.6065 
 406   0.0000       2.091126        56.9024 
 407   0.0000       2.097502        57.0759 
 408   0.0000       2.127232        57.8849 
 409   0.0000       2.134847        58.0922 
 410   0.0000       2.137520        58.1649 
 411   0.0000       2.155675        58.6589 
 412   0.0000       2.159189        58.7545 
 413   0.0000       2.182432        59.3870 
 414   0.0000       2.209853        60.1332 
 415   0.0000       2.216255        60.3074 
 416   0.0000       2.229416        60.6655 
 417   0.0000       2.236739        60.8648 
 418   0.0000       2.250059        61.2272 
 419   0.0000       2.250936        61.2511 
 420   0.0000       2.256694        61.4078 
 421   0.0000       2.264755        61.6271 
 422   0.0000       2.301311        62.6219 
 423   0.0000       2.306159        62.7538 
 424   0.0000       2.311382        62.8959 
 425   0.0000       2.319767        63.1241 
 426   0.0000       2.320531        63.1448 
 427   0.0000       2.322687        63.2035 
 428   0.0000       2.346124        63.8413 
 429   0.0000       2.348982        63.9190 
 430   0.0000       2.384756        64.8925 
 431   0.0000       2.389525        65.0223 
 432   0.0000       2.399115        65.2832 
 433   0.0000       2.406898        65.4950 
 434   0.0000       2.412935        65.6593 
 435   0.0000       2.418665        65.8152 
 436   0.0000       2.433568        66.2207 
 437   0.0000       2.449286        66.6485 
 438   0.0000       2.450492        66.6813 
 439   0.0000       2.454474        66.7896 
 440   0.0000       2.456344        66.8405 
 441   0.0000       2.470126        67.2155 
 442   0.0000       2.477063        67.4043 
 443   0.0000       2.479569        67.4725 
 444   0.0000       2.493813        67.8601 
 445   0.0000       2.507438        68.2309 
 446   0.0000       2.512624        68.3720 
 447   0.0000       2.519367        68.5555 
 448   0.0000       2.520593        68.5888 
 449   0.0000       2.541364        69.1540 
 450   0.0000       2.545910        69.2777 
 451   0.0000       2.556946        69.5780 
 452   0.0000       2.569532        69.9205 
 453   0.0000       2.574849        70.0652 
 454   0.0000       2.582709        70.2791 
 455   0.0000       2.607954        70.9660 
 456   0.0000       2.609377        71.0048 
 457   0.0000       2.616846        71.2080 
 458   0.0000       2.625749        71.4503 
 459   0.0000       2.628277        71.5190 
 460   0.0000       2.666420        72.5570 
 461   0.0000       2.718468        73.9733 
 462   0.0000       2.732707        74.3607 
 463   0.0000       2.778325        75.6021 
 464   0.0000       2.783651        75.7470 
 465   0.0000       2.816902        76.6518 
 466   0.0000       2.926033        79.6214 
 467   0.0000       3.045991        82.8856 
 468   0.0000       3.234131        88.0052 
 469   0.0000       3.416715        92.9735 
 470   0.0000       4.979913       135.5103 
 471   0.0000       4.983321       135.6031 
 472   0.0000       4.995274       135.9283 
 473   0.0000       5.005212       136.1987 
 474   0.0000       5.007623       136.2643 
 475   0.0000       5.010432       136.3408 
 476   0.0000       5.015613       136.4818 
 477   0.0000       5.028950       136.8447 
 478   0.0000       5.033358       136.9646 
 479   0.0000       5.041635       137.1899 
 480   0.0000       5.046433       137.3204 
 481   0.0000       5.077540       138.1669 
 482   0.0000       5.083481       138.3286 
 483   0.0000       5.158774       140.3774 
 484   0.0000       5.185665       141.1091 
 485   0.0000       5.216653       141.9523 
 486   0.0000       5.230202       142.3210 
 487   0.0000       5.234835       142.4471 
 488   0.0000       5.236667       142.4970 
 489   0.0000       5.260239       143.1384 
 490   0.0000       5.279577       143.6646 
 491   0.0000       5.295132       144.0879 
 492   0.0000       5.298209       144.1716 
 493   0.0000       5.305248       144.3631 
 494   0.0000       5.307575       144.4265 
 495   0.0000       5.342673       145.3815 
 496   0.0000       5.356284       145.7519 
 497   0.0000       5.367475       146.0564 
 498   0.0000       5.393104       146.7538 
 499   0.0000       5.435860       147.9173 
 500   0.0000       5.444481       148.1519 
 501   0.0000       5.467652       148.7824 
 502   0.0000       5.489749       149.3837 
 503   0.0000       5.540951       150.7769 
 504   0.0000       5.552353       151.0872 
 505   0.0000       5.588141       152.0611 
 506   0.0000       5.607107       152.5771 
 507   0.0000       5.630695       153.2190 
 508   0.0000       5.660666       154.0345 
 509   0.0000       5.679605       154.5499 
 510   0.0000       5.736969       156.1109 
 511   0.0000       5.752460       156.5324 
 512   0.0000       5.803997       157.9348 
 513   0.0000       5.850629       159.2037 
 514   0.0000       5.872245       159.7919 
 515   0.0000       5.905447       160.6954 
 516   0.0000       6.128601       166.7677 
 517   0.0000       6.296962       171.3490 
 518   0.0000      29.584332       805.0306 
 519   0.0000      29.707494       808.3820 
 520   0.0000      29.762248       809.8719 
 521   0.0000      29.814252       811.2870 
 522   0.0000      29.835484       811.8648 
 523   0.0000      29.844524       812.1108 
 524   0.0000      29.874739       812.9330 
 525   0.0000      29.950750       815.0013 
 526   0.0000      29.972944       815.6053 
 527   0.0000      29.984905       815.9308 
 528   0.0000      30.019917       816.8835 
 529   0.0000      30.043939       817.5371 
 530   0.0000      30.064834       818.1057 
 531   0.0000      30.110120       819.3380 
 532   0.0000      30.113857       819.4397 
 533   0.0000      30.136973       820.0687 
 534   0.0000      30.183781       821.3424 
 535   0.0000      30.236369       822.7734 
 536   0.0000      30.243804       822.9757 
 537   0.0000      30.271834       823.7385 
 538   0.0000      30.291642       824.2775 
 539   0.0000      30.445528       828.4649 
 540   0.0000      30.521071       830.5206 
 541   0.0000      36.606334       996.1090 
 542   0.0000      36.609666       996.1996 
 543   0.0000      36.622133       996.5389 
 544   0.0000      36.626691       996.6629 
 545   0.0000      36.631147       996.7842 
 546   0.0000      36.635144       996.8929 
 547   0.0000      36.653471       997.3916 
 548   0.0000      36.658218       997.5208 
 549   0.0000      36.665248       997.7121 
 550   0.0000      36.669578       997.8300 
 551   0.0000      36.688946       998.3570 
 552   0.0000      36.702745       998.7325 
 553   0.0000      36.773242      1000.6508 
 554   0.0000      36.810383      1001.6614 
 555   0.0000      36.821027      1001.9511 
 556   0.0000      36.849779      1002.7335 
 557   0.0000      36.861189      1003.0439 
 558   0.0000      36.873717      1003.3848 
 559   0.0000      36.879053      1003.5301 
 560   0.0000      36.917533      1004.5772 
 561   0.0000      36.926808      1004.8295 
 562   0.0000      36.931718      1004.9631 
 563   0.0000      36.991502      1006.5899 
 564   0.0000      37.017604      1007.3002 
 565   0.0000      37.026780      1007.5499 

                 SPIN DOWN ORBITALS
  NO   OCC          E(Eh)            E(eV) 
   0   1.0000     -10.249225      -278.8956 
   1   1.0000     -10.242405      -278.7100 
   2   1.0000     -10.225194      -278.2417 
   3   1.0000     -10.224894      -278.2335 
   4   1.0000     -10.220444      -278.1124 
   5   1.0000     -10.220302      -278.1086 
   6   1.0000     -10.220283      -278.1080 
   7   1.0000     -10.219603      -278.0895 
   8   1.0000     -10.219089      -278.0755 
   9   1.0000     -10.217414      -278.0300 
  10   1.0000     -10.217290      -278.0266 
  11   1.0000     -10.212582      -277.8985 
  12   1.0000     -10.208711      -277.7931 
  13   1.0000     -10.196002      -277.4473 
  14   1.0000     -10.195268      -277.4273 
  15   1.0000     -10.188764      -277.2504 
  16   1.0000     -10.188011      -277.2299 
  17   1.0000     -10.187206      -277.2080 
  18   1.0000     -10.184095      -277.1233 
  19   1.0000     -10.182593      -277.0825 
  20   1.0000     -10.178765      -276.9783 
  21   1.0000     -10.176159      -276.9074 
  22   1.0000     -10.173808      -276.8434 
  23   1.0000      -0.881592       -23.9893 
  24   1.0000      -0.877397       -23.8752 
  25   1.0000      -0.821326       -22.3494 
  26   1.0000      -0.806871       -21.9561 
  27   1.0000      -0.795220       -21.6390 
  28   1.0000      -0.783544       -21.3213 
  29   1.0000      -0.770059       -20.9544 
  30   1.0000      -0.765310       -20.8252 
  31   1.0000      -0.737747       -20.0751 
  32   1.0000      -0.732306       -19.9271 
  33   1.0000      -0.702577       -19.1181 
  34   1.0000      -0.664002       -18.0684 
  35   1.0000      -0.655547       -17.8383 
  36   1.0000      -0.631469       -17.1832 
  37   1.0000      -0.623872       -16.9764 
  38   1.0000      -0.623523       -16.9669 
  39   1.0000      -0.596171       -16.2226 
  40   1.0000      -0.581122       -15.8131 
  41   1.0000      -0.566698       -15.4206 
  42   1.0000      -0.554818       -15.0974 
  43   1.0000      -0.525027       -14.2867 
  44   1.0000      -0.517840       -14.0911 
  45   1.0000      -0.494601       -13.4588 
  46   1.0000      -0.479671       -13.0525 
  47   1.0000      -0.476082       -12.9548 
  48   1.0000      -0.471259       -12.8236 
  49   1.0000      -0.471123       -12.8199 
  50   1.0000      -0.450783       -12.2664 
  51   1.0000      -0.439280       -11.9534 
  52   1.0000      -0.438846       -11.9416 
  53   1.0000      -0.428591       -11.6625 
  54   1.0000      -0.428071       -11.6484 
  55   1.0000      -0.424966       -11.5639 
  56   1.0000      -0.419186       -11.4066 
  57   1.0000      -0.413363       -11.2482 
  58   1.0000      -0.406497       -11.0613 
  59   1.0000      -0.397532       -10.8174 
  60   1.0000      -0.382718       -10.4143 
  61   1.0000      -0.376295       -10.2395 
  62   1.0000      -0.373873       -10.1736 
  63   1.0000      -0.368179       -10.0187 
  64   1.0000      -0.365893        -9.9565 
  65   1.0000      -0.362949        -9.8763 
  66   1.0000      -0.360399        -9.8070 
  67   1.0000      -0.348627        -9.4866 
  68   1.0000      -0.336040        -9.1441 
  69   1.0000      -0.331883        -9.0310 
  70   1.0000      -0.330604        -8.9962 
  71   1.0000      -0.328135        -8.9290 
  72   1.0000      -0.326769        -8.8918 
  73   1.0000      -0.322946        -8.7878 
  74   1.0000      -0.322234        -8.7684 
  75   1.0000      -0.288427        -7.8485 
  76   1.0000      -0.286637        -7.7998 
  77   1.0000      -0.272983        -7.4282 
  78   1.0000      -0.255554        -6.9540 
  79   1.0000      -0.233400        -6.3511 
  80   1.0000      -0.233127        -6.3437 
  81   0.0000      -0.104600        -2.8463 
  82   0.0000      -0.042310        -1.1513 
  83   0.0000      -0.027876        -0.7585 
  84   0.0000      -0.018603        -0.5062 
  85   0.0000      -0.011814        -0.3215 
  86   0.0000       0.006426         0.1748 
  87   0.0000       0.018438         0.5017 
  88   0.0000       0.021081         0.5737 
  89   0.0000       0.022312         0.6071 
  90   0.0000       0.027902         0.7592 
  91   0.0000       0.028843         0.7849 
  92   0.0000       0.031707         0.8628 
  93   0.0000       0.035735         0.9724 
  94   0.0000       0.045539         1.2392 
  95   0.0000       0.048309         1.3146 
  96   0.0000       0.053930         1.4675 
  97   0.0000       0.061409         1.6710 
  98   0.0000       0.070118         1.9080 
  99   0.0000       0.078580         2.1383 
 100   0.0000       0.080488         2.1902 
 101   0.0000       0.082424         2.2429 
 102   0.0000       0.091257         2.4832 
 103   0.0000       0.102385         2.7860 
 104   0.0000       0.105838         2.8800 
 105   0.0000       0.113530         3.0893 
 106   0.0000       0.120026         3.2661 
 107   0.0000       0.130038         3.5385 
 108   0.0000       0.134650         3.6640 
 109   0.0000       0.146228         3.9791 
 110   0.0000       0.149313         4.0630 
 111   0.0000       0.155297         4.2258 
 112   0.0000       0.161720         4.4006 
 113   0.0000       0.173899         4.7320 
 114   0.0000       0.174670         4.7530 
 115   0.0000       0.176374         4.7994 
 116   0.0000       0.186798         5.0830 
 117   0.0000       0.187099         5.0912 
 118   0.0000       0.191620         5.2143 
 119   0.0000       0.195534         5.3208 
 120   0.0000       0.197798         5.3824 
 121   0.0000       0.199100         5.4178 
 122   0.0000       0.205663         5.5964 
 123   0.0000       0.208176         5.6648 
 124   0.0000       0.210590         5.7305 
 125   0.0000       0.213828         5.8186 
 126   0.0000       0.214795         5.8449 
 127   0.0000       0.215548         5.8653 
 128   0.0000       0.228976         6.2308 
 129   0.0000       0.233265         6.3475 
 130   0.0000       0.234929         6.3927 
 131   0.0000       0.242326         6.5940 
 132   0.0000       0.244112         6.6426 
 133   0.0000       0.244776         6.6607 
 134   0.0000       0.251083         6.8323 
 135   0.0000       0.252681         6.8758 
 136   0.0000       0.257756         7.0139 
 137   0.0000       0.266041         7.2394 
 138   0.0000       0.267418         7.2768 
 139   0.0000       0.271416         7.3856 
 140   0.0000       0.272078         7.4036 
 141   0.0000       0.275777         7.5043 
 142   0.0000       0.281755         7.6670 
 143   0.0000       0.282345         7.6830 
 144   0.0000       0.285222         7.7613 
 145   0.0000       0.287395         7.8204 
 146   0.0000       0.290131         7.8949 
 147   0.0000       0.296811         8.0766 
 148   0.0000       0.297722         8.1014 
 149   0.0000       0.299976         8.1628 
 150   0.0000       0.302435         8.2297 
 151   0.0000       0.304529         8.2867 
 152   0.0000       0.308409         8.3922 
 153   0.0000       0.308527         8.3955 
 154   0.0000       0.313475         8.5301 
 155   0.0000       0.314683         8.5630 
 156   0.0000       0.325124         8.8471 
 157   0.0000       0.326216         8.8768 
 158   0.0000       0.330275         8.9872 
 159   0.0000       0.332977         9.0608 
 160   0.0000       0.340266         9.2591 
 161   0.0000       0.341015         9.2795 
 162   0.0000       0.341470         9.2919 
 163   0.0000       0.359609         9.7855 
 164   0.0000       0.366704         9.9785 
 165   0.0000       0.368545        10.0286 
 166   0.0000       0.369200        10.0465 
 167   0.0000       0.371933        10.1208 
 168   0.0000       0.372958        10.1487 
 169   0.0000       0.381123        10.3709 
 170   0.0000       0.391617        10.6564 
 171   0.0000       0.394260        10.7284 
 172   0.0000       0.399498        10.8709 
 173   0.0000       0.404009        10.9936 
 174   0.0000       0.405532        11.0351 
 175   0.0000       0.407005        11.0752 
 176   0.0000       0.415377        11.3030 
 177   0.0000       0.420181        11.4337 
 178   0.0000       0.421289        11.4639 
 179   0.0000       0.424679        11.5561 
 180   0.0000       0.429316        11.6823 
 181   0.0000       0.434567        11.8252 
 182   0.0000       0.435158        11.8412 
 183   0.0000       0.438247        11.9253 
 184   0.0000       0.444914        12.1067 
 185   0.0000       0.450354        12.2548 
 186   0.0000       0.456398        12.4192 
 187   0.0000       0.459213        12.4958 
 188   0.0000       0.468570        12.7504 
 189   0.0000       0.472782        12.8651 
 190   0.0000       0.472928        12.8690 
 191   0.0000       0.474395        12.9090 
 192   0.0000       0.481989        13.1156 
 193   0.0000       0.487348        13.2614 
 194   0.0000       0.490429        13.3452 
 195   0.0000       0.502320        13.6688 
 196   0.0000       0.508839        13.8462 
 197   0.0000       0.512039        13.9333 
 198   0.0000       0.517066        14.0701 
 199   0.0000       0.525719        14.3056 
 200   0.0000       0.534871        14.5546 
 201   0.0000       0.538419        14.6511 
 202   0.0000       0.545861        14.8536 
 203   0.0000       0.549472        14.9519 
 204   0.0000       0.551091        14.9960 
 205   0.0000       0.559306        15.2195 
 206   0.0000       0.560761        15.2591 
 207   0.0000       0.569289        15.4911 
 208   0.0000       0.572298        15.5730 
 209   0.0000       0.578739        15.7483 
 210   0.0000       0.590608        16.0713 
 211   0.0000       0.597734        16.2652 
[...]
 40:    611.82   0.000110    0.56  0.000056  (-0.006586 -0.003581 -0.000008)
 41:    629.63   0.000021    0.11  0.000010  (-0.002502 -0.002011  0.000009)
 42:    647.11   0.000790    3.99  0.000381  (-0.000024 -0.000053  0.019518)
 43:    662.20   0.000803    4.06  0.000378  (-0.018161  0.006968  0.000036)
 44:    709.54   0.003704   18.72  0.001629  (-0.000037  0.000168 -0.040359)
 45:    738.89   0.000041    0.21  0.000017  ( 0.000034  0.000048 -0.004170)
 46:    751.74   0.000035    0.18  0.000015  ( 0.000337 -0.003800 -0.000007)
 47:    770.89   0.001590    8.04  0.000644  ( 0.000067  0.000067 -0.025373)
 48:    778.18   0.000061    0.31  0.000024  (-0.000017  0.000002 -0.004939)
 49:    798.34   0.000277    1.40  0.000108  (-0.010400 -0.000235 -0.000073)
 50:    805.46   0.011791   59.59  0.004568  ( 0.000109  0.000267 -0.067588)
 51:    819.00   0.000213    1.08  0.000081  ( 0.000014 -0.000023  0.009012)
 52:    825.32   0.000118    0.59  0.000044  ( 0.000017  0.000024 -0.006669)
 53:    888.51   0.000001    0.01  0.000000  ( 0.000020  0.000050  0.000664)
 54:    889.62   0.000307    1.55  0.000108  (-0.001018  0.010326  0.000016)
 55:    928.25   0.000254    1.29  0.000086  ( 0.008322  0.004035  0.000019)
 56:    930.20   0.001506    7.61  0.000505  ( 0.007245  0.021275  0.000055)
 57:    936.34   0.000626    3.16  0.000208  (-0.000004 -0.000028 -0.014439)
 58:    946.14   0.000684    3.46  0.000226  (-0.000016  0.000066 -0.015023)
 59:    968.04   0.000580    2.93  0.000187  ( 0.000054  0.000111 -0.013669)
 60:    979.63   0.001054    5.33  0.000336  ( 0.000027  0.000004  0.018322)
 61:    989.14   0.002556   12.92  0.000806  (-0.000057  0.000102 -0.028395)
 62:   1008.44   0.000327    1.65  0.000101  ( 0.010053 -0.000343 -0.000001)
 63:   1019.88   0.000001    0.01  0.000000  ( 0.000050 -0.000015  0.000607)
 64:   1034.01   0.000091    0.46  0.000028  ( 0.005102  0.001241  0.000004)
 65:   1035.79   0.000001    0.00  0.000000  ( 0.000018 -0.000028 -0.000455)
 66:   1040.95   0.000197    0.99  0.000059  (-0.006173  0.004573  0.000003)
 67:   1055.72   0.000446    2.25  0.000132  ( 0.011276  0.002177 -0.000002)
 68:   1080.97   0.000093    0.47  0.000027  ( 0.005064  0.001116  0.000003)
 69:   1081.44   0.000026    0.13  0.000008  (-0.000074 -0.002756 -0.000006)
 70:   1107.90   0.001095    5.53  0.000308  (-0.015226  0.008753  0.000021)
 71:   1112.35   0.001149    5.80  0.000322  ( 0.000850  0.017930  0.000013)
 72:   1123.53   0.001072    5.42  0.000298  ( 0.013336  0.010952  0.000042)
 73:   1133.73   0.002401   12.14  0.000661  (-0.025403  0.003958  0.000002)
 74:   1141.09   0.000000    0.00  0.000000  ( 0.000006  0.000013 -0.000168)
 75:   1146.61   0.000005    0.03  0.000001  (-0.000059  0.000005 -0.001222)
 76:   1178.46   0.001051    5.31  0.000278  (-0.007296  0.015004  0.000037)
 77:   1193.83   0.000018    0.09  0.000005  ( 0.000618 -0.002108 -0.000002)
 78:   1198.52   0.002924   14.78  0.000761  ( 0.027531 -0.001873  0.000003)
 79:   1210.59   0.000184    0.93  0.000047  ( 0.006803  0.001070  0.000002)
 80:   1254.53   0.000002    0.01  0.000000  (-0.000006 -0.000005  0.000660)
 81:   1259.81   0.000000    0.00  0.000000  ( 0.000000  0.000025 -0.000101)
 82:   1277.27   0.027367  138.30  0.006686  (-0.081551 -0.005992 -0.000061)
 83:   1288.39   0.000620    3.13  0.000150  ( 0.010787  0.005808  0.000016)
 84:   1295.57   0.000150    0.76  0.000036  ( 0.003777  0.004679  0.000016)
 85:   1297.85   0.003657   18.48  0.000879  ( 0.027544  0.010985  0.000041)
 86:   1327.36   0.000014    0.07  0.000003  (-0.000033  0.000028  0.001829)
 87:   1331.40   0.008355   42.22  0.001958  (-0.027221  0.034889  0.000076)
 88:   1335.48   0.000906    4.58  0.000212  ( 0.006888 -0.012815 -0.000029)
 89:   1336.96   0.000071    0.36  0.000017  (-0.000003  0.000030 -0.004067)
 90:   1344.79   0.000098    0.49  0.000023  ( 0.000025  0.000015 -0.004759)
 91:   1350.97   0.000044    0.22  0.000010  (-0.000003 -0.000009  0.003194)
 92:   1371.24   0.046384  234.40  0.010556  (-0.102069  0.011734 -0.000015)
 93:   1379.69   0.000140    0.71  0.000032  ( 0.001036 -0.005528 -0.000006)
 94:   1383.59   0.007698   38.90  0.001736  ( 0.041667  0.000417  0.000021)
 95:   1392.49   0.000770    3.89  0.000173  (-0.009396 -0.009186 -0.000031)
 96:   1422.29   0.002678   13.53  0.000588  (-0.005718  0.023555  0.000052)
 97:   1424.59   0.001642    8.30  0.000360  (-0.014074  0.012714  0.000024)
 98:   1430.50   0.000634    3.21  0.000138  ( 0.010861 -0.004522  0.000002)
 99:   1432.21   0.000521    2.64  0.000114  ( 0.008314 -0.006671 -0.000007)
100:   1448.47   0.032044  161.94  0.006904  ( 0.068433  0.047123  0.000164)
101:   1475.53   0.002013   10.17  0.000426  ( 0.020216 -0.004122  0.000004)
102:   1477.99   0.001180    5.96  0.000249  ( 0.000002  0.015784  0.000023)
103:   1484.34   0.001162    5.87  0.000244  ( 0.013480  0.007908  0.000022)
104:   1498.38   0.000491    2.48  0.000102  ( 0.002494  0.009798  0.000021)
105:   1498.79   0.000670    3.39  0.000139  (-0.005127  0.010639  0.000022)
106:   1509.20   0.002599   13.13  0.000537  (-0.019592  0.012392  0.000028)
107:   1509.72   0.000827    4.18  0.000171  ( 0.012750 -0.002890  0.000002)
108:   1511.79   0.001841    9.30  0.000380  ( 0.000023  0.000049 -0.019494)
109:   1511.87   0.001696    8.57  0.000350  (-0.000027 -0.000054  0.018708)
110:   1514.87   0.015010   75.86  0.003092  ( 0.036952 -0.041553 -0.000101)
111:   1523.89   0.003286   16.60  0.000673  ( 0.024961  0.007058  0.000040)
112:   1524.55   0.003783   19.12  0.000774  (-0.027787 -0.001465 -0.000029)
113:   1527.75   0.000655    3.31  0.000134  (-0.009835 -0.006091 -0.000021)
114:   1539.74   0.005347   27.02  0.001084  (-0.028883 -0.015793 -0.000048)
115:   1622.59   0.000238    1.20  0.000046  ( 0.001091 -0.006676 -0.000008)
116:   1645.49   0.101493  512.90  0.019248  (-0.138476 -0.008494 -0.000075)
117:   1660.07   0.010674   53.94  0.002007  ( 0.044743  0.002146  0.000020)
118:   2284.74   0.049832  251.83  0.006806  ( 0.082500 -0.000369  0.000014)
119:   2939.25   0.000331    1.67  0.000035  ( 0.004153  0.004228  0.000015)
120:   2940.08   0.000486    2.46  0.000052  (-0.005813  0.004218  0.000003)
121:   2943.75   0.001202    6.08  0.000127  (-0.011290 -0.000043 -0.000021)
122:   2944.70   0.002583   13.05  0.000274  (-0.016337 -0.002611 -0.000033)
123:   2951.80   0.004172   21.08  0.000441  (-0.020870 -0.002342 -0.000041)
124:   2952.04   0.008094   40.90  0.000856  (-0.028735 -0.005465 -0.000044)
125:   2956.00   0.007842   39.63  0.000828  ( 0.019608 -0.021058 -0.000018)
126:   2956.51   0.008438   42.64  0.000891  (-0.020773  0.021427  0.000036)
127:   2960.26   0.000475    2.40  0.000050  (-0.000025  0.000031 -0.007078)
128:   2960.54   0.000003    0.01  0.000000  (-0.000027 -0.000001  0.000525)
129:   2968.41   0.000023    0.12  0.000002  (-0.000009 -0.000002  0.001568)
130:   2972.53   0.000305    1.54  0.000032  (-0.000006  0.000012 -0.005661)
131:   2993.21   0.000899    4.54  0.000094  ( 0.000013  0.000023 -0.009679)
132:   2993.40   0.011935   60.31  0.001244  (-0.000042 -0.000087  0.035273)
133:   3017.33   0.013140   66.40  0.001359  ( 0.000049  0.000088 -0.036864)
134:   3018.21   0.013764   69.56  0.001423  (-0.000044 -0.000094  0.037724)
135:   3025.69   0.012054   60.91  0.001243  ( 0.025448  0.024405  0.000098)
136:   3025.74   0.004908   24.80  0.000506  ( 0.017316  0.014366  0.000058)
137:   3113.87   0.000747    3.77  0.000075  ( 0.008652 -0.000022  0.000001)
138:   3121.74   0.001231    6.22  0.000123  ( 0.000653  0.011074  0.000013)
139:   3134.47   0.004054   20.49  0.000404  (-0.020058  0.001118 -0.000003)
140:   3141.45   0.003294   16.65  0.000327  (-0.001712 -0.018009 -0.000019)
141:   3141.91   0.002648   13.38  0.000263  ( 0.004114 -0.015686 -0.000030)
142:   3146.98   0.003386   17.11  0.000336  ( 0.018302 -0.000918  0.000002)
143:   3163.31   0.000586    2.96  0.000058  (-0.001749  0.007398  0.000020)

* The epsilon (eps) is given for a Dirac delta lineshape.
** The dipole moment derivative (T) already includes vibrational overlap.

The first frequency considered to be a vibration is 8
The total number of vibrations considered is 136


--------------------------
THERMOCHEMISTRY AT 298.15K
--------------------------

Temperature         ... 298.15 K
Pressure            ... 1.00 atm
Total Mass          ... 301.45 AMU

Throughout the following assumptions are being made:
  (1) The electronic state is orbitally nondegenerate
      but the spin degeneracy is treated
  (2) There are no thermally accessible electronically excited states
  (3) Hindered rotations indicated by low frequency modes are not
      treated as such but are treated as vibrations and this may
      cause some error
  (4) All equations used are the standard statistical mechanics
      equations for an ideal gas
  (5) All vibrations are strictly harmonic

freq.       9.64  E(vib)   ...       0.58 
freq.      36.27  E(vib)   ...       0.54 
freq.      59.14  E(vib)   ...       0.51 
freq.      68.55  E(vib)   ...       0.50 
freq.      84.62  E(vib)   ...       0.48 
freq.      86.61  E(vib)   ...       0.48 
freq.     128.17  E(vib)   ...       0.43 
freq.     133.43  E(vib)   ...       0.42 
freq.     147.92  E(vib)   ...       0.41 
freq.     155.54  E(vib)   ...       0.40 
freq.     161.82  E(vib)   ...       0.39 
freq.     170.53  E(vib)   ...       0.38 
freq.     191.79  E(vib)   ...       0.36 
freq.     199.52  E(vib)   ...       0.35 
freq.     226.72  E(vib)   ...       0.33 
freq.     262.19  E(vib)   ...       0.29 
freq.     271.65  E(vib)   ...       0.29 
freq.     273.36  E(vib)   ...       0.29 
freq.     312.45  E(vib)   ...       0.25 
freq.     332.09  E(vib)   ...       0.24 
freq.     333.57  E(vib)   ...       0.24 
freq.     354.95  E(vib)   ...       0.22 
freq.     397.81  E(vib)   ...       0.20 
freq.     407.67  E(vib)   ...       0.19 
freq.     412.13  E(vib)   ...       0.19 
freq.     443.09  E(vib)   ...       0.17 
freq.     455.42  E(vib)   ...       0.16 
freq.     500.91  E(vib)   ...       0.14 
freq.     511.09  E(vib)   ...       0.14 
freq.     516.85  E(vib)   ...       0.13 
freq.     562.66  E(vib)   ...       0.11 
freq.     567.65  E(vib)   ...       0.11 
freq.     611.82  E(vib)   ...       0.10 
freq.     629.63  E(vib)   ...       0.09 
freq.     647.11  E(vib)   ...       0.09 
freq.     662.20  E(vib)   ...       0.08 
freq.     709.54  E(vib)   ...       0.07 
freq.     738.89  E(vib)   ...       0.06 
freq.     751.74  E(vib)   ...       0.06 
freq.     770.89  E(vib)   ...       0.05 
freq.     778.18  E(vib)   ...       0.05 
freq.     798.34  E(vib)   ...       0.05 
freq.     805.46  E(vib)   ...       0.05 
freq.     819.00  E(vib)   ...       0.05 
freq.     825.32  E(vib)   ...       0.04 
freq.     888.51  E(vib)   ...       0.04 
freq.     889.62  E(vib)   ...       0.04 
freq.     928.25  E(vib)   ...       0.03 
freq.     930.20  E(vib)   ...       0.03 
freq.     936.34  E(vib)   ...       0.03 
freq.     946.14  E(vib)   ...       0.03 
freq.     968.04  E(vib)   ...       0.03 
freq.     979.63  E(vib)   ...       0.03 
freq.     989.14  E(vib)   ...       0.02 
freq.    1008.44  E(vib)   ...       0.02 
freq.    1019.88  E(vib)   ...       0.02 
freq.    1034.01  E(vib)   ...       0.02 
freq.    1035.79  E(vib)   ...       0.02 
freq.    1040.95  E(vib)   ...       0.02 
freq.    1055.72  E(vib)   ...       0.02 
freq.    1080.97  E(vib)   ...       0.02 
freq.    1081.44  E(vib)   ...       0.02 
freq.    1107.90  E(vib)   ...       0.02 
freq.    1112.35  E(vib)   ...       0.01 
freq.    1123.53  E(vib)   ...       0.01 
freq.    1133.73  E(vib)   ...       0.01 
freq.    1141.09  E(vib)   ...       0.01 
freq.    1146.61  E(vib)   ...       0.01 
freq.    1178.46  E(vib)   ...       0.01 
freq.    1193.83  E(vib)   ...       0.01 
freq.    1198.52  E(vib)   ...       0.01 
freq.    1210.59  E(vib)   ...       0.01 
freq.    1254.53  E(vib)   ...       0.01 
freq.    1259.81  E(vib)   ...       0.01 
freq.    1277.27  E(vib)   ...       0.01 
freq.    1288.39  E(vib)   ...       0.01 
freq.    1295.57  E(vib)   ...       0.01 
freq.    1297.85  E(vib)   ...       0.01 
freq.    1327.36  E(vib)   ...       0.01 
freq.    1331.40  E(vib)   ...       0.01 
freq.    1335.48  E(vib)   ...       0.01 
freq.    1336.96  E(vib)   ...       0.01 
freq.    1344.79  E(vib)   ...       0.01 
freq.    1350.97  E(vib)   ...       0.01 
freq.    1371.24  E(vib)   ...       0.01 
freq.    1379.69  E(vib)   ...       0.01 
freq.    1383.59  E(vib)   ...       0.00 
freq.    1392.49  E(vib)   ...       0.00 
freq.    1422.29  E(vib)   ...       0.00 
freq.    1424.59  E(vib)   ...       0.00 
freq.    1430.50  E(vib)   ...       0.00 
freq.    1432.21  E(vib)   ...       0.00 
freq.    1448.47  E(vib)   ...       0.00 
freq.    1475.53  E(vib)   ...       0.00 
freq.    1477.99  E(vib)   ...       0.00 
freq.    1484.34  E(vib)   ...       0.00 
freq.    1498.38  E(vib)   ...       0.00 
freq.    1498.79  E(vib)   ...       0.00 
freq.    1509.20  E(vib)   ...       0.00 
freq.    1509.72  E(vib)   ...       0.00 
freq.    1511.79  E(vib)   ...       0.00 
freq.    1511.87  E(vib)   ...       0.00 
freq.    1514.87  E(vib)   ...       0.00 
freq.    1523.89  E(vib)   ...       0.00 
freq.    1524.55  E(vib)   ...       0.00 
freq.    1527.75  E(vib)   ...       0.00 
freq.    1539.74  E(vib)   ...       0.00 
freq.    1622.59  E(vib)   ...       0.00 
freq.    1645.49  E(vib)   ...       0.00 
freq.    1660.07  E(vib)   ...       0.00 
freq.    2284.74  E(vib)   ...       0.00 
freq.    2939.25  E(vib)   ...       0.00 
freq.    2940.08  E(vib)   ...       0.00 
freq.    2943.75  E(vib)   ...       0.00 
freq.    2944.70  E(vib)   ...       0.00 
freq.    2951.80  E(vib)   ...       0.00 
freq.    2952.04  E(vib)   ...       0.00 
freq.    2956.00  E(vib)   ...       0.00 
freq.    2956.51  E(vib)   ...       0.00 
freq.    2960.26  E(vib)   ...       0.00 
freq.    2960.54  E(vib)   ...       0.00 
freq.    2968.41  E(vib)   ...       0.00 
freq.    2972.53  E(vib)   ...       0.00 
freq.    2993.21  E(vib)   ...       0.00 
freq.    2993.40  E(vib)   ...       0.00 
freq.    3017.33  E(vib)   ...       0.00 
freq.    3018.21  E(vib)   ...       0.00 
freq.    3025.69  E(vib)   ...       0.00 
freq.    3025.74  E(vib)   ...       0.00 
freq.    3113.87  E(vib)   ...       0.00 
freq.    3121.74  E(vib)   ...       0.00 
freq.    3134.47  E(vib)   ...       0.00 
freq.    3141.45  E(vib)   ...       0.00 
freq.    3141.91  E(vib)   ...       0.00 
freq.    3146.98  E(vib)   ...       0.00 
freq.    3163.31  E(vib)   ...       0.00 

------------
INNER ENERGY
------------

The inner energy is: U= E(el) + E(ZPE) + E(vib) + E(rot) + E(trans)
    E(el)   - is the total energy from the electronic structure calculation
              = E(kin-el) + E(nuc-el) + E(el-el) + E(nuc-nuc)
    E(ZPE)  - the the zero temperature vibrational energy from the frequency calculation
    E(vib)  - the the finite temperature correction to E(ZPE) due to population
              of excited vibrational states
    E(rot)  - is the rotational thermal energy
    E(trans)- is the translational thermal energy

Summary of contributions to the inner energy U:
Electronic energy                ...   -890.82420425 Eh
Zero point energy                ...      0.40750382 Eh     255.71 kcal/mol
Thermal vibrational correction   ...      0.01828119 Eh      11.47 kcal/mol
Thermal rotational correction    ...      0.00141627 Eh       0.89 kcal/mol
Thermal translational correction ...      0.00141627 Eh       0.89 kcal/mol
-----------------------------------------------------------------------
Total thermal energy                   -890.39558669 Eh


Summary of corrections to the electronic energy:
(perhaps to be used in another calculation)
Total thermal correction                  0.02111374 Eh      13.25 kcal/mol
Non-thermal (ZPE) correction              0.40750382 Eh     255.71 kcal/mol
-----------------------------------------------------------------------
Total correction                          0.42861756 Eh     268.96 kcal/mol


--------
ENTHALPY
--------

The enthalpy is H = U + kB*T
                kB is Boltzmann's constant
Total free energy                 ...   -890.39558669 Eh 
Thermal Enthalpy correction       ...      0.00094421 Eh       0.59 kcal/mol
-----------------------------------------------------------------------
Total Enthalpy                    ...   -890.39464248 Eh


Note: Only C1 symmetry has been detected, increase convergence thresholds 
      if your molecule has a higher symmetry. Symmetry factor of 1.0 is   
      used for the rotational entropy correction. 
 

Note: Rotational entropy computed according to Herzberg 
Infrared and Raman Spectra, Chapter V,1, Van Nostrand Reinhold, 1945 
Point Group:  C1, Symmetry Number:   1  
Rotational constants in cm-1:     0.006748     0.004694     0.002780 

Vibrational entropy computed according to the QRRHO of S. Grimme
Chem.Eur.J. 2012 18 9955


-------
ENTROPY
-------

The entropy contributions are T*S = T*(S(el)+S(vib)+S(rot)+S(trans))
     S(el)   - electronic entropy
     S(vib)  - vibrational entropy
     S(rot)  - rotational entropy
     S(trans)- translational entropy
The entropies will be listed as multiplied by the temperature to get
units of energy

Electronic entropy                ...      0.00065446 Eh      0.41 kcal/mol
Vibrational entropy               ...      0.03245628 Eh     20.37 kcal/mol
Rotational entropy                ...      0.01718017 Eh     10.78 kcal/mol
Translational entropy             ...      0.02043402 Eh     12.82 kcal/mol
-----------------------------------------------------------------------
Final entropy term                ...      0.07072493 Eh     44.38 kcal/mol

In case the symmetry of your molecule has not been determined correctly
or in case you have a reason to use a different symmetry number we print 
out the resulting rotational entropy values for sn=1,12 :
 --------------------------------------------------------
|  sn= 1 | S(rot)=       0.01718017 Eh     10.78 kcal/mol|
|  sn= 2 | S(rot)=       0.01652571 Eh     10.37 kcal/mol|
|  sn= 3 | S(rot)=       0.01614288 Eh     10.13 kcal/mol|
|  sn= 4 | S(rot)=       0.01587126 Eh      9.96 kcal/mol|
|  sn= 5 | S(rot)=       0.01566057 Eh      9.83 kcal/mol|
|  sn= 6 | S(rot)=       0.01548843 Eh      9.72 kcal/mol|
|  sn= 7 | S(rot)=       0.01534288 Eh      9.63 kcal/mol|
|  sn= 8 | S(rot)=       0.01521680 Eh      9.55 kcal/mol|
|  sn= 9 | S(rot)=       0.01510559 Eh      9.48 kcal/mol|
|  sn=10 | S(rot)=       0.01500611 Eh      9.42 kcal/mol|
|  sn=11 | S(rot)=       0.01491612 Eh      9.36 kcal/mol|
|  sn=12 | S(rot)=       0.01483397 Eh      9.31 kcal/mol|
 --------------------------------------------------------


-------------------
GIBBS FREE ENERGY
-------------------

The Gibbs free energy is G = H - T*S

Total enthalpy                    ...   -890.39464248 Eh 
Total entropy correction          ...     -0.07072493 Eh    -44.38 kcal/mol
-----------------------------------------------------------------------
Final Gibbs free energy         ...   -890.46536741 Eh

For completeness - the Gibbs free energy minus the electronic energy
G-E(el)                           ...      0.35883684 Eh    225.17 kcal/mol


Timings for individual modules:

Sum of individual times         ...     1293.899 sec (=  21.565 min)
GTO integral calculation        ...        3.897 sec (=   0.065 min)   0.3 %
SCF iterations                  ...      107.827 sec (=   1.797 min)   8.3 %
Analytical frequency calculation...     1182.175 sec (=  19.703 min)  91.4 %
                             ****ORCA TERMINATED NORMALLY****
TOTAL RUN TIME: 0 days 0 hours 21 minutes 40 seconds 960 msec
