 Entering Gaussian System, Link 0=g09
 Input=g09BDE.com
 Output=g09BDE.log
 Initial command:
 /hits/basement/its/doserbd/software/gaussian/g09d1/g09/l1.exe "/hits/basement/mbm/sucerquia/gaussian_scratch/Gau-791512.inp" -scrdir="/hits/basement/mbm/sucerquia/gaussian_scratch/"
 Entering Link 1 = /hits/basement/its/doserbd/software/gaussian/g09d1/g09/l1.exe PID=    791513.
  
 Copyright (c) 1988,1990,1992,1993,1995,1998,2003,2009,2013,
            Gaussian, Inc.  All Rights Reserved.
  
 This is part of the Gaussian(R) 09 program.  It is based on
 the Gaussian(R) 03 system (copyright 2003, Gaussian, Inc.),
 the Gaussian(R) 98 system (copyright 1998, Gaussian, Inc.),
 the Gaussian(R) 94 system (copyright 1995, Gaussian, Inc.),
 the Gaussian 92(TM) system (copyright 1992, Gaussian, Inc.),
 the Gaussian 90(TM) system (copyright 1990, Gaussian, Inc.),
 the Gaussian 88(TM) system (copyright 1988, Gaussian, Inc.),
 the Gaussian 86(TM) system (copyright 1986, Carnegie Mellon
 University), and the Gaussian 82(TM) system (copyright 1983,
 Carnegie Mellon University). Gaussian is a federally registered
 trademark of Gaussian, Inc.
  
 This software contains proprietary and confidential information,
 including trade secrets, belonging to Gaussian, Inc.
  
 This software is provided under written license and may be
 used, copied, transmitted, or stored only in accord with that
 written license.
  
 The following legend is applicable only to US Government
 contracts under FAR:
  
                    RESTRICTED RIGHTS LEGEND
  
 Use, reproduction and disclosure by the US Government is
 subject to restrictions as set forth in subparagraphs (a)
 and (c) of the Commercial Computer Software - Restricted
 Rights clause in FAR 52.227-19.
  
 Gaussian, Inc.
 340 Quinnipiac St., Bldg. 40, Wallingford CT 06492
  
  
 ---------------------------------------------------------------
 Warning -- This program may not be used in any manner that
 competes with the business of Gaussian, Inc. or will provide
 assistance to any competitor of Gaussian, Inc.  The licensee
 of this program is prohibited from giving any competitor of
 Gaussian, Inc. access to this program.  By using this program,
 the user acknowledges that Gaussian, Inc. is engaged in the
 business of creating and licensing software in the field of
 computational chemistry and represents and warrants to the
 licensee that it is not a competitor of Gaussian, Inc. and that
 it will not use this program in any manner prohibited above.
 ---------------------------------------------------------------
  

 Cite this work as:
 Gaussian 09, Revision D.01,
 M. J. Frisch, G. W. Trucks, H. B. Schlegel, G. E. Scuseria, 
 M. A. Robb, J. R. Cheeseman, G. Scalmani, V. Barone, B. Mennucci, 
 G. A. Petersson, H. Nakatsuji, M. Caricato, X. Li, H. P. Hratchian, 
 A. F. Izmaylov, J. Bloino, G. Zheng, J. L. Sonnenberg, M. Hada, 
 M. Ehara, K. Toyota, R. Fukuda, J. Hasegawa, M. Ishida, T. Nakajima, 
 Y. Honda, O. Kitao, H. Nakai, T. Vreven, J. A. Montgomery, Jr., 
 J. E. Peralta, F. Ogliaro, M. Bearpark, J. J. Heyd, E. Brothers, 
 K. N. Kudin, V. N. Staroverov, T. Keith, R. Kobayashi, J. Normand, 
 K. Raghavachari, A. Rendell, J. C. Burant, S. S. Iyengar, J. Tomasi, 
 M. Cossi, N. Rega, J. M. Millam, M. Klene, J. E. Knox, J. B. Cross, 
 V. Bakken, C. Adamo, J. Jaramillo, R. Gomperts, R. E. Stratmann, 
 O. Yazyev, A. J. Austin, R. Cammi, C. Pomelli, J. W. Ochterski, 
 R. L. Martin, K. Morokuma, V. G. Zakrzewski, G. A. Voth, 
 P. Salvador, J. J. Dannenberg, S. Dapprich, A. D. Daniels, 
 O. Farkas, J. B. Foresman, J. V. Ortiz, J. Cioslowski, 
 and D. J. Fox, Gaussian, Inc., Wallingford CT, 2013.
 
 ******************************************
 Gaussian 09:  ES64L-G09RevD.01 24-Apr-2013
                10-May-2024 
 ******************************************
 %chk=g09BDE
 %NProcShared=8
 Will use up to    8 processors via shared memory.
 ---------------------------------------
 #P bmk/6-31+g opt(modredun,calcfc) freq
 ---------------------------------------
 1/10=4,14=-1,18=120,19=15,26=3,38=1/1,3;
 2/9=110,12=2,17=6,18=5,40=1/2;
 3/5=1,6=6,7=10,11=2,16=1,25=1,30=1,71=2,74=-34,140=1/1,2,3;
 4//1;
 5/5=2,38=5/2;
 8/6=4,10=90,11=11/1;
 11/6=1,8=1,9=11,15=111,16=1/1,2,10;
 10/6=1,13=1/2;
 6/7=2,8=2,9=2,10=2,28=1/1;
 7/10=1,18=20,25=1/1,2,3,16;
 1/10=4,14=-1,18=20,19=15,26=3/3(2);
 2/9=110/2;
 99//99;
 2/9=110/2;
 3/5=1,6=6,7=10,11=2,16=1,25=1,30=1,71=1,74=-34/1,2,3;
 4/5=5,16=3,69=1/1;
 5/5=2,38=5/2;
 7//1,2,3,16;
 1/14=-1,18=20,19=15,26=3/3(-5);
 2/9=110/2;
 6/7=2,8=2,9=2,10=2,19=2,28=1/1;
 99/9=1/99;
 Leave Link    1 at Fri May 10 15:44:18 2024, MaxMem=           0 cpu:         0.6
 (Enter /hits/basement/its/doserbd/software/gaussian/g09d1/g09/l101.exe)
 ------------------------------
 Gaussian input prepared by ASE
 ------------------------------
 Symbolic Z-matrix:
 Charge =  0 Multiplicity = 2
 C                    -2.83237   0.02029  -0.01267 
 C                     2.81595  -0.00336  -0.00887 
 C                    -1.42043   0.00245  -0.01165 
 C                    -0.70937  -1.24872  -0.01432 
 C                     0.67625  -1.19035  -0.0131 
 C                     1.39599   0.03201  -0.00955 
 C                     0.69098   1.2745   -0.00679 
 C                    -0.69555   1.23464  -0.00792 
 H                     1.25552  -2.11432  -0.01502 
 H                    -1.27406   2.15763  -0.00597 
 C                    -1.4899   -2.54487  -0.0183 
 H                    -2.16502  -2.53489  -0.89489 
 H                    -2.16697  -2.53908   0.85681 
 C                    -0.67857  -3.84315  -0.0205 
 H                    -0.01466  -3.86814  -0.90415 
 H                    -0.01679  -3.87241   0.86461 
 C                    -1.56511  -5.09448  -0.0246 
 H                    -2.23231  -5.07065   0.85689 
 H                    -2.23002  -5.06652  -0.9077 
 C                    -0.76461  -6.39927  -0.02663 
 H                    -0.11622  -6.4729    0.86353 
 H                    -0.11364  -6.46853  -0.91526 
 C                     1.47127   2.57532  -0.00284 
 H                     2.14677   2.56689   0.87242 
 H                     2.14815   2.57135  -0.87707 
 C                     0.65864   3.87251  -0.00019 
 H                    -0.00351   3.90284  -0.88502 
 H                    -0.00519   3.89823   0.88352 
 C                     1.54548   5.12377   0.00391 
 H                     2.21056   5.09534   0.88695 
 H                     2.21247   5.09976  -0.87781 
 C                     0.74591   6.42917   0.00634 
 H                     0.09514   6.49865   0.89507 
 H                     0.09736   6.50334  -0.88363 
 C                     4.0397   -0.04709  -0.01005 
 H                    -1.4274   -7.27981  -0.02976 
 H                     1.40917   7.30939   0.0095 
 C                     5.46485  -0.09987  -0.00975 
 C                     6.13908  -1.34163  -0.01117 
 C                     7.53253  -1.38847  -0.01086 
 C                     8.28043  -0.20527  -0.00919 
 C                     7.62315   1.03068  -0.00781 
 C                     6.23014   1.08799  -0.0081 
 H                     9.3721   -0.24637  -0.00897 
 H                     8.20147   1.9578   -0.00653 
 H                     5.55403  -2.26325  -0.01246 
 H                     5.71579   2.05085  -0.00708 
 H                     8.0401   -2.35614  -0.01194 
 
 The following ModRedundant input section has been read:
 
 NAtoms=     48 NQM=       48 NQMF=       0 NMMI=      0 NMMIF=      0
                NMic=       0 NMicF=      0.
                    Isotopes and Nuclear Properties:
 (Nuclear quadrupole moments (NQMom) in fm**2, nuclear magnetic moments (NMagM)
  in nuclear magnetons)

  Atom         1           2           3           4           5           6           7           8           9          10
 IAtWgt=          12          12          12          12          12          12          12          12           1           1
 AtmWgt=  12.0000000  12.0000000  12.0000000  12.0000000  12.0000000  12.0000000  12.0000000  12.0000000   1.0078250   1.0078250
 NucSpn=           0           0           0           0           0           0           0           0           1           1
 AtZEff=   0.0000000   0.0000000   0.0000000   0.0000000   0.0000000   0.0000000   0.0000000   0.0000000   0.0000000   0.0000000
 NQMom=    0.0000000   0.0000000   0.0000000   0.0000000   0.0000000   0.0000000   0.0000000   0.0000000   0.0000000   0.0000000
 NMagM=    0.0000000   0.0000000   0.0000000   0.0000000   0.0000000   0.0000000   0.0000000   0.0000000   2.7928460   2.7928460
 AtZNuc=   6.0000000   6.0000000   6.0000000   6.0000000   6.0000000   6.0000000   6.0000000   6.0000000   1.0000000   1.0000000

  Atom        11          12          13          14          15          16          17          18          19          20
 IAtWgt=          12           1           1          12           1           1          12           1           1          12
 AtmWgt=  12.0000000   1.0078250   1.0078250  12.0000000   1.0078250   1.0078250  12.0000000   1.0078250   1.0078250  12.0000000
 NucSpn=           0           1           1           0           1           1           0           1           1           0
 AtZEff=   0.0000000   0.0000000   0.0000000   0.0000000   0.0000000   0.0000000   0.0000000   0.0000000   0.0000000   0.0000000
 NQMom=    0.0000000   0.0000000   0.0000000   0.0000000   0.0000000   0.0000000   0.0000000   0.0000000   0.0000000   0.0000000
 NMagM=    0.0000000   2.7928460   2.7928460   0.0000000   2.7928460   2.7928460   0.0000000   2.7928460   2.7928460   0.0000000
 AtZNuc=   6.0000000   1.0000000   1.0000000   6.0000000   1.0000000   1.0000000   6.0000000   1.0000000   1.0000000   6.0000000

  Atom        21          22          23          24          25          26          27          28          29          30
 IAtWgt=           1           1          12           1           1          12           1           1          12           1
 AtmWgt=   1.0078250   1.0078250  12.0000000   1.0078250   1.0078250  12.0000000   1.0078250   1.0078250  12.0000000   1.0078250
 NucSpn=           1           1           0           1           1           0           1           1           0           1
 AtZEff=   0.0000000   0.0000000   0.0000000   0.0000000   0.0000000   0.0000000   0.0000000   0.0000000   0.0000000   0.0000000
 NQMom=    0.0000000   0.0000000   0.0000000   0.0000000   0.0000000   0.0000000   0.0000000   0.0000000   0.0000000   0.0000000
 NMagM=    2.7928460   2.7928460   0.0000000   2.7928460   2.7928460   0.0000000   2.7928460   2.7928460   0.0000000   2.7928460
 AtZNuc=   1.0000000   1.0000000   6.0000000   1.0000000   1.0000000   6.0000000   1.0000000   1.0000000   6.0000000   1.0000000

  Atom        31          32          33          34          35          36          37          38          39          40
 IAtWgt=           1          12           1           1          12           1           1          12          12          12
 AtmWgt=   1.0078250  12.0000000   1.0078250   1.0078250  12.0000000   1.0078250   1.0078250  12.0000000  12.0000000  12.0000000
 NucSpn=           1           0           1           1           0           1           1           0           0           0
 AtZEff=   0.0000000   0.0000000   0.0000000   0.0000000   0.0000000   0.0000000   0.0000000   0.0000000   0.0000000   0.0000000
 NQMom=    0.0000000   0.0000000   0.0000000   0.0000000   0.0000000   0.0000000   0.0000000   0.0000000   0.0000000   0.0000000
 NMagM=    2.7928460   0.0000000   2.7928460   2.7928460   0.0000000   2.7928460   2.7928460   0.0000000   0.0000000   0.0000000
 AtZNuc=   1.0000000   6.0000000   1.0000000   1.0000000   6.0000000   1.0000000   1.0000000   6.0000000   6.0000000   6.0000000

  Atom        41          42          43          44          45          46          47          48
 IAtWgt=          12          12          12           1           1           1           1           1
 AtmWgt=  12.0000000  12.0000000  12.0000000   1.0078250   1.0078250   1.0078250   1.0078250   1.0078250
 NucSpn=           0           0           0           1           1           1           1           1
 AtZEff=   0.0000000   0.0000000   0.0000000   0.0000000   0.0000000   0.0000000   0.0000000   0.0000000
 NQMom=    0.0000000   0.0000000   0.0000000   0.0000000   0.0000000   0.0000000   0.0000000   0.0000000
 NMagM=    0.0000000   0.0000000   0.0000000   2.7928460   2.7928460   2.7928460   2.7928460   2.7928460
 AtZNuc=   6.0000000   6.0000000   6.0000000   1.0000000   1.0000000   1.0000000   1.0000000   1.0000000
 Leave Link  101 at Fri May 10 15:44:19 2024, MaxMem=    33554432 cpu:         0.5
 (Enter /hits/basement/its/doserbd/software/gaussian/g09d1/g09/l103.exe)

 GradGradGradGradGradGradGradGradGradGradGradGradGradGradGradGradGradGrad
 Berny optimization.
 Initialization pass.
                           ----------------------------
                           !    Initial Parameters    !
                           ! (Angstroms and Degrees)  !
 --------------------------                            --------------------------
 ! Name  Definition              Value          Derivative Info.                !
 --------------------------------------------------------------------------------
 ! R1    R(1,3)                  1.4121         calculate D2E/DX2 analytically  !
 ! R2    R(2,6)                  1.4204         calculate D2E/DX2 analytically  !
 ! R3    R(2,35)                 1.2245         calculate D2E/DX2 analytically  !
 ! R4    R(3,4)                  1.4391         calculate D2E/DX2 analytically  !
 ! R5    R(3,8)                  1.4296         calculate D2E/DX2 analytically  !
 ! R6    R(4,5)                  1.3869         calculate D2E/DX2 analytically  !
 ! R7    R(4,11)                 1.513          calculate D2E/DX2 analytically  !
 ! R8    R(5,6)                  1.4185         calculate D2E/DX2 analytically  !
 ! R9    R(5,9)                  1.0905         calculate D2E/DX2 analytically  !
 ! R10   R(6,7)                  1.4286         calculate D2E/DX2 analytically  !
 ! R11   R(7,8)                  1.3871         calculate D2E/DX2 analytically  !
 ! R12   R(7,23)                 1.5169         calculate D2E/DX2 analytically  !
 ! R13   R(8,10)                 1.0893         calculate D2E/DX2 analytically  !
 ! R14   R(11,12)                1.1065         calculate D2E/DX2 analytically  !
 ! R15   R(11,13)                1.1065         calculate D2E/DX2 analytically  !
 ! R16   R(11,14)                1.5309         calculate D2E/DX2 analytically  !
 ! R17   R(14,15)                1.1055         calculate D2E/DX2 analytically  !
 ! R18   R(14,16)                1.1056         calculate D2E/DX2 analytically  !
 ! R19   R(14,17)                1.5336         calculate D2E/DX2 analytically  !
 ! R20   R(17,18)                1.1058         calculate D2E/DX2 analytically  !
 ! R21   R(17,19)                1.1058         calculate D2E/DX2 analytically  !
 ! R22   R(17,20)                1.5308         calculate D2E/DX2 analytically  !
 ! R23   R(20,21)                1.1037         calculate D2E/DX2 analytically  !
 ! R24   R(20,22)                1.1037         calculate D2E/DX2 analytically  !
 ! R25   R(20,36)                1.1021         calculate D2E/DX2 analytically  !
 ! R26   R(23,24)                1.1056         calculate D2E/DX2 analytically  !
 ! R27   R(23,25)                1.1056         calculate D2E/DX2 analytically  !
 ! R28   R(23,26)                1.5307         calculate D2E/DX2 analytically  !
 ! R29   R(26,27)                1.1056         calculate D2E/DX2 analytically  !
 ! R30   R(26,28)                1.1056         calculate D2E/DX2 analytically  !
 ! R31   R(26,29)                1.5337         calculate D2E/DX2 analytically  !
 ! R32   R(29,30)                1.1058         calculate D2E/DX2 analytically  !
 ! R33   R(29,31)                1.1058         calculate D2E/DX2 analytically  !
 ! R34   R(29,32)                1.5308         calculate D2E/DX2 analytically  !
 ! R35   R(32,33)                1.1037         calculate D2E/DX2 analytically  !
 ! R36   R(32,34)                1.1037         calculate D2E/DX2 analytically  !
 ! R37   R(32,37)                1.1021         calculate D2E/DX2 analytically  !
 ! R38   R(35,38)                1.4261         calculate D2E/DX2 analytically  !
 ! R39   R(38,39)                1.413          calculate D2E/DX2 analytically  !
 ! R40   R(38,43)                1.413          calculate D2E/DX2 analytically  !
 ! R41   R(39,40)                1.3942         calculate D2E/DX2 analytically  !
 ! R42   R(39,46)                1.0916         calculate D2E/DX2 analytically  !
 ! R43   R(40,41)                1.3998         calculate D2E/DX2 analytically  !
 ! R44   R(40,48)                1.0927         calculate D2E/DX2 analytically  !
 ! R45   R(41,42)                1.3999         calculate D2E/DX2 analytically  !
 ! R46   R(41,44)                1.0924         calculate D2E/DX2 analytically  !
 ! R47   R(42,43)                1.3942         calculate D2E/DX2 analytically  !
 ! R48   R(42,45)                1.0927         calculate D2E/DX2 analytically  !
 ! R49   R(43,47)                1.0916         calculate D2E/DX2 analytically  !
 ! A1    A(1,3,4)              120.3339         calculate D2E/DX2 analytically  !
 ! A2    A(1,3,8)              119.7438         calculate D2E/DX2 analytically  !
 ! A3    A(4,3,8)              119.9223         calculate D2E/DX2 analytically  !
 ! A4    A(3,4,5)              117.1977         calculate D2E/DX2 analytically  !
 ! A5    A(3,4,11)             119.3344         calculate D2E/DX2 analytically  !
 ! A6    A(5,4,11)             123.4679         calculate D2E/DX2 analytically  !
 ! A7    A(4,5,6)              122.9025         calculate D2E/DX2 analytically  !
 ! A8    A(4,5,9)              119.6729         calculate D2E/DX2 analytically  !
 ! A9    A(6,5,9)              117.4247         calculate D2E/DX2 analytically  !
 ! A10   A(2,6,5)              119.0632         calculate D2E/DX2 analytically  !
 ! A11   A(2,6,7)              120.9982         calculate D2E/DX2 analytically  !
 ! A12   A(5,6,7)              119.9387         calculate D2E/DX2 analytically  !
 ! A13   A(6,7,8)              117.9245         calculate D2E/DX2 analytically  !
 ! A14   A(6,7,23)             119.4716         calculate D2E/DX2 analytically  !
 ! A15   A(8,7,23)             122.6039         calculate D2E/DX2 analytically  !
 ! A16   A(3,8,7)              122.1144         calculate D2E/DX2 analytically  !
 ! A17   A(3,8,10)             117.4537         calculate D2E/DX2 analytically  !
 ! A18   A(7,8,10)             120.4319         calculate D2E/DX2 analytically  !
 ! A19   A(4,11,12)            108.0062         calculate D2E/DX2 analytically  !
 ! A20   A(4,11,13)            108.0051         calculate D2E/DX2 analytically  !
 ! A21   A(4,11,14)            116.9424         calculate D2E/DX2 analytically  !
 ! A22   A(12,11,13)           104.665          calculate D2E/DX2 analytically  !
 ! A23   A(12,11,14)           109.2606         calculate D2E/DX2 analytically  !
 ! A24   A(13,11,14)           109.2602         calculate D2E/DX2 analytically  !
 ! A25   A(11,14,15)           109.7897         calculate D2E/DX2 analytically  !
 ! A26   A(11,14,16)           109.7872         calculate D2E/DX2 analytically  !
 ! A27   A(11,14,17)           112.6814         calculate D2E/DX2 analytically  !
 ! A28   A(15,14,16)           106.2505         calculate D2E/DX2 analytically  !
 ! A29   A(15,14,17)           109.0613         calculate D2E/DX2 analytically  !
 ! A30   A(16,14,17)           109.0619         calculate D2E/DX2 analytically  !
 ! A31   A(14,17,18)           109.214          calculate D2E/DX2 analytically  !
 ! A32   A(14,17,19)           109.2148         calculate D2E/DX2 analytically  !
 ! A33   A(14,17,20)           113.154          calculate D2E/DX2 analytically  !
 ! A34   A(18,17,19)           105.8596         calculate D2E/DX2 analytically  !
 ! A35   A(18,17,20)           109.5695         calculate D2E/DX2 analytically  !
 ! A36   A(19,17,20)           109.5683         calculate D2E/DX2 analytically  !
 ! A37   A(17,20,21)           111.2836         calculate D2E/DX2 analytically  !
 ! A38   A(17,20,22)           111.2833         calculate D2E/DX2 analytically  !
 ! A39   A(17,20,36)           111.5015         calculate D2E/DX2 analytically  !
 ! A40   A(21,20,22)           107.3779         calculate D2E/DX2 analytically  !
 ! A41   A(21,20,36)           107.5944         calculate D2E/DX2 analytically  !
 ! A42   A(22,20,36)           107.594          calculate D2E/DX2 analytically  !
 ! A43   A(7,23,24)            108.0467         calculate D2E/DX2 analytically  !
 ! A44   A(7,23,25)            108.0454         calculate D2E/DX2 analytically  !
 ! A45   A(7,23,26)            116.9776         calculate D2E/DX2 analytically  !
 ! A46   A(24,23,25)           104.589          calculate D2E/DX2 analytically  !
 ! A47   A(24,23,26)           109.2348         calculate D2E/DX2 analytically  !
 ! A48   A(25,23,26)           109.2338         calculate D2E/DX2 analytically  !
 ! A49   A(23,26,27)           109.8658         calculate D2E/DX2 analytically  !
 ! A50   A(23,26,28)           109.8685         calculate D2E/DX2 analytically  !
 ! A51   A(23,26,29)           112.6076         calculate D2E/DX2 analytically  !
 ! A52   A(27,26,28)           106.2288         calculate D2E/DX2 analytically  !
 ! A53   A(27,26,29)           109.0314         calculate D2E/DX2 analytically  !
 ! A54   A(28,26,29)           109.0314         calculate D2E/DX2 analytically  !
 ! A55   A(26,29,30)           109.2042         calculate D2E/DX2 analytically  !
 ! A56   A(26,29,31)           109.2034         calculate D2E/DX2 analytically  !
 ! A57   A(26,29,32)           113.1849         calculate D2E/DX2 analytically  !
 ! A58   A(30,29,31)           105.8652         calculate D2E/DX2 analytically  !
 ! A59   A(30,29,32)           109.5598         calculate D2E/DX2 analytically  !
 ! A60   A(31,29,32)           109.5611         calculate D2E/DX2 analytically  !
 ! A61   A(29,32,33)           111.2806         calculate D2E/DX2 analytically  !
 ! A62   A(29,32,34)           111.281          calculate D2E/DX2 analytically  !
 ! A63   A(29,32,37)           111.5137         calculate D2E/DX2 analytically  !
 ! A64   A(33,32,34)           107.373          calculate D2E/DX2 analytically  !
 ! A65   A(33,32,37)           107.5926         calculate D2E/DX2 analytically  !
 ! A66   A(34,32,37)           107.5931         calculate D2E/DX2 analytically  !
 ! A67   A(35,38,39)           120.621          calculate D2E/DX2 analytically  !
 ! A68   A(35,38,43)           120.6709         calculate D2E/DX2 analytically  !
 ! A69   A(39,38,43)           118.7081         calculate D2E/DX2 analytically  !
 ! A70   A(38,39,40)           120.4257         calculate D2E/DX2 analytically  !
 ! A71   A(38,39,46)           119.0927         calculate D2E/DX2 analytically  !
 ! A72   A(40,39,46)           120.4816         calculate D2E/DX2 analytically  !
 ! A73   A(39,40,41)           120.3712         calculate D2E/DX2 analytically  !
 ! A74   A(39,40,48)           119.6038         calculate D2E/DX2 analytically  !
 ! A75   A(41,40,48)           120.0249         calculate D2E/DX2 analytically  !
 ! A76   A(40,41,42)           119.6993         calculate D2E/DX2 analytically  !
 ! A77   A(40,41,44)           120.1409         calculate D2E/DX2 analytically  !
 ! A78   A(42,41,44)           120.1598         calculate D2E/DX2 analytically  !
 ! A79   A(41,42,43)           120.3599         calculate D2E/DX2 analytically  !
 ! A80   A(41,42,45)           120.0409         calculate D2E/DX2 analytically  !
 ! A81   A(43,42,45)           119.5992         calculate D2E/DX2 analytically  !
 ! A82   A(38,43,42)           120.4358         calculate D2E/DX2 analytically  !
 ! A83   A(38,43,47)           119.0979         calculate D2E/DX2 analytically  !
 ! A84   A(42,43,47)           120.4664         calculate D2E/DX2 analytically  !
 ! A85   L(6,2,35,24,-1)       180.6126         calculate D2E/DX2 analytically  !
 ! A86   L(2,35,38,30,-1)      180.0612         calculate D2E/DX2 analytically  !
 ! A87   L(6,2,35,24,-2)       179.8705         calculate D2E/DX2 analytically  !
 ! A88   L(2,35,38,30,-2)      179.915          calculate D2E/DX2 analytically  !
 ! D1    D(5,6,38,39)           -0.0998         calculate D2E/DX2 analytically  !
 ! D2    D(5,6,38,43)          179.9144         calculate D2E/DX2 analytically  !
 ! D3    D(7,6,38,39)          179.9374         calculate D2E/DX2 analytically  !
 ! D4    D(7,6,38,43)           -0.0484         calculate D2E/DX2 analytically  !
 ! D5    D(1,3,4,5)           -179.9991         calculate D2E/DX2 analytically  !
 ! D6    D(1,3,4,11)             0.0034         calculate D2E/DX2 analytically  !
 ! D7    D(8,3,4,5)             -0.0002         calculate D2E/DX2 analytically  !
 ! D8    D(8,3,4,11)          -179.9977         calculate D2E/DX2 analytically  !
 ! D9    D(1,3,8,7)           -179.9989         calculate D2E/DX2 analytically  !
 ! D10   D(1,3,8,10)             0.0006         calculate D2E/DX2 analytically  !
 ! D11   D(4,3,8,7)              0.0022         calculate D2E/DX2 analytically  !
 ! D12   D(4,3,8,10)          -179.9983         calculate D2E/DX2 analytically  !
 ! D13   D(3,4,5,6)             -0.0069         calculate D2E/DX2 analytically  !
 ! D14   D(3,4,5,9)            179.9994         calculate D2E/DX2 analytically  !
 ! D15   D(11,4,5,6)           179.9905         calculate D2E/DX2 analytically  !
 ! D16   D(11,4,5,9)            -0.0031         calculate D2E/DX2 analytically  !
 ! D17   D(3,4,11,12)           56.3597         calculate D2E/DX2 analytically  !
 ! D18   D(3,4,11,13)          -56.3185         calculate D2E/DX2 analytically  !
 ! D19   D(3,4,11,14)         -179.9787         calculate D2E/DX2 analytically  !
 ! D20   D(5,4,11,12)         -123.6377         calculate D2E/DX2 analytically  !
 ! D21   D(5,4,11,13)          123.684          calculate D2E/DX2 analytically  !
 ! D22   D(5,4,11,14)            0.0239         calculate D2E/DX2 analytically  !
 ! D23   D(4,5,6,2)           -179.9842         calculate D2E/DX2 analytically  !
 ! D24   D(4,5,6,7)              0.012          calculate D2E/DX2 analytically  !
 ! D25   D(9,5,6,2)              0.0096         calculate D2E/DX2 analytically  !
 ! D26   D(9,5,6,7)           -179.9942         calculate D2E/DX2 analytically  !
 ! D27   D(2,6,7,8)            179.9867         calculate D2E/DX2 analytically  !
 ! D28   D(2,6,7,23)            -0.0111         calculate D2E/DX2 analytically  !
 ! D29   D(5,6,7,8)             -0.0094         calculate D2E/DX2 analytically  !
 ! D30   D(5,6,7,23)           179.9929         calculate D2E/DX2 analytically  !
 ! D31   D(6,7,8,3)              0.0026         calculate D2E/DX2 analytically  !
 ! D32   D(6,7,8,10)          -179.9968         calculate D2E/DX2 analytically  !
 ! D33   D(23,7,8,3)          -179.9997         calculate D2E/DX2 analytically  !
 ! D34   D(23,7,8,10)            0.0008         calculate D2E/DX2 analytically  !
 ! D35   D(6,7,23,24)          -56.3209         calculate D2E/DX2 analytically  !
 ! D36   D(6,7,23,25)           56.3087         calculate D2E/DX2 analytically  !
 ! D37   D(6,7,23,26)          179.9928         calculate D2E/DX2 analytically  !
 ! D38   D(8,7,23,24)          123.6815         calculate D2E/DX2 analytically  !
 ! D39   D(8,7,23,25)         -123.6889         calculate D2E/DX2 analytically  !
 ! D40   D(8,7,23,26)           -0.0048         calculate D2E/DX2 analytically  !
 ! D41   D(4,11,14,15)         -58.2237         calculate D2E/DX2 analytically  !
 ! D42   D(4,11,14,16)          58.2325         calculate D2E/DX2 analytically  !
 ! D43   D(4,11,14,17)        -179.9961         calculate D2E/DX2 analytically  !
 ! D44   D(12,11,14,15)         64.7949         calculate D2E/DX2 analytically  !
 ! D45   D(12,11,14,16)       -178.7488         calculate D2E/DX2 analytically  !
 ! D46   D(12,11,14,17)        -56.9775         calculate D2E/DX2 analytically  !
 ! D47   D(13,11,14,15)        178.7594         calculate D2E/DX2 analytically  !
 ! D48   D(13,11,14,16)        -64.7843         calculate D2E/DX2 analytically  !
 ! D49   D(13,11,14,17)         56.987          calculate D2E/DX2 analytically  !
 ! D50   D(11,14,17,18)        -57.6601         calculate D2E/DX2 analytically  !
 ! D51   D(11,14,17,19)         57.6769         calculate D2E/DX2 analytically  !
 ! D52   D(11,14,17,20)       -179.992          calculate D2E/DX2 analytically  !
 ! D53   D(15,14,17,18)       -179.8439         calculate D2E/DX2 analytically  !
 ! D54   D(15,14,17,19)        -64.5069         calculate D2E/DX2 analytically  !
 ! D55   D(15,14,17,20)         57.8242         calculate D2E/DX2 analytically  !
 ! D56   D(16,14,17,18)         64.521          calculate D2E/DX2 analytically  !
 ! D57   D(16,14,17,19)        179.858          calculate D2E/DX2 analytically  !
 ! D58   D(16,14,17,20)        -57.8109         calculate D2E/DX2 analytically  !
 ! D59   D(14,17,20,21)         59.87           calculate D2E/DX2 analytically  !
 ! D60   D(14,17,20,22)        -59.849          calculate D2E/DX2 analytically  !
 ! D61   D(14,17,20,36)       -179.9891         calculate D2E/DX2 analytically  !
 ! D62   D(18,17,20,21)        -62.2635         calculate D2E/DX2 analytically  !
 ! D63   D(18,17,20,22)        178.0175         calculate D2E/DX2 analytically  !
 ! D64   D(18,17,20,36)         57.8774         calculate D2E/DX2 analytically  !
 ! D65   D(19,17,20,21)       -177.9963         calculate D2E/DX2 analytically  !
 ! D66   D(19,17,20,22)         62.2848         calculate D2E/DX2 analytically  !
 ! D67   D(19,17,20,36)        -57.8554         calculate D2E/DX2 analytically  !
 ! D68   D(7,23,26,27)         -58.2696         calculate D2E/DX2 analytically  !
 ! D69   D(7,23,26,28)          58.2521         calculate D2E/DX2 analytically  !
 ! D70   D(7,23,26,29)         179.9921         calculate D2E/DX2 analytically  !
 ! D71   D(24,23,26,27)        178.6523         calculate D2E/DX2 analytically  !
 ! D72   D(24,23,26,28)        -64.826          calculate D2E/DX2 analytically  !
 ! D73   D(24,23,26,29)         56.914          calculate D2E/DX2 analytically  !
 ! D74   D(25,23,26,27)         64.806          calculate D2E/DX2 analytically  !
 ! D75   D(25,23,26,28)       -178.6723         calculate D2E/DX2 analytically  !
 ! D76   D(25,23,26,29)        -56.9322         calculate D2E/DX2 analytically  !
 ! D77   D(23,26,29,30)        -57.6769         calculate D2E/DX2 analytically  !
 ! D78   D(23,26,29,31)         57.6551         calculate D2E/DX2 analytically  !
 ! D79   D(23,26,29,32)        179.9896         calculate D2E/DX2 analytically  !
 ! D80   D(27,26,29,30)       -179.8871         calculate D2E/DX2 analytically  !
 ! D81   D(27,26,29,31)        -64.5551         calculate D2E/DX2 analytically  !
 ! D82   D(27,26,29,32)         57.7794         calculate D2E/DX2 analytically  !
 ! D83   D(28,26,29,30)         64.5367         calculate D2E/DX2 analytically  !
 ! D84   D(28,26,29,31)        179.8687         calculate D2E/DX2 analytically  !
 ! D85   D(28,26,29,32)        -57.7968         calculate D2E/DX2 analytically  !
 ! D86   D(26,29,32,33)         59.8427         calculate D2E/DX2 analytically  !
 ! D87   D(26,29,32,34)        -59.8666         calculate D2E/DX2 analytically  !
 ! D88   D(26,29,32,37)        179.9876         calculate D2E/DX2 analytically  !
 ! D89   D(30,29,32,33)        -62.2925         calculate D2E/DX2 analytically  !
 ! D90   D(30,29,32,34)        177.9983         calculate D2E/DX2 analytically  !
 ! D91   D(30,29,32,37)         57.8525         calculate D2E/DX2 analytically  !
 ! D92   D(31,29,32,33)       -178.0224         calculate D2E/DX2 analytically  !
 ! D93   D(31,29,32,34)         62.2684         calculate D2E/DX2 analytically  !
 ! D94   D(31,29,32,37)        -57.8774         calculate D2E/DX2 analytically  !
 ! D95   D(35,38,39,40)        179.9998         calculate D2E/DX2 analytically  !
 ! D96   D(35,38,39,46)         -0.0026         calculate D2E/DX2 analytically  !
 ! D97   D(43,38,39,40)          0.0038         calculate D2E/DX2 analytically  !
 ! D98   D(43,38,39,46)       -179.9986         calculate D2E/DX2 analytically  !
 ! D99   D(35,38,43,42)        179.9999         calculate D2E/DX2 analytically  !
 ! D100  D(35,38,43,47)         -0.0012         calculate D2E/DX2 analytically  !
 ! D101  D(39,38,43,42)         -0.0041         calculate D2E/DX2 analytically  !
 ! D102  D(39,38,43,47)        179.9948         calculate D2E/DX2 analytically  !
 ! D103  D(38,39,40,41)         -0.0017         calculate D2E/DX2 analytically  !
 ! D104  D(38,39,40,48)        179.9979         calculate D2E/DX2 analytically  !
 ! D105  D(46,39,40,41)       -179.9992         calculate D2E/DX2 analytically  !
 ! D106  D(46,39,40,48)          0.0004         calculate D2E/DX2 analytically  !
 ! D107  D(39,40,41,42)         -0.0002         calculate D2E/DX2 analytically  !
 ! D108  D(39,40,41,44)       -179.9991         calculate D2E/DX2 analytically  !
 ! D109  D(48,40,41,42)       -179.9999         calculate D2E/DX2 analytically  !
 ! D110  D(48,40,41,44)          0.0013         calculate D2E/DX2 analytically  !
 ! D111  D(40,41,42,43)          0.0            calculate D2E/DX2 analytically  !
 ! D112  D(40,41,42,45)       -179.9978         calculate D2E/DX2 analytically  !
 ! D113  D(44,41,42,43)        179.9988         calculate D2E/DX2 analytically  !
 ! D114  D(44,41,42,45)          0.001          calculate D2E/DX2 analytically  !
 ! D115  D(41,42,43,38)          0.0022         calculate D2E/DX2 analytically  !
 ! D116  D(41,42,43,47)       -179.9967         calculate D2E/DX2 analytically  !
 ! D117  D(45,42,43,38)       -180.0            calculate D2E/DX2 analytically  !
 ! D118  D(45,42,43,47)          0.0011         calculate D2E/DX2 analytically  !
 --------------------------------------------------------------------------------
 Trust Radius=3.00D-01 FncErr=1.00D-07 GrdErr=1.00D-06
 Number of steps in this run=    265 maximum allowed number of steps=    288.
 GradGradGradGradGradGradGradGradGradGradGradGradGradGradGradGradGradGrad

 Leave Link  103 at Fri May 10 15:44:19 2024, MaxMem=    33554432 cpu:         0.1
 (Enter /hits/basement/its/doserbd/software/gaussian/g09d1/g09/l202.exe)
                          Input orientation:                          
 ---------------------------------------------------------------------
 Center     Atomic      Atomic             Coordinates (Angstroms)
 Number     Number       Type             X           Y           Z
 ---------------------------------------------------------------------
      1          6           0       -2.832372    0.020293   -0.012674
      2          6           0        2.815948   -0.003360   -0.008875
      3          6           0       -1.420433    0.002453   -0.011651
      4          6           0       -0.709375   -1.248719   -0.014317
      5          6           0        0.676247   -1.190347   -0.013098
      6          6           0        1.395990    0.032013   -0.009547
      7          6           0        0.690981    1.274503   -0.006793
      8          6           0       -0.695552    1.234643   -0.007923
      9          1           0        1.255523   -2.114320   -0.015016
     10          1           0       -1.274064    2.157630   -0.005970
     11          6           0       -1.489895   -2.544872   -0.018304
     12          1           0       -2.165019   -2.534890   -0.894888
     13          1           0       -2.166965   -2.539083    0.856814
     14          6           0       -0.678575   -3.843149   -0.020503
     15          1           0       -0.014665   -3.868142   -0.904151
     16          1           0       -0.016787   -3.872413    0.864608
     17          6           0       -1.565109   -5.094476   -0.024598
     18          1           0       -2.232311   -5.070651    0.856894
     19          1           0       -2.230018   -5.066520   -0.907703
     20          6           0       -0.764607   -6.399272   -0.026630
     21          1           0       -0.116223   -6.472896    0.863534
     22          1           0       -0.113640   -6.468533   -0.915256
     23          6           0        1.471273    2.575323   -0.002841
     24          1           0        2.146769    2.566888    0.872422
     25          1           0        2.148153    2.571347   -0.877069
     26          6           0        0.658643    3.872512   -0.000192
     27          1           0       -0.003508    3.902839   -0.885023
     28          1           0       -0.005190    3.898229    0.883519
     29          6           0        1.545480    5.123771    0.003914
     30          1           0        2.210563    5.095343    0.886947
     31          1           0        2.212467    5.099765   -0.877811
     32          6           0        0.745911    6.429167    0.006343
     33          1           0        0.095138    6.498653    0.895068
     34          1           0        0.097365    6.503336   -0.883633
     35          6           0        4.039703   -0.047094   -0.010051
     36          1           0       -1.427402   -7.279815   -0.029757
     37          1           0        1.409174    7.309394    0.009496
     38          6           0        5.464853   -0.099872   -0.009745
     39          6           0        6.139075   -1.341626   -0.011166
     40          6           0        7.532527   -1.388475   -0.010865
     41          6           0        8.280425   -0.205272   -0.009185
     42          6           0        7.623150    1.030678   -0.007808
     43          6           0        6.230136    1.087990   -0.008102
     44          1           0        9.372096   -0.246369   -0.008970
     45          1           0        8.201473    1.957801   -0.006530
     46          1           0        5.554032   -2.263250   -0.012463
     47          1           0        5.715792    2.050851   -0.007084
     48          1           0        8.040096   -2.356142   -0.011943
 ---------------------------------------------------------------------
                    Distance matrix (angstroms):
                    1          2          3          4          5
     1  C    0.000000
     2  C    5.648371   0.000000
     3  C    1.412052   4.236386   0.000000
     4  C    2.473360   3.738830   1.439111   0.000000
     5  C    3.711612   2.446891   2.412227   1.386852   0.000000
     6  C    4.228380   1.420399   2.816579   2.464317   1.418523
     7  C    3.739932   2.479601   2.464996   2.885775   2.464902
     8  C    2.457777   3.723344   1.429601   2.483408   2.786115
     9  H    4.611667   2.625093   3.411961   2.147112   1.090546
    10  H    2.645105   4.625806   2.160149   3.452847   3.874624
    11  C    2.895229   4.999967   2.548281   1.513024   2.554788
    12  H    2.784353   5.657182   2.787943   2.132731   3.264681
    13  H    2.783736   5.657627   2.787642   2.132716   3.264919
    14  C    4.423245   5.191899   3.916515   2.594621   2.978751
    15  H    4.884070   4.873441   4.213578   2.852333   2.905498
    16  H    4.883677   4.874108   4.213388   2.852360   2.905881
    17  C    5.269436   6.716649   5.098998   3.939827   4.501781
    18  H    5.199417   7.204993   5.210556   4.205414   4.926800
    19  H    5.199959   7.204530   5.210837   4.205484   4.926602
    20  C    6.744380   7.329965   6.435247   5.150864   5.404548
    21  H    7.092722   7.156369   6.663111   5.330523   5.413115
    22  H    7.093027   7.155591   6.663172   5.330390   5.412676
    23  C    5.004961   2.908229   3.870620   4.402119   3.848693
    24  H    5.662189   2.798331   4.481388   4.847960   4.130786
    25  H    5.662216   2.798004   4.481403   4.847959   4.130774
    26  C    5.198744   4.435812   4.393182   5.300819   5.062906
    27  H    4.882379   4.896464   4.240692   5.272089   5.211800
    28  H    4.882060   4.896691   4.240438   5.271912   5.211706
    29  C    6.723938   5.282208   5.918174   6.759684   6.373691
    30  H    7.210870   5.212078   6.318951   7.041693   6.532542
    31  H    7.211096   5.211633   6.319081   7.041735   6.532473
    32  C    7.340173   6.757417   6.782037   7.814615   7.619857
    33  H    7.166831   7.106061   6.731992   7.841938   7.764224
    34  H    7.167410   7.105842   6.732425   7.842250   7.764386
    35  C    6.872406   1.224536   5.460361   4.898740   3.552446
    36  H    7.434098   8.423376   7.282293   6.073707   6.442611
    37  H    8.433398   7.446860   7.835721   8.816468   8.531312
    38  C    8.298096   2.650663   6.886047   6.280204   4.911201
    39  C    9.074233   3.582476   7.678067   6.849081   5.464923
    40  C   10.460199   4.915756   9.060363   8.243087   6.859142
    41  C   11.115087   5.468206   9.703082   9.050155   7.667719
    42  C   10.504230   4.917156   9.101849   8.638673   7.293315
    43  C    9.125188   3.584372   7.727200   7.322367   6.003043
    44  H   12.207382   6.560650  10.795397  10.131179   8.746936
    45  H   11.202666   5.731495   9.818579   9.470219   8.157200
    46  H    8.691740   3.550242   7.333251   6.345041   4.994388
    47  H    8.786029   3.553713   7.424396   7.222879   5.991862
    48  H   11.129151   5.729512   9.750106   8.819276   7.455558
                    6          7          8          9         10
     6  C    0.000000
     7  C    1.428575   0.000000
     8  C    2.412648   1.387107   0.000000
     9  H    2.150931   3.435534   3.875861   0.000000
    10  H    3.412836   2.154371   1.089305   4.964720   0.000000
    11  C    3.868947   4.398179   3.862101   2.778977   4.707469
    12  H    4.478126   4.843235   4.141910   3.556848   4.858366
    13  H    4.478367   4.843254   4.141719   3.557238   4.858064
    14  C    4.395546   5.297757   5.077836   2.594151   6.030271
    15  H    4.242814   5.267825   5.225442   2.340904   6.221153
    16  H    4.243186   5.267923   5.225328   2.341667   6.220938
    17  C    5.920238   6.756785   6.388595   4.103339   7.257967
    18  H    6.320797   7.039358   6.547234   4.654579   7.342399
    19  H    6.320574   7.039349   6.547430   4.654178   7.342704
    20  C    6.784534   7.810630   7.634250   4.737286   8.572079
    21  H    6.735198   7.837808   7.778253   4.653034   8.751149
    22  H    6.734715   7.837558   7.778226   4.652334   8.751233
    23  C    2.544433   1.516906   2.548054   4.694619   2.776932
    24  H    2.786957   2.136024   3.260164   4.847222   3.555441
    25  H    2.786855   2.136009   3.260192   4.847205   3.555495
    26  C    3.910653   2.598219   2.965175   6.016531   2.583837
    27  H    4.208128   2.856878   2.892663   6.208725   2.330837
    28  H    4.208147   2.856790   2.892397   6.208664   2.330433
    29  C    5.093970   3.942987   4.488617   7.243921   4.092421
    30  H    5.206202   4.207936   4.914398   7.328361   4.644360
    31  H    5.206018   4.207876   4.914514   7.328245   4.644584
    32  C    6.430120   5.154974   5.390835   8.558699   4.725090
    33  H    6.657926   5.334804   5.399110   8.738310   4.640158
    34  H    6.657963   5.334972   5.399510   8.738410   4.640718
    35  C    2.644896   3.600079   4.905660   3.467722   5.752994
    36  H    7.838034   8.812742   8.545880   5.820708   9.438720
    37  H    7.277418   6.077498   6.429057   9.424998   5.808673
    38  C    4.071000   4.967773   6.303295   4.666528   7.106992
    39  C    4.937990   6.043665   7.304061   4.944305   8.197527
    40  C    6.298799   7.341541   8.636090   6.318832   9.493731
    41  C    6.888523   7.732361   9.090739   7.279680   9.842336
    42  C    6.306731   6.936456   8.321203   7.101953   8.968302
    43  C    4.948137   5.542295   6.927241   5.916216   7.580050
    44  H    7.980962   8.813332  10.175998   8.328747  10.914208
    45  H    7.072713   7.541511   8.926367   8.051612   9.477644
    46  H    4.749479   6.013734   7.161884   4.301089   8.134317
    47  H    4.768270   5.084431   6.463090   6.102680   6.990671
    48  H    7.060271   8.197017   9.444856   6.788881  10.350253
                   11         12         13         14         15
    11  C    0.000000
    12  H    1.106477   0.000000
    13  H    1.106475   1.751707   0.000000
    14  C    1.530937   2.164626   2.164620   0.000000
    15  H    2.170731   2.530152   3.082173   1.105547   0.000000
    16  H    2.170702   3.082158   2.530039   1.105551   1.768765
    17  C    2.550720   2.769255   2.769322   1.533551   2.163651
    18  H    2.774294   3.082750   2.532411   2.165798   3.076567
    19  H    2.774440   2.532496   3.083088   2.165810   2.518712
    20  C    3.922054   4.201008   4.200968   2.557577   2.781919
    21  H    4.253702   4.774673   4.436267   2.830782   3.149566
    22  H    4.253671   4.436453   4.774615   2.830614   2.602298
    23  C    5.914825   6.335033   6.335056   6.768969   6.673725
    24  H    6.336309   6.909634   6.684272   7.061760   7.016951
    25  H    6.336290   6.684118   6.909638   7.061859   6.793050
    26  C    6.767524   7.058921   7.058830   7.830709   7.822289
    27  H    6.673345   6.790919   7.015191   7.823263   7.771012
    28  H    6.673170   7.015170   6.790654   7.823020   7.969465
    29  C    8.247550   8.557496   8.557396   9.238651   9.171321
    30  H    8.537316   8.974470   8.800462   9.437544   9.407642
    31  H    8.537372   8.800604   8.974428   9.437628   9.240355
    32  C    9.248396   9.467843   9.467717  10.370649  10.365425
    33  H    9.226697   9.482466   9.316612  10.411042  10.522342
    34  H    9.227040   9.317083   9.482705  10.411380  10.372103
    35  C    6.067571   6.743192   6.744197   6.055765   5.642492
    36  H    4.735369   4.879225   4.879292   3.517314   3.794721
    37  H   10.271901  10.512027  10.511862  11.346313  11.304839
    38  C    7.372017   8.057776   8.058867   7.194022   6.710062
    39  C    7.723280   8.435807   8.436682   7.262098   6.711871
    40  C    9.096231   9.805007   9.805963   8.570164   7.994173
    41  C   10.046541  10.738664  10.739860   9.669434   9.111865
    42  C    9.789396  10.455068  10.456440   9.626681   9.118009
    43  C    8.532097   9.186419   9.187767   8.488026   8.022698
    44  H   11.102525  11.795220  11.796443  10.674874  10.100983
    45  H   10.686292  11.333032  11.334542  10.606907  10.111985
    46  H    7.049558   7.774074   7.774672   6.429739   5.863546
    47  H    8.546504   9.161026   9.162515   8.696398   8.287179
    48  H    9.531862  10.244799  10.245599   8.844574   8.243867
                   16         17         18         19         20
    16  H    0.000000
    17  C    2.163661   0.000000
    18  H    2.518805   1.105782   0.000000
    19  H    3.076584   1.105785   1.764604   0.000000
    20  C    2.781826   1.530784   2.167949   2.167936   0.000000
    21  H    2.602383   2.188171   2.538535   3.095691   1.103728
    22  H    3.149149   2.188166   3.095700   2.538652   1.103726
    23  C    6.673836   8.248994   8.539122   8.539092   9.248950
    24  H    6.793057   8.560325   8.803896   8.977417   9.469763
    25  H    7.017296   8.560365   8.977484   8.803767   9.469922
    26  C    7.822273   9.238644   9.437817   9.437915  10.369951
    27  H    7.969688   9.172273   9.408791   9.241604  10.365789
    28  H    7.770674   9.172064   9.241298   9.408775  10.365501
    29  C    9.171303  10.681251  10.905297  10.905386  11.752359
    30  H    9.240251  10.905000  11.094479  11.234010  11.908503
    31  H    9.407740  10.905072  11.233994  11.094589  11.908624
    32  C   10.365369  11.753132  11.909621  11.909763  12.917105
    33  H   10.371715  11.747461  11.801156  11.933548  12.959366
    34  H   10.522620  11.747808  11.933733  11.801646  12.959735
    35  C    5.643864   7.542558   8.082442   8.081448   7.964410
    36  H    3.794748   2.189680   2.512854   2.512699   1.102118
    37  H   11.304751  12.755529  12.932286  12.932448  13.879991
    38  C    6.711553   8.623611   9.203589   9.202443   8.859396
    39  C    6.713159   8.569628   9.205393   9.204365   8.558087
    40  C    7.995533   9.823524  10.472034  10.470893   9.692820
    41  C    9.113461  10.992684  11.616352  11.615010  10.962597
    42  C    9.119762  11.042731  11.623426  11.621986  11.205310
    43  C    8.024417   9.949322  10.501909  10.500547  10.246261
    44  H   10.102596  11.963563  12.597050  12.595658  11.857962
    45  H   10.113856  12.046620  12.609857  12.608299  12.256903
    46  H    5.864528   7.661473   8.322525   8.321731   7.551959
    47  H    8.288990  10.201349  10.706754  10.705324  10.648968
    48  H    8.245046   9.987922  10.660477  10.659445   9.688648
                   21         22         23         24         25
    21  H    0.000000
    22  H    1.778798   0.000000
    23  C    9.227189   9.226905   0.000000
    24  H    9.318739   9.483884   1.105645   0.000000
    25  H    9.484483   9.318615   1.105647   1.749497   0.000000
    26  C   10.410279  10.410138   1.530710   2.163476   2.163466
    27  H   10.522643  10.372000   2.171525   3.081731   2.530332
    28  H   10.371738  10.522220   2.171557   2.530518   3.081748
    29  C   11.746611  11.746449   2.549537   2.766497   2.766625
    30  H   11.799942  11.932019   2.772864   2.529302   3.079968
    31  H   11.932374  11.799902   2.772679   3.079464   2.529236
    32  C   12.959216  12.959122   3.921524   4.198774   4.198747
    33  H   12.973309  13.094609   4.253529   4.434917   4.772743
    34  H   13.095067  12.973623   4.253552   4.772778   4.434672
    35  C    7.702324   7.700943   3.670689   3.345872   3.344535
    36  H    1.779966   1.779960  10.272623  10.514094  10.514177
    37  H   13.892722  13.892639   4.734495   4.876480   4.876595
    38  C    8.516247   8.514657   4.806808   4.347357   4.346051
    39  C    8.137800   8.136277   6.093516   5.656476   5.655847
    40  C    9.226011   9.224358   7.242276   6.740288   6.739583
    41  C   10.514202  10.512360   7.355019   6.788508   6.787311
    42  C   10.814839  10.812934   6.342834   5.755475   5.753683
    43  C    9.909744   9.907950   4.985877   4.431292   4.429225
    44  H   11.382403  11.380503   8.389576   7.803628   7.802466
    45  H   11.875088  11.873078   6.758472   6.148413   6.146297
    46  H    7.116199   7.114910   6.330940   5.976846   5.976695
    47  H   10.364585  10.362767   4.276801   3.711839   3.708886
    48  H    9.178216   9.176662   8.213943   7.729788   7.729397
                   26         27         28         29         30
    26  C    0.000000
    27  H    1.105572   0.000000
    28  H    1.105568   1.768548   0.000000
    29  C    1.533670   2.163388   2.163385   0.000000
    30  H    2.165822   3.076370   2.518463   1.105844   0.000000
    31  H    2.165810   2.518577   3.076357   1.105842   1.764764
    32  C    2.558152   2.781815   2.781949   1.530809   2.167892
    33  H    2.831192   3.149081   2.602385   2.188138   2.538576
    34  H    2.831383   2.602453   3.149591   2.188144   3.095642
    35  C    5.176387   5.719712   5.720595   5.741010   5.531277
    36  H   11.345786  11.305339  11.305106  12.754924  12.931345
    37  H    3.517890   3.794793   3.794785   2.189877   2.512801
    38  C    6.235350   6.833065   6.834041   6.530553   6.195541
    39  C    7.564555   8.123999   8.124564   7.931123   7.594366
    40  C    8.656118   9.249539   9.250208   8.846146   8.436188
    41  C    8.644071   9.288014   9.289083   8.588269   8.108194
    42  C    7.521997   8.196629   8.198103   7.327457   6.827752
    43  C    6.228576   6.895700   6.897226   6.183339   5.746039
    44  H    9.637921  10.290060  10.291148   9.491812   8.979093
    45  H    7.782059   8.478009   8.479786   7.370599   6.821545
    46  H    7.849367   8.346751   8.346949   8.404572   8.132442
    47  H    5.375244   6.075444   6.077468   5.180199   4.728092
    48  H    9.658267  10.229207  10.229645   9.906028   9.503478
                   31         32         33         34         35
    31  H    0.000000
    32  C    2.167908   0.000000
    33  H    3.095654   1.103706   0.000000
    34  H    2.538445   1.103707   1.778709   0.000000
    35  C    5.530096   7.265762   7.695820   7.695019   0.000000
    36  H   12.931428  13.880230  13.893150  13.893497   9.066525
    37  H    2.512977   1.102147   1.779952   1.779958   7.812681
    38  C    6.194173   8.055870   8.555295   8.554295   1.426128
    39  C    7.593474   9.458951   9.940846   9.940165   2.466410
    40  C    8.435158  10.352487  10.878523  10.877685   3.741540
    41  C    8.106666  10.039170  10.618814  10.617559   4.243671
    42  C    6.825677   8.743015   9.347990   9.346363   3.742017
    43  C    5.743900   7.655397   8.229775   8.228208   2.467067
    44  H    8.977545  10.907525  11.505414  11.504094   5.336115
    45  H    6.819037   8.693601   9.335143   9.333154   4.619518
    46  H    8.131966   9.933605  10.363112  10.362778   2.684128
    47  H    4.725180   6.623409   7.224166   7.222166   2.685267
    48  H    9.502712  11.418718  11.931154  11.930514   4.618966
                   36         37         38         39         40
    36  H    0.000000
    37  H   14.862460   0.000000
    38  C    9.952646   8.446664   0.000000
    39  C    9.618421   9.859642   1.412986   0.000000
    40  C   10.723273  10.637142   2.436344   1.394239   0.000000
    41  C   12.012139  10.182566   2.817544   2.424187   1.399758
    42  C   12.287281   8.833803   2.436471   2.798270   2.420851
    43  C   11.342774   7.870696   1.413039   2.431324   2.798054
    44  H   12.887938  10.977159   3.909988   3.413505   2.165277
    45  H   13.343512   8.647262   3.423904   3.890980   3.412487
    46  H    8.596898  10.431483   2.165217   1.091635   2.163256
    47  H   11.751045   6.797022   2.165314   3.418784   3.889666
    48  H   10.671288  11.721441   3.423833   2.154790   1.092706
                   41         42         43         44         45
    41  C    0.000000
    42  C    1.399852   0.000000
    43  C    2.424090   1.394193   0.000000
    44  H    1.092444   2.165563   3.413565   0.000000
    45  H    2.164515   1.092710   2.154702   2.495742   0.000000
    46  H    3.415919   3.889888   3.418764   4.318035   4.982595
    47  H    3.415763   2.163047   1.091628   4.318076   2.487423
    48  H    2.164257   3.412391   3.890760   2.495070   4.316964
                   46         47         48
    46  H    0.000000
    47  H    4.317136   0.000000
    48  H    2.487798   4.982369   0.000000
 Stoichiometry    C23H25(2)
 Framework group  C1[X(C23H25)]
 Deg. of freedom   138
 Full point group                 C1      NOp   1
 Largest Abelian subgroup         C1      NOp   1
 Largest concise Abelian subgroup C1      NOp   1
                         Standard orientation:                         
 ---------------------------------------------------------------------
 Center     Atomic      Atomic             Coordinates (Angstroms)
 Number     Number       Type             X           Y           Z
 ---------------------------------------------------------------------
      1          6           0       -3.723788    2.900109   -0.001351
      2          6           0        0.754857   -0.541669    0.001004
      3          6           0       -2.611467    2.030262   -0.000658
      4          6           0       -2.804084    0.604100   -0.000298
      5          6           0       -1.666511   -0.189175    0.000401
      6          6           0       -0.353218    0.346983    0.000619
      7          6           0       -0.161049    1.762574    0.000367
      8          6           0       -1.288128    2.571127   -0.000290
      9          1           0       -1.765668   -1.275203    0.000703
     10          1           0       -1.188961    3.655908   -0.000555
     11          6           0       -4.210445    0.046074   -0.000747
     12          1           0       -4.742976    0.461500   -0.877173
     13          1           0       -4.743965    0.462641    0.874533
     14          6           0       -4.351854   -1.478318    0.000174
     15          1           0       -3.840454   -1.902202   -0.883583
     16          1           0       -3.841601   -1.900983    0.885181
     17          6           0       -5.815378   -1.936440   -0.000469
     18          1           0       -6.330108   -1.511495    0.881137
     19          1           0       -6.328902   -1.512920   -0.883466
     20          6           0       -5.969344   -3.459462    0.000638
     21          1           0       -5.496627   -3.909281    0.890816
     22          1           0       -5.495075   -3.910725   -0.887980
     23          6           0        1.247957    2.324451    0.000769
     24          1           0        1.781719    1.910027    0.875870
     25          1           0        1.782427    1.909442   -0.873626
     26          6           0        1.387667    3.848772    0.000301
     27          1           0        0.877770    4.272503   -0.884428
     28          1           0        0.876768    4.273185    0.884120
     29          6           0        2.851390    4.306657    0.000956
     30          1           0        3.364767    3.882656    0.883882
     31          1           0        3.365839    3.881697   -0.880882
     32          6           0        3.006462    5.829591    0.000243
     33          1           0        2.532486    6.280916    0.888960
     34          1           0        2.533947    6.279942   -0.889747
     35          6           0        1.701790   -1.318075   -0.000386
     36          1           0       -7.030192   -3.758232   -0.000049
     37          1           0        4.067492    6.127826    0.000957
     38          6           0        2.803446   -2.223720   -0.000325
     39          6           0        2.587236   -3.620065    0.001265
     40          6           0        3.667271   -4.501784    0.001315
     41          6           0        4.979227   -4.013840   -0.000245
     42          6           0        5.205401   -2.632381   -0.001868
     43          6           0        4.132056   -1.742604   -0.001938
     44          1           0        5.822695   -4.708099   -0.000215
     45          1           0        6.227280   -2.245371   -0.003127
     46          1           0        1.563344   -3.998629    0.002492
     47          1           0        4.306427   -0.664994   -0.003257
     48          1           0        3.484597   -5.579112    0.002588
 ---------------------------------------------------------------------
 Rotational constants (GHZ):      0.2024479      0.1408327      0.0833999
 Leave Link  202 at Fri May 10 15:44:19 2024, MaxMem=    33554432 cpu:         0.1
 (Enter /hits/basement/its/doserbd/software/gaussian/g09d1/g09/l301.exe)
 Standard basis: 6-31+G (6D, 7F)
 Ernie: Thresh=  0.10000D-02 Tol=  0.10000D-05 Strict=F.
 There are   349 symmetry adapted cartesian basis functions of A   symmetry.
 There are   349 symmetry adapted basis functions of A   symmetry.
   349 basis functions,   698 primitive gaussians,   349 cartesian basis functions
    82 alpha electrons       81 beta electrons
       nuclear repulsion energy      1629.6705756598 Hartrees.
 IExCor= 3226 DFT=T Ex+Corr=BMK ExCW=0 ScaHFX=  0.420000
 ScaDFX=  1.000000  1.000000  1.000000  1.000000 ScalE2=  1.000000  1.000000
 IRadAn=      0 IRanWt=     -1 IRanGd=            0 ICorTp=0 IEmpDi=  4
 NAtoms=   48 NActive=   48 NUniq=   48 SFac= 1.00D+00 NAtFMM=   60 NAOKFM=F Big=F
 Integral buffers will be    131072 words long.
 Raffenetti 2 integral format.
 Two-electron integral symmetry is turned on.
 Leave Link  301 at Fri May 10 15:44:19 2024, MaxMem=    33554432 cpu:         0.3
 (Enter /hits/basement/its/doserbd/software/gaussian/g09d1/g09/l302.exe)
 NPDir=0 NMtPBC=     1 NCelOv=     1 NCel=       1 NClECP=     1 NCelD=      1
         NCelK=      1 NCelE2=     1 NClLst=     1 CellRange=     0.0.
 One-electron integrals computed using PRISM.
 NBasis=   349 RedAO= T EigKep=  2.01D-06  NBF=   349
 NBsUse=   339 1.00D-06 EigRej=  9.25D-07 NBFU=   339
 Precomputing XC quadrature grid using
 IXCGrd= 4 IRadAn=           0 IRanWt=          -1 IRanGd=           0 AccXCQ= 0.00D+00.
 Generated NRdTot=       0 NPtTot=           0 NUsed=           0 NTot=          32
 NSgBfM=   342   342   342   342   342 MxSgAt=    48 MxSgA2=    48.
 Leave Link  302 at Fri May 10 15:44:20 2024, MaxMem=    33554432 cpu:         2.7
 (Enter /hits/basement/its/doserbd/software/gaussian/g09d1/g09/l303.exe)
 DipDrv:  MaxL=1.
 Leave Link  303 at Fri May 10 15:44:20 2024, MaxMem=    33554432 cpu:         0.3
 (Enter /hits/basement/its/doserbd/software/gaussian/g09d1/g09/l401.exe)
 ExpMin= 4.38D-02 ExpMax= 3.05D+03 ExpMxC= 4.57D+02 IAcc=2 IRadAn=         4 AccDes= 0.00D+00
 Harris functional with IExCor= 1009 and IRadAn=       4 diagonalized for initial guess.
 HarFok:  IExCor= 1009 AccDes= 0.00D+00 IRadAn=         4 IDoV= 1 UseB2=F ITyADJ=14
 ICtDFT=  3500011 ScaDFX=  1.000000  1.000000  1.000000  1.000000
 FoFCou: FMM=F IPFlag=           0 FMFlag=      100000 FMFlg1=           0
         NFxFlg=           0 DoJE=T BraDBF=F KetDBF=T FulRan=T
         wScrn=  0.000000 ICntrl=     500 IOpCl=  0 I1Cent=   200000004 NGrid=           0
         NMat0=    1 NMatS0=      1 NMatT0=    0 NMatD0=    1 NMtDS0=    0 NMtDT0=    0
 Petite list used in FoFCou.
 Harris En= -890.309498568344    
 JPrj=0 DoOrth=F DoCkMO=F.
 Initial guess <Sx>= 0.0000 <Sy>= 0.0000 <Sz>= 0.5000 <S**2>= 0.7500 S= 0.5000
 Leave Link  401 at Fri May 10 15:44:21 2024, MaxMem=    33554432 cpu:        10.4
 (Enter /hits/basement/its/doserbd/software/gaussian/g09d1/g09/l502.exe)
 UHF open shell SCF:
 Using DIIS extrapolation, IDIIS=  1040.
 Integral symmetry usage will be decided dynamically.
 IVT=      389426 IEndB=      389426 NGot=    33554432 MDV=    33303797
 LenX=    33303797 LenY=    33181555
 Requested convergence on RMS density matrix=1.00D-08 within 128 cycles.
 Requested convergence on MAX density matrix=1.00D-06.
 Requested convergence on             energy=1.00D-06.
 No special actions if energy rises.
 Fock matrices will be formed incrementally for  20 cycles.

 Cycle   1  Pass 1  IDiag  1:
 FoFJK:  IHMeth= 1 ICntrl=       0 DoSepK=F KAlg= 0 I1Cent=   0 FoldK=F
 IRaf= 720000000 NMat=   1 IRICut=       1 DoRegI=T DoRafI=F ISym2E= 0.
 FoFCou: FMM=F IPFlag=           0 FMFlag=      100000 FMFlg1=           0
         NFxFlg=           0 DoJE=F BraDBF=F KetDBF=F FulRan=T
         wScrn=  0.000000 ICntrl=       0 IOpCl=  1 I1Cent=           0 NGrid=           0
         NMat0=    1 NMatS0=      1 NMatT0=    0 NMatD0=    1 NMtDS0=    0 NMtDT0=    0
 Symmetry not used in FoFCou.
 E= -889.972374404081    
 DIIS: error= 3.77D-02 at cycle   1 NSaved=   1.
 NSaved= 1 IEnMin= 1 EnMin= -889.972374404081     IErMin= 1 ErrMin= 3.77D-02
 ErrMax= 3.77D-02  0.00D+00 EMaxC= 1.00D-01 BMatC= 1.69D+00 BMatP= 1.69D+00
 IDIUse=3 WtCom= 6.23D-01 WtEn= 3.77D-01
 Coeff-Com:  0.100D+01
 Coeff-En:   0.100D+01
 Coeff:      0.100D+01
 Gap=     0.000 Goal=   None    Shift=    0.000
 Gap=     0.105 Goal=   None    Shift=    0.000
 GapD=    0.000 DampG=0.250 DampE=0.500 DampFc=0.2500 IDamp=-1.
 Damping current iteration by 2.50D-01
 RMSDP=9.50D-02 MaxDP=8.79D+00              OVMax= 9.76D-01

 Cycle   2  Pass 1  IDiag  1:
 RMSU=  1.52D-02    CP:  1.19D+00
 E= -890.128408945745     Delta-E=       -0.156034541665 Rises=F Damp=T
 DIIS: error= 1.98D-02 at cycle   2 NSaved=   2.
 NSaved= 2 IEnMin= 2 EnMin= -890.128408945745     IErMin= 2 ErrMin= 1.98D-02
 ErrMax= 1.98D-02  0.00D+00 EMaxC= 1.00D-01 BMatC= 4.79D-01 BMatP= 1.69D+00
 IDIUse=3 WtCom= 8.02D-01 WtEn= 1.98D-01
 Coeff-Com: -0.778D+00 0.178D+01
 Coeff-En:   0.000D+00 0.100D+01
 Coeff:     -0.624D+00 0.162D+01
 Gap=    -0.174 Goal=   None    Shift=    0.000
 Gap=     0.338 Goal=   None    Shift=    0.000
 RMSDP=2.76D-02 MaxDP=2.15D+00 DE=-1.56D-01 OVMax= 7.88D-01

 Cycle   3  Pass 1  IDiag  1:
 RMSU=  2.19D-02    CP:  1.36D+00  1.35D+00
 E= -890.288882349543     Delta-E=       -0.160473403797 Rises=F Damp=F
 DIIS: error= 3.45D-02 at cycle   3 NSaved=   3.
 NSaved= 3 IEnMin= 3 EnMin= -890.288882349543     IErMin= 2 ErrMin= 1.98D-02
 ErrMax= 3.45D-02  0.00D+00 EMaxC= 1.00D-01 BMatC= 4.53D-01 BMatP= 4.79D-01
 IDIUse=3 WtCom= 6.55D-01 WtEn= 3.45D-01
 Coeff-Com: -0.563D+00 0.117D+01 0.389D+00
 Coeff-En:   0.000D+00 0.163D+00 0.837D+00
 Coeff:     -0.369D+00 0.825D+00 0.544D+00
 Gap=     0.165 Goal=   None    Shift=    0.000
 Gap=     0.323 Goal=   None    Shift=    0.000
 RMSDP=4.66D-02 MaxDP=5.72D+00 DE=-1.60D-01 OVMax= 9.95D-01

 Cycle   4  Pass 1  IDiag  1:
 RMSU=  2.95D-02    CP:  1.56D+00  2.53D+00 -1.39D-01
 E= -890.262153831301     Delta-E=        0.026728518242 Rises=F Damp=F
 DIIS: error= 4.53D-02 at cycle   4 NSaved=   4.
 NSaved= 4 IEnMin= 3 EnMin= -890.288882349543     IErMin= 2 ErrMin= 1.98D-02
 ErrMax= 4.53D-02  0.00D+00 EMaxC= 1.00D-01 BMatC= 5.29D-01 BMatP= 4.53D-01
 IDIUse=2 WtCom= 0.00D+00 WtEn= 1.00D+00
 Coeff-En:   0.000D+00 0.000D+00 0.524D+00 0.476D+00
 Coeff:      0.000D+00 0.000D+00 0.524D+00 0.476D+00
 Gap=    -0.017 Goal=   None    Shift=    0.000
 Gap=     0.227 Goal=   None    Shift=    0.000
 RMSDP=4.56D-02 MaxDP=5.96D+00 DE= 2.67D-02 OVMax= 9.49D-01

 Cycle   5  Pass 1  IDiag  1:
 RMSU=  9.60D-03    CP:  1.37D+00  1.23D+00  8.79D-01  7.04D-02
 E= -890.463765253182     Delta-E=       -0.201611421881 Rises=F Damp=F
 DIIS: error= 1.59D-02 at cycle   5 NSaved=   5.
 NSaved= 5 IEnMin= 5 EnMin= -890.463765253182     IErMin= 5 ErrMin= 1.59D-02
 ErrMax= 1.59D-02  0.00D+00 EMaxC= 1.00D-01 BMatC= 5.36D-02 BMatP= 4.53D-01
 IDIUse=3 WtCom= 8.41D-01 WtEn= 1.59D-01
 Coeff-Com: -0.289D+00 0.411D+00-0.568D-01 0.497D-01 0.885D+00
 Coeff-En:   0.000D+00 0.000D+00 0.000D+00 0.564D-01 0.944D+00
 Coeff:     -0.243D+00 0.346D+00-0.477D-01 0.508D-01 0.894D+00
 Gap=     0.071 Goal=   None    Shift=    0.000
 Gap=     0.168 Goal=   None    Shift=    0.000
 RMSDP=6.67D-03 MaxDP=7.29D-01 DE=-2.02D-01 OVMax= 1.31D-01

 Cycle   6  Pass 1  IDiag  1:
 RMSU=  4.65D-03    CP:  1.39D+00  1.45D+00  8.00D-01  3.73D-02  1.15D+00
 E= -890.488006249787     Delta-E=       -0.024240996605 Rises=F Damp=F
 DIIS: error= 3.55D-03 at cycle   6 NSaved=   6.
 NSaved= 6 IEnMin= 6 EnMin= -890.488006249787     IErMin= 6 ErrMin= 3.55D-03
 ErrMax= 3.55D-03  0.00D+00 EMaxC= 1.00D-01 BMatC= 4.68D-03 BMatP= 5.36D-02
 IDIUse=3 WtCom= 9.64D-01 WtEn= 3.55D-02
 Coeff-Com: -0.171D+00 0.244D+00-0.752D-01-0.183D-01 0.452D+00 0.569D+00
 Coeff-En:   0.000D+00 0.000D+00 0.000D+00 0.000D+00 0.000D+00 0.100D+01
 Coeff:     -0.165D+00 0.235D+00-0.725D-01-0.177D-01 0.436D+00 0.584D+00
 Gap=     0.103 Goal=   None    Shift=    0.000
 Gap=     0.170 Goal=   None    Shift=    0.000
 RMSDP=1.93D-03 MaxDP=1.70D-01 DE=-2.42D-02 OVMax= 3.45D-02

 Cycle   7  Pass 1  IDiag  1:
 RMSU=  1.21D-03    CP:  1.40D+00  1.46D+00  7.90D-01  4.21D-02  1.17D+00
                    CP:  1.29D+00
 E= -890.490151706951     Delta-E=       -0.002145457164 Rises=F Damp=F
 DIIS: error= 2.12D-03 at cycle   7 NSaved=   7.
 NSaved= 7 IEnMin= 7 EnMin= -890.490151706951     IErMin= 7 ErrMin= 2.12D-03
 ErrMax= 2.12D-03  0.00D+00 EMaxC= 1.00D-01 BMatC= 8.44D-04 BMatP= 4.68D-03
 IDIUse=3 WtCom= 9.79D-01 WtEn= 2.12D-02
 Coeff-Com: -0.428D-01 0.674D-01-0.203D-01-0.675D-02 0.475D-01 0.181D+00
 Coeff-Com:  0.774D+00
 Coeff-En:   0.000D+00 0.000D+00 0.000D+00 0.000D+00 0.000D+00 0.000D+00
 Coeff-En:   0.100D+01
 Coeff:     -0.419D-01 0.660D-01-0.199D-01-0.661D-02 0.465D-01 0.178D+00
 Coeff:      0.778D+00
 Gap=     0.115 Goal=   None    Shift=    0.000
 Gap=     0.172 Goal=   None    Shift=    0.000
 RMSDP=1.20D-03 MaxDP=7.38D-02 DE=-2.15D-03 OVMax= 2.39D-02

 Cycle   8  Pass 1  IDiag  1:
 RMSU=  7.18D-04    CP:  1.39D+00  1.46D+00  7.79D-01  4.19D-02  1.14D+00
                    CP:  1.42D+00  1.22D+00
 E= -890.490817556325     Delta-E=       -0.000665849374 Rises=F Damp=F
 DIIS: error= 9.14D-04 at cycle   8 NSaved=   8.
 NSaved= 8 IEnMin= 8 EnMin= -890.490817556325     IErMin= 8 ErrMin= 9.14D-04
 ErrMax= 9.14D-04  0.00D+00 EMaxC= 1.00D-01 BMatC= 3.53D-04 BMatP= 8.44D-04
 IDIUse=3 WtCom= 9.91D-01 WtEn= 9.14D-03
 Coeff-Com:  0.415D-01-0.519D-01 0.239D-01 0.998D-03-0.176D+00-0.153D+00
 Coeff-Com:  0.504D+00 0.811D+00
 Coeff-En:   0.000D+00 0.000D+00 0.000D+00 0.000D+00 0.000D+00 0.000D+00
 Coeff-En:   0.000D+00 0.100D+01
 Coeff:      0.412D-01-0.515D-01 0.237D-01 0.989D-03-0.174D+00-0.152D+00
 Coeff:      0.499D+00 0.813D+00
 Gap=     0.123 Goal=   None    Shift=    0.000
 Gap=     0.175 Goal=   None    Shift=    0.000
 RMSDP=1.02D-03 MaxDP=5.03D-02 DE=-6.66D-04 OVMax= 2.30D-02

 Cycle   9  Pass 1  IDiag  1:
 RMSU=  3.00D-04    CP:  1.39D+00  1.45D+00  7.72D-01  4.21D-02  1.12D+00
                    CP:  1.53D+00  1.48D+00  1.89D+00
 E= -890.491109828295     Delta-E=       -0.000292271970 Rises=F Damp=F
 DIIS: error= 5.62D-04 at cycle   9 NSaved=   9.
 NSaved= 9 IEnMin= 9 EnMin= -890.491109828295     IErMin= 9 ErrMin= 5.62D-04
 ErrMax= 5.62D-04  0.00D+00 EMaxC= 1.00D-01 BMatC= 1.46D-04 BMatP= 3.53D-04
 IDIUse=3 WtCom= 9.94D-01 WtEn= 5.62D-03
 Coeff-Com:  0.256D-01-0.357D-01 0.161D-01-0.169D-03-0.718D-01-0.959D-01
 Coeff-Com:  0.500D-01 0.415D+00 0.697D+00
 Coeff-En:   0.000D+00 0.000D+00 0.000D+00 0.000D+00 0.000D+00 0.000D+00
 Coeff-En:   0.000D+00 0.000D+00 0.100D+01
 Coeff:      0.254D-01-0.355D-01 0.160D-01-0.168D-03-0.714D-01-0.953D-01
 Coeff:      0.497D-01 0.413D+00 0.698D+00
 Gap=     0.124 Goal=   None    Shift=    0.000
 Gap=     0.176 Goal=   None    Shift=    0.000
 RMSDP=3.12D-04 MaxDP=3.75D-02 DE=-2.92D-04 OVMax= 4.77D-03

 Cycle  10  Pass 1  IDiag  1:
 RMSU=  1.45D-04    CP:  1.39D+00  1.45D+00  7.76D-01  4.28D-02  1.11D+00
                    CP:  1.54D+00  1.55D+00  2.17D+00  1.20D+00
 E= -890.491177172959     Delta-E=       -0.000067344664 Rises=F Damp=F
 DIIS: error= 3.70D-04 at cycle  10 NSaved=  10.
 NSaved=10 IEnMin=10 EnMin= -890.491177172959     IErMin=10 ErrMin= 3.70D-04
 ErrMax= 3.70D-04  0.00D+00 EMaxC= 1.00D-01 BMatC= 5.78D-05 BMatP= 1.46D-04
 IDIUse=3 WtCom= 9.96D-01 WtEn= 3.70D-03
 Coeff-Com: -0.544D-02 0.275D-02-0.291D-02-0.166D-02 0.612D-01 0.361D-01
 Coeff-Com: -0.213D+00-0.168D+00 0.410D+00 0.881D+00
 Coeff-En:   0.000D+00 0.000D+00 0.000D+00 0.000D+00 0.000D+00 0.000D+00
 Coeff-En:   0.000D+00 0.000D+00 0.000D+00 0.100D+01
 Coeff:     -0.542D-02 0.274D-02-0.290D-02-0.166D-02 0.610D-01 0.360D-01
 Coeff:     -0.212D+00-0.167D+00 0.408D+00 0.881D+00
 Gap=     0.123 Goal=   None    Shift=    0.000
 Gap=     0.177 Goal=   None    Shift=    0.000
 RMSDP=2.55D-04 MaxDP=3.99D-02 DE=-6.73D-05 OVMax= 4.35D-03

 Cycle  11  Pass 1  IDiag  1:
 RMSU=  1.10D-04    CP:  1.39D+00  1.45D+00  7.82D-01  4.28D-02  1.10D+00
                    CP:  1.52D+00  1.54D+00  2.35D+00  1.39D+00  1.34D+00
 E= -890.491211529771     Delta-E=       -0.000034356811 Rises=F Damp=F
 DIIS: error= 1.06D-04 at cycle  11 NSaved=  11.
 NSaved=11 IEnMin=11 EnMin= -890.491211529771     IErMin=11 ErrMin= 1.06D-04
 ErrMax= 1.06D-04  0.00D+00 EMaxC= 1.00D-01 BMatC= 3.43D-06 BMatP= 5.78D-05
 IDIUse=3 WtCom= 9.99D-01 WtEn= 1.06D-03
 Coeff-Com: -0.435D-02 0.590D-02-0.303D-02-0.670D-03 0.178D-01 0.210D-01
 Coeff-Com: -0.286D-01-0.107D+00-0.797D-01 0.145D+00 0.103D+01
 Coeff-En:   0.000D+00 0.000D+00 0.000D+00 0.000D+00 0.000D+00 0.000D+00
 Coeff-En:   0.000D+00 0.000D+00 0.000D+00 0.000D+00 0.100D+01
 Coeff:     -0.434D-02 0.589D-02-0.303D-02-0.669D-03 0.178D-01 0.210D-01
 Coeff:     -0.286D-01-0.106D+00-0.796D-01 0.144D+00 0.103D+01
 Gap=     0.123 Goal=   None    Shift=    0.000
 Gap=     0.177 Goal=   None    Shift=    0.000
 RMSDP=6.42D-05 MaxDP=6.91D-03 DE=-3.44D-05 OVMax= 1.72D-03

 Cycle  12  Pass 1  IDiag  1:
 RMSU=  3.48D-05    CP:  1.39D+00  1.45D+00  7.82D-01  4.25D-02  1.10D+00
                    CP:  1.52D+00  1.54D+00  2.39D+00  1.46D+00  1.52D+00
                    CP:  1.11D+00
 E= -890.491214967207     Delta-E=       -0.000003437436 Rises=F Damp=F
 DIIS: error= 6.11D-05 at cycle  12 NSaved=  12.
 NSaved=12 IEnMin=12 EnMin= -890.491214967207     IErMin=12 ErrMin= 6.11D-05
 ErrMax= 6.11D-05  0.00D+00 EMaxC= 1.00D-01 BMatC= 1.63D-06 BMatP= 3.43D-06
 IDIUse=1 WtCom= 1.00D+00 WtEn= 0.00D+00
 Coeff-Com: -0.382D-03 0.986D-03-0.121D-02 0.207D-03-0.303D-02 0.263D-02
 Coeff-Com:  0.186D-01-0.215D-01-0.846D-01-0.560D-01 0.423D+00 0.721D+00
 Coeff:     -0.382D-03 0.986D-03-0.121D-02 0.207D-03-0.303D-02 0.263D-02
 Coeff:      0.186D-01-0.215D-01-0.846D-01-0.560D-01 0.423D+00 0.721D+00
 Gap=     0.123 Goal=   None    Shift=    0.000
 Gap=     0.177 Goal=   None    Shift=    0.000
 RMSDP=2.96D-05 MaxDP=4.07D-03 DE=-3.44D-06 OVMax= 5.82D-04

 Cycle  13  Pass 1  IDiag  1:
 RMSU=  1.28D-05    CP:  1.39D+00  1.45D+00  7.82D-01  4.24D-02  1.10D+00
                    CP:  1.52D+00  1.55D+00  2.38D+00  1.45D+00  1.51D+00
                    CP:  1.10D+00  1.11D+00
 E= -890.491215725699     Delta-E=       -0.000000758492 Rises=F Damp=F
 DIIS: error= 3.16D-05 at cycle  13 NSaved=  13.
 NSaved=13 IEnMin=13 EnMin= -890.491215725699     IErMin=13 ErrMin= 3.16D-05
 ErrMax= 3.16D-05  0.00D+00 EMaxC= 1.00D-01 BMatC= 4.05D-07 BMatP= 1.63D-06
 IDIUse=1 WtCom= 1.00D+00 WtEn= 0.00D+00
 Coeff-Com:  0.668D-03-0.878D-03 0.177D-03 0.320D-03-0.430D-02-0.337D-02
 Coeff-Com:  0.516D-02 0.162D-01 0.108D-01-0.240D-01-0.178D+00 0.106D+00
 Coeff-Com:  0.107D+01
 Coeff:      0.668D-03-0.878D-03 0.177D-03 0.320D-03-0.430D-02-0.337D-02
 Coeff:      0.516D-02 0.162D-01 0.108D-01-0.240D-01-0.178D+00 0.106D+00
 Coeff:      0.107D+01
 Gap=     0.123 Goal=   None    Shift=    0.000
 Gap=     0.177 Goal=   None    Shift=    0.000
 RMSDP=2.96D-05 MaxDP=3.73D-03 DE=-7.58D-07 OVMax= 3.20D-04

 Cycle  14  Pass 1  IDiag  1:
 RMSU=  7.69D-06    CP:  1.39D+00  1.45D+00  7.81D-01  4.23D-02  1.10D+00
                    CP:  1.52D+00  1.55D+00  2.36D+00  1.43D+00  1.48D+00
                    CP:  1.07D+00  1.19D+00  1.39D+00
 E= -890.491216005956     Delta-E=       -0.000000280257 Rises=F Damp=F
 DIIS: error= 1.13D-05 at cycle  14 NSaved=  14.
 NSaved=14 IEnMin=14 EnMin= -890.491216005956     IErMin=14 ErrMin= 1.13D-05
 ErrMax= 1.13D-05  0.00D+00 EMaxC= 1.00D-01 BMatC= 6.97D-08 BMatP= 4.05D-07
 IDIUse=1 WtCom= 1.00D+00 WtEn= 0.00D+00
 Coeff-Com:  0.291D-03-0.440D-03 0.341D-03 0.151D-03-0.146D-02-0.195D-02
 Coeff-Com: -0.588D-03 0.116D-01 0.206D-01-0.762D-04-0.167D+00-0.100D+00
 Coeff-Com:  0.489D+00 0.750D+00
 Coeff:      0.291D-03-0.440D-03 0.341D-03 0.151D-03-0.146D-02-0.195D-02
 Coeff:     -0.588D-03 0.116D-01 0.206D-01-0.762D-04-0.167D+00-0.100D+00
 Coeff:      0.489D+00 0.750D+00
 Gap=     0.123 Goal=   None    Shift=    0.000
 Gap=     0.177 Goal=   None    Shift=    0.000
 RMSDP=1.22D-05 MaxDP=1.31D-03 DE=-2.80D-07 OVMax= 2.09D-04

 Cycle  15  Pass 1  IDiag  1:
 RMSU=  3.50D-06    CP:  1.39D+00  1.45D+00  7.81D-01  4.22D-02  1.10D+00
                    CP:  1.52D+00  1.54D+00  2.35D+00  1.43D+00  1.47D+00
                    CP:  1.06D+00  1.23D+00  1.60D+00  1.13D+00
 E= -890.491216078232     Delta-E=       -0.000000072276 Rises=F Damp=F
 DIIS: error= 7.77D-06 at cycle  15 NSaved=  15.
 NSaved=15 IEnMin=15 EnMin= -890.491216078232     IErMin=15 ErrMin= 7.77D-06
 ErrMax= 7.77D-06  0.00D+00 EMaxC= 1.00D-01 BMatC= 1.85D-08 BMatP= 6.97D-08
 IDIUse=1 WtCom= 1.00D+00 WtEn= 0.00D+00
 Coeff-Com:  0.532D-04-0.733D-04 0.178D-03 0.350D-04 0.102D-03-0.414D-03
 Coeff-Com: -0.501D-03 0.135D-02 0.376D-02 0.249D-02-0.165D-01-0.529D-01
 Coeff-Com: -0.823D-01 0.231D+00 0.914D+00
 Coeff:      0.532D-04-0.733D-04 0.178D-03 0.350D-04 0.102D-03-0.414D-03
 Coeff:     -0.501D-03 0.135D-02 0.376D-02 0.249D-02-0.165D-01-0.529D-01
 Coeff:     -0.823D-01 0.231D+00 0.914D+00
 Gap=     0.123 Goal=   None    Shift=    0.000
 Gap=     0.177 Goal=   None    Shift=    0.000
 RMSDP=4.69D-06 MaxDP=2.91D-04 DE=-7.23D-08 OVMax= 1.94D-04

 Cycle  16  Pass 1  IDiag  1:
 RMSU=  2.17D-06    CP:  1.39D+00  1.45D+00  7.81D-01  4.22D-02  1.10D+00
                    CP:  1.52D+00  1.54D+00  2.34D+00  1.42D+00  1.46D+00
                    CP:  1.05D+00  1.25D+00  1.63D+00  1.31D+00  1.26D+00
 E= -890.491216111237     Delta-E=       -0.000000033005 Rises=F Damp=F
 DIIS: error= 4.62D-06 at cycle  16 NSaved=  16.
 NSaved=16 IEnMin=16 EnMin= -890.491216111237     IErMin=16 ErrMin= 4.62D-06
 ErrMax= 4.62D-06  0.00D+00 EMaxC= 1.00D-01 BMatC= 8.25D-09 BMatP= 1.85D-08
 IDIUse=1 WtCom= 1.00D+00 WtEn= 0.00D+00
 Coeff-Com:  0.246D-05-0.173D-04-0.808D-04 0.173D-04 0.584D-03 0.405D-03
 Coeff-Com:  0.283D-03-0.403D-02-0.864D-02-0.167D-02 0.676D-01 0.373D-01
 Coeff-Com: -0.230D+00-0.288D+00 0.279D+00 0.115D+01
 Coeff:      0.246D-05-0.173D-04-0.808D-04 0.173D-04 0.584D-03 0.405D-03
 Coeff:      0.283D-03-0.403D-02-0.864D-02-0.167D-02 0.676D-01 0.373D-01
 Coeff:     -0.230D+00-0.288D+00 0.279D+00 0.115D+01
 Gap=     0.123 Goal=   None    Shift=    0.000
 Gap=     0.177 Goal=   None    Shift=    0.000
 RMSDP=4.45D-06 MaxDP=4.43D-04 DE=-3.30D-08 OVMax= 2.17D-04

 Cycle  17  Pass 1  IDiag  1:
 RMSU=  1.50D-06    CP:  1.39D+00  1.45D+00  7.81D-01  4.23D-02  1.10D+00
                    CP:  1.52D+00  1.54D+00  2.34D+00  1.42D+00  1.46D+00
                    CP:  1.05D+00  1.24D+00  1.68D+00  1.43D+00  1.72D+00
                    CP:  1.84D+00
 E= -890.491216132715     Delta-E=       -0.000000021478 Rises=F Damp=F
 DIIS: error= 3.16D-06 at cycle  17 NSaved=  17.
 NSaved=17 IEnMin=17 EnMin= -890.491216132715     IErMin=17 ErrMin= 3.16D-06
 ErrMax= 3.16D-06  0.00D+00 EMaxC= 1.00D-01 BMatC= 2.14D-09 BMatP= 8.25D-09
 IDIUse=1 WtCom= 1.00D+00 WtEn= 0.00D+00
 Coeff-Com: -0.704D-06 0.121D-04-0.350D-04 0.136D-05-0.977D-04 0.956D-04
 Coeff-Com:  0.222D-03-0.434D-03-0.217D-02-0.138D-02 0.108D-01 0.212D-01
 Coeff-Com: -0.367D-02-0.118D+00-0.256D+00 0.163D+00 0.119D+01
 Coeff:     -0.704D-06 0.121D-04-0.350D-04 0.136D-05-0.977D-04 0.956D-04
 Coeff:      0.222D-03-0.434D-03-0.217D-02-0.138D-02 0.108D-01 0.212D-01
 Coeff:     -0.367D-02-0.118D+00-0.256D+00 0.163D+00 0.119D+01
 Gap=     0.123 Goal=   None    Shift=    0.000
 Gap=     0.177 Goal=   None    Shift=    0.000
 RMSDP=2.86D-06 MaxDP=2.25D-04 DE=-2.15D-08 OVMax= 1.86D-04

 Cycle  18  Pass 1  IDiag  1:
 RMSU=  1.05D-06    CP:  1.39D+00  1.45D+00  7.81D-01  4.23D-02  1.10D+00
                    CP:  1.52D+00  1.54D+00  2.34D+00  1.42D+00  1.46D+00
                    CP:  1.05D+00  1.25D+00  1.71D+00  1.55D+00  1.97D+00
                    CP:  2.61D+00  1.67D+00
 E= -890.491216142254     Delta-E=       -0.000000009539 Rises=F Damp=F
 DIIS: error= 3.09D-06 at cycle  18 NSaved=  18.
 NSaved=18 IEnMin=18 EnMin= -890.491216142254     IErMin=18 ErrMin= 3.09D-06
 ErrMax= 3.09D-06  0.00D+00 EMaxC= 1.00D-01 BMatC= 1.03D-09 BMatP= 2.14D-09
 IDIUse=1 WtCom= 1.00D+00 WtEn= 0.00D+00
 Coeff-Com:  0.468D-07 0.530D-05-0.357D-05-0.174D-05-0.118D-03-0.136D-04
 Coeff-Com:  0.769D-05 0.262D-03 0.435D-03 0.388D-04-0.456D-02 0.290D-02
 Coeff-Com:  0.248D-01-0.112D-01-0.125D+00-0.796D-01 0.436D+00 0.756D+00
 Coeff:      0.468D-07 0.530D-05-0.357D-05-0.174D-05-0.118D-03-0.136D-04
 Coeff:      0.769D-05 0.262D-03 0.435D-03 0.388D-04-0.456D-02 0.290D-02
 Coeff:      0.248D-01-0.112D-01-0.125D+00-0.796D-01 0.436D+00 0.756D+00
 Gap=     0.123 Goal=   None    Shift=    0.000
 Gap=     0.177 Goal=   None    Shift=    0.000
 RMSDP=1.37D-06 MaxDP=1.24D-04 DE=-9.54D-09 OVMax= 9.44D-05

 Cycle  19  Pass 1  IDiag  1:
 RMSU=  4.97D-07    CP:  1.39D+00  1.45D+00  7.81D-01  4.23D-02  1.10D+00
[...]
 580,0.00000195,0.00000130,-0.00000362,0.,-0.00000138,-0.00000314,-0.00
 000146,0.00000103,-0.00000146,-0.00000112,0.00000014,0.00000094,0.0000
 0122,0.00000353,0.00000101,0.00000119,-0.00000358,0.00000461,0.0000008
 1,-0.00000002,-0.00000125,0.00000016,0.00000104,-0.00000135,0.00000016
 ,-0.00000117,-0.00000174,-0.00000256,0.00000008,0.00000141,0.00000146,
 -0.00000153,0.00000140,0.00000143,0.00000151,-0.00000175,-0.00000502,0
 .00000002,0.00000485,-0.00000215,-0.00000650,0.00000492,-0.00000218,0.
 00000641,0.00000514,-0.00000069,-0.00000018,-0.00000285,-0.00000035,0.
 ,-0.00000292,-0.00000038,0.00000007,-0.00000446,-0.00000031,0.,0.00000
 157,-0.00000076,-0.00000340,0.00000164,-0.00000074,0.00000334,0.000002
 56,0.00000166,0.,-0.00000204,-0.00000068,0.00000065,-0.00000203,-0.000
 00068,-0.00000068,0.00006902,0.00017385,-0.00000100,-0.00000184,-0.000
 00341,-0.00000003,0.00000164,0.00000330,-0.00000001,0.00175981,0.00138
 941,-0.00001233,0.00092167,0.00020524,0.00000085,0.00387447,-0.0033002
 2,-0.00002318,-0.01968833,-0.01845925,-0.00005591,-0.13445202,-0.25542
 091,-0.00051687,0.00575958,0.00629598,0.00000572,0.00040801,0.00091806
 ,0.00001159,0.14282922,0.26847811,0.,0.,0.00000227,0.00000004,0.000000
 52,-0.00016237,-0.00000014,-0.00000008,-0.00000835,-0.00000004,0.,0.00
 000056,-0.00000007,0.00000002,-0.00002367,0.00000015,0.00000007,0.0000
 0775,-0.00000001,0.,0.00000934,0.00000009,0.00000001,0.00000043,0.0000
 0001,0.00000002,0.00000409,-0.00000006,0.,0.00000071,-0.00000008,-0.00
 000006,0.00000086,-0.00000111,0.00000016,-0.00000037,0.00000109,-0.000
 00016,-0.00000038,0.00000004,0.00000006,0.00000355,0.00000082,-0.00000
 034,-0.00000110,-0.00000080,0.00000036,-0.00000112,-0.00000008,-0.0000
 0003,0.00000110,0.00000103,-0.00000002,-0.00000061,-0.00000102,0.00000
 001,-0.00000058,-0.00000002,-0.00000001,0.00000134,-0.00000068,0.00000
 001,-0.00000074,0.00000070,0.,-0.00000073,0.00000005,-0.00000008,0.000
 01622,-0.00000069,0.00000129,-0.00000220,0.00000068,-0.00000131,-0.000
 00220,-0.00000005,0.00000002,-0.00000318,-0.00000462,-0.00000018,-0.00
 000167,0.00000461,0.00000017,-0.00000164,0.,-0.00000003,0.00001938,-0.
 00000229,0.00000014,-0.00000612,0.00000228,-0.00000011,-0.00000610,0.0
 0000006,0.,-0.00000375,0.00000392,-0.00000023,-0.00000156,-0.00000393,
 0.00000024,-0.00000160,0.00000001,-0.00000094,0.00035673,0.00000001,0.
 ,0.00000024,-0.00000001,-0.00000002,0.00000378,0.00000184,-0.00001321,
 0.00750555,0.00000203,0.00000183,-0.00065216,0.00000740,-0.00002362,0.
 00722236,-0.00004366,-0.00004928,0.00432112,-0.00032977,-0.00051663,-0
 .04124150,0.00000965,-0.00000112,0.00435269,0.00000187,0.00001140,-0.0
 0410835,0.00035288,0.00057882,0.02792151,-0.00002991,-0.00000315,-0.00
 000003,0.00006693,-0.00009623,-0.00000025,0.00008307,0.00000414,-0.000
 00010,-0.00003010,-0.00000891,-0.00000039,0.00004819,0.00005640,0.0000
 0054,-0.00017865,0.00000331,-0.00000008,0.00006144,0.00001176,-0.00000
 018,-0.00002023,-0.00004209,0.00000009,-0.00008728,-0.00002584,-0.0000
 0011,0.00001078,-0.00000132,0.00000015,0.00000230,-0.00000553,0.000000
 38,0.00000661,0.00000278,0.00000291,0.00000671,0.00000245,-0.00000297,
 -0.00000017,0.00000544,0.00000005,-0.00000506,-0.00000656,-0.00001424,
 -0.00000503,-0.00000662,0.00001420,-0.00000597,-0.00001088,-0.00000004
 ,0.00000356,0.00000337,-0.00000140,0.00000352,0.00000336,0.00000137,0.
 00000755,0.00000861,0.00000005,-0.00000231,-0.00000553,-0.00000114,-0.
 00000232,-0.00000553,0.00000112,0.00002462,-0.00001331,0.,-0.00000207,
 0.00000653,0.00000999,-0.00000206,0.00000658,-0.00000997,-0.00000657,0
 .00000332,-0.00000011,0.00000365,-0.00000132,-0.00000063,0.00000362,-0
 .00000137,0.00000066,0.00001272,0.00000122,0.,-0.00000130,0.00000075,-
 0.00000171,-0.00000129,0.00000076,0.00000169,-0.00000639,-0.00000489,-
 0.00000003,0.00000140,0.00000180,-0.00000015,0.00000141,0.00000179,0.0
 0000016,0.00146288,0.00047416,0.00000179,0.00000409,0.00000722,0.,-0.0
 0000103,-0.00000590,-0.00000002,0.00951880,0.01574670,0.00003784,-0.15
 607794,-0.13759644,-0.00033823,-0.01293948,-0.02836812,-0.00006827,-0.
 00508980,0.00225732,0.00000277,-0.00033613,0.00086325,0.00000199,-0.00
 099637,0.00293861,0.00000541,-0.00070411,-0.00131334,-0.00000316,0.000
 07370,-0.00011012,0.,0.16366051,0.00001477,0.00000569,0.00000499,0.000
 75011,0.00008311,-0.00000081,-0.00004743,-0.00000200,-0.00000266,0.000
 01063,0.00001204,0.00000364,-0.00000618,-0.00003071,-0.00000552,0.0000
 9762,-0.00002576,-0.00000057,-0.00003541,-0.00005299,0.00001004,-0.000
 00071,0.00004191,-0.00000293,0.00002849,0.00006330,0.00000042,-0.00001
 366,0.00000045,-0.00000306,-0.00000011,0.00000940,-0.00000368,-0.00000
 313,-0.00000737,-0.00000238,-0.00000539,-0.00000064,0.00000368,0.00000
 284,-0.00000606,-0.00000113,0.00000058,0.00000759,0.00000579,0.0000003
 9,0.00000804,-0.00000568,0.00000327,0.00000855,0.00000039,-0.00000136,
 -0.00000250,0.00000089,-0.00000156,-0.00000247,-0.00000118,-0.00000542
 ,-0.00000487,0.00000003,0.00000021,0.00000327,0.00000434,0.00000029,0.
 00000328,-0.00000435,-0.00002416,0.00001306,-0.00000023,-0.00000561,-0
 .00000659,0.00000449,-0.00000560,-0.00000667,-0.00000467,0.00001130,-0
 .00000131,-0.00000018,-0.00000012,-0.00000022,0.00000312,0.00000004,-0
 .00000022,-0.00000319,-0.00001986,-0.00000259,0.00000013,0.00000064,0.
 00000013,0.00000999,0.00000077,0.00000020,-0.00001008,0.00000822,0.000
 00819,0.00000001,0.00000067,-0.00000299,-0.00000173,0.00000061,-0.0000
 0300,0.00000168,-0.00119169,0.00113535,0.00001121,-0.00000089,-0.00000
 593,0.,-0.00000036,0.00000734,0.00000003,-0.01935913,-0.01939888,-0.00
 005706,-0.13548653,-0.25435857,-0.00051680,0.00616770,0.00679708,0.000
 00624,0.00151944,0.00118188,-0.00001436,0.00084086,0.00021910,0.000002
 21,0.00386379,-0.00317430,-0.00002123,0.00026050,0.00021313,0.00000040
 ,-0.00010464,-0.00000560,0.00000270,0.14416758,0.26750127,0.00000001,0
 .00000002,-0.00000676,0.00000195,-0.00000004,0.00017157,-0.00000011,-0
 .00000015,0.00001317,-0.00000008,0.00000010,-0.00003434,0.,-0.00000008
 ,-0.00001273,0.00000007,-0.00000022,0.00015454,0.00000005,-0.00000003,
 -0.00003820,0.,0.00000006,0.00000405,0.00000003,0.,0.00007185,-0.00000
 009,-0.00000001,0.00000636,-0.00000010,-0.00000004,-0.00000663,-0.0000
 0988,0.00000251,-0.00000161,0.00000987,-0.00000252,-0.00000164,0.00000
 005,-0.00000004,0.00005392,0.00000103,-0.00000358,-0.00001419,-0.00000
 100,0.00000368,-0.00001418,-0.00000011,0.00000002,-0.00001274,0.000007
 90,0.00000102,-0.00000234,-0.00000788,-0.00000103,-0.00000231,-0.00000
 002,-0.00000006,0.00002089,-0.00000248,0.00000205,-0.00000688,0.000002
 50,-0.00000200,-0.00000690,0.00000002,-0.00000006,0.00002463,-0.000006
 07,0.00000848,-0.00000369,0.00000603,-0.00000851,-0.00000378,-0.000000
 07,0.,0.00000486,-0.00000346,0.00000096,-0.00000202,0.00000347,-0.0000
 0098,-0.00000202,-0.00000003,0.,0.00000587,-0.00000231,-0.00000081,-0.
 00000268,0.00000229,0.00000083,-0.00000272,0.00000009,0.,-0.00000048,0
 .00000187,-0.00000042,-0.00000098,-0.00000187,0.00000041,-0.00000104,-
 0.00000184,0.00001169,-0.00404724,0.00000002,0.,-0.00000272,-0.0000000
 2,0.,0.00000112,-0.00004319,-0.00005122,0.00444435,-0.00033276,-0.0005
 1634,-0.04073194,0.00001083,-0.00000074,0.00469342,0.00000106,-0.00001
 430,0.00761782,0.00000207,0.00000243,-0.00072150,0.00000733,-0.0000216
 0,0.00649622,0.00000045,0.00000010,0.00005568,0.,0.00000275,-0.0012041
 5,0.00035659,0.00057831,0.02723098,-0.00003579,-0.00000050,-0.00000160
 ,-0.00002728,0.00004531,0.00000027,0.00008192,0.00002376,0.00000119,-0
 .00001176,0.00002001,-0.00000078,0.00010545,-0.00002335,0.00000119,-0.
 00017321,0.00005484,0.00000013,0.00006542,-0.00006625,-0.00000286,-0.0
 0001097,-0.00001136,0.00000071,-0.00001469,-0.00001120,-0.00000012,0.0
 0000724,-0.00000218,0.00000075,0.00000190,-0.00000866,0.00000077,0.000
 00379,0.00000678,0.00000068,0.00000434,0.00000515,-0.00000097,0.000011
 39,0.00000231,0.00000023,-0.00000144,-0.00000319,-0.00000236,-0.000001
 42,-0.00000332,0.00000237,-0.00000734,-0.00000137,-0.00000009,0.000001
 04,-0.00000002,-0.00000017,0.00000116,-0.00000003,0.00000031,0.0000056
 2,0.00000389,-0.00000007,-0.00000146,-0.00000162,-0.00000109,-0.000001
 50,-0.00000161,0.00000112,-0.00004474,0.00000499,-0.00000006,-0.000040
 71,0.00002325,0.00010643,-0.00004069,0.00002378,-0.00010624,0.00001936
 ,0.00004762,0.00000027,0.00001862,-0.00001864,0.00000746,0.00001857,-0
 .00001856,-0.00000754,0.00001550,-0.00000265,-0.00000008,-0.00000759,0
 .00001926,0.00000770,-0.00000767,0.00001926,-0.00000753,-0.00000335,-0
 .00000031,0.,0.00000562,-0.00000002,-0.00000033,0.00000566,-0.00000002
 ,0.00000036,0.00153111,-0.00025820,0.00000097,0.00000083,0.00000531,0.
 00000001,-0.00000211,-0.00001929,-0.00000005,0.00960947,-0.02058011,-0
 .00004729,-0.00212817,-0.00311877,-0.00000777,-0.00061569,-0.00074334,
 -0.00000186,-0.00551030,-0.00113659,-0.00000520,-0.00878909,0.03096228
 ,0.00006850,-0.11324806,0.11419067,0.00024770,-0.00051553,0.00143542,0
 .00000319,0.00092485,-0.00047365,-0.00000006,0.00055737,-0.00090360,-0
 .00000202,0.11813831,-0.00001069,0.00000120,-0.00000139,-0.00069666,0.
 00005463,-0.00000059,0.00002249,0.00001876,0.00000046,0.00000682,0.000
 01127,-0.00000174,0.00004743,-0.00005345,0.00000238,-0.00004619,0.0000
 3127,-0.00000015,-0.00000080,-0.00003320,-0.00000336,0.00000516,-0.000
 00028,0.00000149,-0.00000151,-0.00000231,-0.00000016,0.00000325,-0.000
 00078,0.00000115,0.00000369,-0.00000700,0.00000189,0.00000070,0.000006
 23,-0.00000048,0.00000158,0.00000361,-0.00000009,0.00001133,0.00000203
 ,0.00000033,-0.00000030,-0.00000255,0.00000229,-0.00000016,-0.00000265
 ,-0.00000233,-0.00000705,-0.00000093,-0.00000008,-0.00000037,-0.000000
 04,0.00000078,-0.00000043,-0.00000005,-0.00000088,0.00000491,0.0000025
 0,0.00000004,-0.00000019,-0.00000058,-0.00000361,-0.00000024,-0.000000
 59,0.00000364,-0.00006208,-0.00002706,-0.00000037,-0.00001681,0.000046
 14,0.00006230,-0.00001670,0.00004642,-0.00006191,0.00001066,0.00004094
 ,-0.00000006,0.00000992,-0.00001604,0.00000487,0.00000970,-0.00001604,
 -0.00000480,0.00001787,-0.00000548,-0.00000030,0.00001341,0.00000172,-
 0.00000768,0.00001341,0.00000168,0.00000780,-0.00000602,-0.00000320,0.
 00000004,0.00000037,0.00000270,0.00000052,0.00000046,0.00000266,-0.000
 00049,0.00094536,0.00108180,0.00001153,-0.00000074,0.00000325,-0.00000
 002,-0.00000041,-0.00001251,-0.00000007,0.01467435,-0.01912340,-0.0000
 4961,-0.00402215,-0.00197932,-0.00002201,-0.00069438,0.00048445,0.0000
 0288,-0.00037855,0.00160618,-0.00001373,-0.00356189,0.00254770,-0.0000
 0559,0.11224408,-0.29722102,-0.00056601,-0.00013925,0.00001403,-0.0000
 0013,0.00047444,0.00075500,0.00001192,0.00063541,-0.00098313,-0.000002
 61,-0.11957618,0.31276004,-0.00000007,0.00000004,-0.00000017,-0.000002
 03,-0.00000039,0.00028849,0.00000014,-0.00000004,-0.00000198,-0.000000
 06,0.00000004,0.00000346,0.00000017,-0.00000002,-0.00003138,0.00000005
 ,-0.00000021,0.00011675,0.00000002,-0.00000006,0.00000706,-0.00000004,
 0.00000013,-0.00004207,-0.00000002,0.00000001,-0.00000026,-0.00000002,
 -0.00000006,0.00000493,-0.00000003,-0.00000011,0.00001292,-0.00000288,
 0.00000337,-0.00000118,0.00000285,-0.00000334,-0.00000115,0.00000009,0
 .00000002,0.00000479,0.00000157,-0.00000071,-0.00000207,-0.00000159,0.
 00000073,-0.00000212,-0.00000007,-0.00000002,0.00000003,0.00000176,0.0
 0000027,-0.00000093,-0.00000176,-0.00000026,-0.00000093,0.00000002,-0.
 00000002,0.00000258,-0.00000101,0.00000019,-0.00000113,0.00000100,-0.0
 0000018,-0.00000109,-0.00000011,-0.00000050,0.00019630,0.00001776,-0.0
 0001427,-0.00004540,-0.00001790,0.00001469,-0.00004563,0.00000001,0.00
 000021,-0.00005558,-0.00002317,0.00000829,-0.00000373,0.00002322,-0.00
 000836,-0.00000377,0.00000002,-0.00000023,0.00009676,-0.00000512,-0.00
 001054,-0.00002836,0.00000519,0.00001069,-0.00002829,0.00000001,0.0000
 0007,-0.00002672,0.00001115,-0.00000417,-0.00000286,-0.00001112,0.0000
 0420,-0.00000287,0.00000350,0.00001179,-0.00417865,0.00000002,0.000000
 02,0.00000020,-0.00000002,-0.00000008,0.00000842,0.00003466,-0.0000576
 2,0.00446735,-0.00001099,-0.00002047,0.00655815,-0.00000151,0.00000252
 ,-0.00071901,-0.00000333,-0.00001388,0.00760639,-0.00001070,0.00000118
 ,0.00463998,0.00024339,-0.00056581,-0.04081199,-0.00000046,0.00000017,
 0.00006010,0.00000209,0.00001171,-0.00439777,0.00000151,-0.00000297,0.
 00022222,-0.00025665,0.00063125,0.02735336,0.00001196,-0.00000448,0.00
 000261,-0.00044206,-0.00004305,-0.00000056,-0.00006195,-0.00000927,-0.
 00000128,0.00002682,-0.00001613,0.00000230,-0.00011793,0.00003422,-0.0
 0000320,0.00017938,-0.00009775,-0.00000019,-0.00004583,-0.00000616,0.0
 0000527,0.00002257,0.00002267,-0.00000172,0.00000864,0.00001234,0.0000
 0026,-0.00000916,0.00000016,-0.00000172,-0.00000306,0.00001311,-0.0000
 0240,-0.00000321,-0.00000724,0.00000098,-0.00000447,-0.00000341,-0.000
 00022,-0.00001617,-0.00000370,-0.00000056,0.00000131,0.00000461,-0.000
 00320,0.00000117,0.00000481,0.00000324,0.00000773,0.00000168,0.0000001
 8,0.00000118,-0.00000084,-0.00000257,0.00000112,-0.00000084,0.00000250
 ,-0.00000845,-0.00000411,0.,-0.00000034,0.00000074,0.00000773,-0.00000
 027,0.00000077,-0.00000777,-0.00000841,0.00000476,-0.00000009,0.000004
 65,-0.00001073,-0.00001413,0.00000467,-0.00001087,0.00001400,0.0000030
 0,-0.00000757,0.00000003,-0.00000437,0.00000267,-0.00000053,-0.0000042
 5,0.00000271,0.00000046,-0.00000977,-0.00000056,0.00000008,0.00000083,
 -0.00000130,0.00000006,0.00000089,-0.00000131,-0.00000011,0.00000466,0
 .00000322,0.00000004,-0.00000141,-0.00000115,0.00000031,-0.00000146,-0
 .00000114,-0.00000034,-0.00030525,0.00139477,0.00000330,0.00000265,-0.
 00000390,0.00000002,0.00000085,0.00000495,0.00000003,-0.00498175,-0.00
 105399,-0.00000501,-0.00958137,0.03170675,0.00007022,-0.11171192,0.110
 26044,0.00023915,0.01171652,-0.02003837,-0.00004452,-0.00194994,-0.003
 34389,-0.00000940,-0.00077808,-0.00073307,-0.00000177,0.00077978,0.000
 62714,0.00000238,0.00043828,-0.00092463,-0.00000207,0.00090621,-0.0005
 2872,-0.00000021,0.00010607,0.00008283,0.00000044,0.11581989,0.0000100
 9,0.00000090,-0.00000390,0.00002133,-0.00001908,0.00000095,0.00003764,
 0.00000877,0.00000196,-0.00001805,-0.00001141,-0.00000330,0.00002916,-
 0.00001431,0.00000459,-0.00005975,-0.00000206,0.00000003,0.00002505,0.
 00001044,-0.00000772,-0.00000793,-0.00000147,0.00000256,-0.00000792,-0
 .00000384,-0.00000036,0.00000421,-0.00000042,0.00000247,0.00000379,-0.
 00000548,0.00000337,0.00000275,0.00000456,0.00000034,0.00000453,-0.000
 00098,-0.00000141,0.00000749,0.00000204,0.00000079,-0.00000158,-0.0000
 0217,-0.00000252,-0.00000137,-0.00000250,0.00000250,-0.00000692,-0.000
 00132,-0.00000029,0.00000095,0.00000003,-0.00000017,0.00000111,0.,0.00
 000035,0.00000411,0.00000355,-0.00000006,-0.00000144,-0.00000164,-0.00
 000026,-0.00000158,-0.00000162,0.00000035,0.00000474,0.00000595,0.0000
 0012,-0.00000623,0.00000410,0.00000790,-0.00000631,0.00000425,-0.00000
 770,-0.00000480,0.00000215,-0.00000002,0.00000385,-0.00000030,0.000000
 83,0.00000365,-0.00000037,-0.00000073,0.00000344,-0.00000005,-0.000000
 16,-0.00000098,0.00000107,0.00000385,-0.00000113,0.00000110,-0.0000037
 5,-0.00000248,-0.00000141,-0.00000007,0.00000216,0.00000071,-0.0000012
 4,0.00000227,0.00000068,0.00000133,0.00001123,-0.00005136,-0.00000123,
 0.00000136,0.00000428,-0.00000003,-0.00000189,-0.00000342,-0.00000004,
 -0.00069893,0.00185114,-0.00001304,-0.00310676,0.00191108,-0.00000646,
 0.11045285,-0.29661141,-0.00056384,0.01467815,-0.01834582,-0.00004918,
 -0.00406552,-0.00203173,-0.00002200,-0.00075349,0.00045481,0.00000247,
 -0.00043048,0.00085536,0.00001126,0.00068769,-0.00098580,-0.00000229,0
 .00041841,0.00076208,0.00001196,0.00009070,-0.00003456,0.00000273,-0.1
 1732716,0.31224553,-0.00000008,0.00000003,0.00000182,0.00000010,0.0000
 0042,-0.00015548,0.00000028,-0.00000008,-0.00000328,-0.00000016,0.0000
 0006,-0.00000581,0.00000011,-0.00000002,0.00001098,-0.00000016,0.00000
 004,0.00000507,0.00000019,0.,-0.00001919,-0.00000013,-0.00000003,-0.00
 000620,-0.00000003,0.,0.00000770,-0.00000001,-0.00000002,0.00000353,-0
 .00000004,-0.00000007,0.00000112,-0.00000256,-0.00000011,-0.00000028,0
 .00000258,0.00000013,-0.00000028,0.00000005,0.00000002,0.00001169,0.00
 000131,-0.00000009,-0.00000321,-0.00000131,0.00000011,-0.00000321,-0.0
 0000007,-0.00000001,-0.00000225,0.00000270,-0.00000030,-0.00000113,-0.
 00000269,0.00000030,-0.00000111,0.,-0.00000002,0.00000739,-0.00000137,
 -0.00000008,-0.00000260,0.00000137,0.00000009,-0.00000258,0.00000006,0
 .,0.00000568,-0.00000113,-0.00000220,-0.00000069,0.00000107,0.00000220
 ,-0.00000069,-0.00000005,0.,0.,-0.00000167,0.00000074,-0.00000091,0.00
 000169,-0.00000074,-0.00000090,0.,0.,0.00000478,-0.00000122,-0.0000000
 3,-0.00000130,0.00000121,0.00000005,-0.00000132,0.00000004,-0.00000001
 ,-0.00000044,0.00000115,-0.00000005,-0.00000063,-0.00000113,0.00000006
 ,-0.00000066,-0.00000019,-0.00000079,0.00034686,0.00000002,0.00000002,
 -0.00000005,-0.00000001,-0.00000002,0.00000087,-0.00000391,-0.00001290
 ,0.00750985,-0.00000990,0.00000018,0.00441193,0.00023970,-0.00056393,-
 0.04133205,0.00003508,-0.00005582,0.00434266,-0.00001108,-0.00002182,0
 .00721928,-0.00000179,0.00000242,-0.00065235,-0.00000006,0.00001146,-0
 .00409421,0.00000163,-0.00000263,0.00008237,0.00000197,0.00001171,-0.0
 0440515,0.00000047,0.00000271,-0.00121311,-0.00025201,0.00062906,0.027
 93750\\0.00000031,0.00000209,0.00000002,-0.00000094,-0.00000062,0.0000
 0005,-0.00000050,0.00000123,-0.00000001,-0.00000008,0.00000083,0.00000
 002,-0.00000148,0.00000093,-0.00000012,0.00000067,0.00000056,0.0000000
 5,0.00000050,0.00000021,-0.00000010,0.00000134,0.00000166,0.00000008,-
 0.00000123,-0.00000012,-0.00000001,0.00000131,0.00000185,0.00000004,-0
 .00000079,0.00000136,0.00000022,-0.00000123,0.00000200,-0.00000014,-0.
 00000115,0.00000181,-0.00000004,-0.00000235,0.00000141,0.00000002,-0.0
 0000198,0.00000079,-0.00000017,-0.00000179,0.00000092,0.00000018,-0.00
 000234,0.00000147,0.00000003,-0.00000249,0.00000185,0.00000011,-0.0000
 0256,0.00000194,-0.00000015,-0.00000338,0.00000118,0.,-0.00000301,0.00
 000096,0.00000013,-0.00000303,0.00000099,-0.00000010,0.00000098,0.0000
 0015,0.,0.00000128,-0.00000017,0.00000014,0.00000129,-0.00000022,-0.00
 000014,0.00000207,0.00000033,0.,0.00000194,0.00000080,-0.00000017,0.00
 000193,0.00000081,0.00000014,0.00000240,0.00000025,-0.00000005,0.00000
 258,-0.00000021,0.00000021,0.00000256,-0.00000025,-0.00000015,0.000003
 44,0.00000037,0.00000001,0.00000310,0.00000077,0.00000012,0.00000309,0
 .00000080,-0.00000016,0.00000076,-0.00000118,0.,-0.00000370,0.00000134
 ,0.,0.00000373,0.00000036,0.00000002,0.00000053,-0.00000151,-0.0000000
 4,-0.00000059,-0.00000108,0.,-0.00000095,-0.00000223,0.,-0.00000092,-0
 .00000326,0.,0.00000072,-0.00000417,0.,0.00000047,-0.00000285,0.000000
 01,-0.00000005,-0.00000406,-0.00000001,0.00000074,-0.00000324,0.,-0.00
 000095,-0.00000176,0.,0.00000099,-0.00000195,0.,-0.00000120,-0.0000031
 4,0.\\\@


 I MET A TRAVELLER FROM AN ANTIQUE LAND
 WHO SAID... TWO VAST AND TRUNKLESS LEGS OF STONE
 STAND IN THE DESERT..... NEAR THEM,  ON THE SAND,
 HALF SUNK,  A SHATTERED VISAGE LIES,  WHOSE FROWN,
 AND WRINKLED LIP,  AND SNEER OF COLD COMMAND
 TELL THAT ITS SCULPTOR WELL THOSE PASSIONS READ
 WHICH YET SURVIVE,  STAMPED ON THESE LIFELESS THINGS
 THE HAND THAT MOCKED THEM,  AND THE HEART THAT FED-
 AND ON THE PEDESTAL THESE WORDS APPEAR 
 MY NAME IS OZYMANDIAS, KING OF KINGS--   
 LOOK ON MY WORKS YE MIGHTY AND DESPAIR. 
 NOTHING BESIDE REMAINS,  ROUND THE DECAY 
 OF THAT COLOSSAL WRECK,  BOUNDLESS AND BARE
 THE LONE AND LEVEL SANDS STRETCH FAR AWAY.
                                    SHELLEY
 Job cpu time:       0 days  8 hours 25 minutes  9.8 seconds.
 File lengths (MBytes):  RWF=   2870 Int=      0 D2E=      0 Chk=     18 Scr=      1
 Normal termination of Gaussian 09 at Fri May 10 19:07:11 2024.
